,SMILES,new name,old name,homo,lumo,bandgap
0,C=C1C(=O)C2=CC(=C(C=C2C1=C(C#N)C#N)C#N)C#N,0atr,10atr,-8.108638997,-4.389141986,3.719497011
3,C=C1C(=O)C2=CSC=C2C1=C(C#N)C#N,3atr,15atr,-7.356461891,-3.596746453,3.759715438
6,C=C1C(=O)C2=C(C=C(C(=C2)C#N)C(=O)O)C1=C(C#N)C#N,6atr,11atr,-8.077291481,-4.367536146,3.709755335
7,C1=C(ON=C1)C=O,7atr,30utr,-7.775435587,-2.579666514,5.195769073
8,C1=CC=C2C(=C1)S/C(=C\C=C\3/C(=C(C#N)C#N)C4=C(C3=O)C=CC=C4)/N2C,8atr,16utr,-7.568901174,-2.346737058,5.222164116
11,C1=NC=CN1C(=O)N2C=NC=C2,11atr,37utr,-7.173492538,-2.060935881,5.112556657
12,C=C1C(=O)C2=C(C=C(C(=C2)F)F)C1=C(C#N)C#N,12atr,1atr,-7.569336557,-3.760722259,3.808614298
13,C1=CC=C(C(=C1)CO)[N+](=O)[O-],13atr,40utr,-7.497825037,-2.543012778,4.954812259
17,C=C1C(=O)C2=C(C1=C(C#N)C#N)C=C(C(=C2F)F)F,17atr,21atr,-7.678372576,-3.889840282,3.788532294
18,C=C1C(=O)C2=C(C1=C(C#N)C#N)C=CC3=C2C=CC=C3,18atr,42utr,-6.919338202,-3.515139509,3.404198693
19,C=C1C(=O)C2=C(SC=C2C1=C(C#N)C#N)Cl,19atr,34atr,-7.289385827,-3.687414788,3.601971039
20,C=C1C(=O)C2=C(C=C(C(=C2)C)C)C1=C(C#N)C#N,20atr,22atr,-7.171968701,-3.388987528,3.782981173
23,C1=NC(=CO1)C=O,23atr,34utr,-7.331046458,-1.919844849,5.411201609
24,C=C1C(=O)C2=C(C1=C(C#N)C#N)C=CC(=C2)Cl,24atr,29atr,-7.393306107,-3.67389073,3.719415377
27,C=c1c2c(c(=C(C#N)C#N)s1)C=CC=C2,27atr,45utr,-6.631305691,-3.128601785,3.502703906
31,C1=C(OC2=CC=CC=C2C1=O)C,31atr,25utr,-6.650489718,-1.595947733,5.054541985
33,C=C(C(=O)OC)C#N,33atr,44utr,-8.196695039,-2.4601269,5.736568139
36,C1=CC=C2C(=C1)C=C(C(=O)N2)C#N,36atr,39utr,-6.739688638,-2.620157055,4.119531583
38,C=C1C(=C(C#N)C#N)C2=C(C1=O)C=CC(=C2)C,38atr,16atr,-7.020755034,-2.118896131,4.901858903
43,C=C1C(=C(C#N)C#N)C2=C(C=CS2)C1=O,43atr,35atr,-7.288977656,-3.607358893,3.681618763
52,C=C1C(=C(C#N)C#N)C2=C(C1=O)C=C3C(=C2)SC=C3,52atr,32atr,-6.890902305,-3.517370843,3.373531462
54,C=C1C(=O)C2=CC=CC=C2C1=O,54atr,27atr,-6.94916188,-2.670906288,4.278255592
55,C=C1C(=O)C2=CC3=C(C=C(C=C3)F)C=C2C1=C(C#N)C#N,55atr,52utr,-6.997598145,-3.672639006,3.324959139
56,C1=C(C(=C(C#N)C#N)SC1(C2=CC=CC=C2)C3=CC=CC=C3)C#N,56atr,21utr,-7.04208876,-3.315544,3.72654476
59,C#Cc1c(c(c(s1)C#N)F)F,59atr,28utr,-7.124947427,-2.66780419,4.457143237
60,C1=CC=C2C(=C1)C=C(C(=O)N2)C#N,36atr,39utr,-6.697701471,-2.624075495,4.073625976
62,C=C1C(=C(C#N)C#N)C2=C(C=CC=C2)C1=C(C#N)C#N,62atr,19atr,-7.421116142,-3.896371014,3.524745128
64,C1=C(OC2=CC=CC=C2C1=O)C,31atr,25utr,-7.3010323,-1.127830276,6.173202024
69,C=C1C(=C(C#N)C#N)C2=C(C1=O)C=C3C(=C2)SC(=C3)Br,69atr,33atr,-6.919310991,-3.59315455,3.326156441
76,C=C1C(=C(C#N)C#N)C2=C(C1=O)C=C(C(=C2)Cl)Cl,76atr,3atr,-7.468899334,-3.775579676,3.693319658
78,C=C1C(=O)C2=CC3=C(C=C(C(=C3)F)F)C=C2C1=C(C#N)C#N,70atr,53utr,-7.098987766,-3.727034565,3.371953201
80,C=C1SC(=O)C=C1,80atr,27utr,-6.750409924,-2.5009984,4.249411524
81,C=c1c(=O)n(c(=C(C#N)C#N)s1)C,81atr,20atr,-6.99827843,-3.002313747,3.995964683
85,C=C1C(=C(C#N)C#N)C2=C(C1=O)C=C(C(=C2)C(=O)OC)C(=O)OC,85atr,47utr,-7.482940409,-3.70219057,3.780749839
88,C=C1C(=O)C2=C(C1=C(C#N)C#N)C=C(C(=C2)Br)Br,88atr,31atr,-7.418150101,-3.786110482,3.632039619
90,C=C1C(=C(C#N)C#N)C2=C(C1=O)C=C1C(=C2)C=CC=C1,90atr,51utr,-6.874221725,-3.577671272,3.296550453
93,OC(=O)c1c(noc1C#N)C#N,93atr,33utr,-8.89651744,-3.774654489,5.121862951
96,C=C1C(=O)C2=C(SC=C2C1=C(C#N)C#N)C,96atr,14atr,-7.159587521,-3.491003011,3.66858451
97,C=C1C(=O)N(C(=O)N(C1=O)C)C,97atr,25atr,-7.438177681,-2.658116937,4.780060744
99,C=C1C(=O)C2=C(C1=C(C#N)C#N)C=CC(=C2)Br,99atr,30atr,-7.360108217,-3.692040724,3.668067493
100,C1=C(C(=C(C#N)C#N)OC1(C2=CC=CC=C2)C3=CC=CC=C3)C#N,100atr,20utr,-7.163397114,-3.22419538,3.939201734
101,C=C1C(=C(C#N)C#N)C2=C(C1=O)C=C3C(=C2)SC=C3,52atr,32atr,-7.43385107,-3.566705084,3.867145986
103,C=C1C(=O)C2=C(C1=C(C#N)C#N)C=CS2,103atr,23atr,-7.414530987,-3.511955777,3.90257521