
                                 *****************
                                 * O   R   C   A *
                                 *****************

           --- An Ab Initio, DFT and Semiempirical electronic structure package ---

                  #######################################################
                  #                        -***-                        #
                  #          Department of theory and spectroscopy      #
                  #               Directorship: Frank Neese             #
                  #        Max Planck Institute fuer Kohlenforschung    #
                  #                Kaiser Wilhelm Platz 1               #
                  #                 D-45470 Muelheim/Ruhr               #
                  #                      Germany                        #
                  #                                                     #
                  #                  All rights reserved                #
                  #                        -***-                        #
                  #######################################################


                         Program Version 4.2.0 -  RELEASE  -


 With contributions from (in alphabetic order):
   Daniel Aravena         : Magnetic Suceptibility
   Michael Atanasov       : Ab Initio Ligand Field Theory (pilot matlab implementation)
   Alexander A. Auer      : GIAO ZORA, VPT2
   Ute Becker             : Parallelization
   Giovanni Bistoni       : ED, misc. LED, open-shell LED, HFLED
   Martin Brehm           : Molecular dynamics
   Dmytro Bykov           : SCF Hessian
   Vijay G. Chilkuri      : MRCI spin determinant printing, contributions to CSF-ICE
   Dipayan Datta          : RHF DLPNO-CCSD density
   Achintya Kumar Dutta   : EOM-CC, STEOM-CC
   Dmitry Ganyushin       : Spin-Orbit,Spin-Spin,Magnetic field MRCI
   Miquel Garcia          : C-PCM Hessian, Gaussian charge scheme
   Yang Guo               : DLPNO-NEVPT2, CIM, IAO-localization
   Andreas Hansen         : Spin unrestricted coupled pair/coupled cluster methods
   Benjamin Helmich-Paris : CASSCF linear response (MC-RPA)
   Lee Huntington         : MR-EOM, pCC
   Robert Izsak           : Overlap fitted RIJCOSX, COSX-SCS-MP3, EOM
   Christian Kollmar      : KDIIS, OOCD, Brueckner-CCSD(T), CCSD density
   Simone Kossmann        : Meta GGA functionals, TD-DFT gradient, OOMP2, MP2 Hessian
   Martin Krupicka        : AUTO-CI
   Lucas Lang             : DCDCAS
   Dagmar Lenk            : GEPOL surface, SMD
   Dimitrios Liakos       : Extrapolation schemes; Compound Job, initial MDCI parallelization
   Dimitrios Manganas     : Further ROCIS development; embedding schemes
   Dimitrios Pantazis     : SARC Basis sets
   Taras Petrenko         : DFT Hessian,TD-DFT gradient, ASA, ECA, R-Raman, ABS, FL, XAS/XES, NRVS
   Peter Pinski           : DLPNO-MP2, DLPNO-MP2 Gradient
   Christoph Reimann      : Effective Core Potentials
   Marius Retegan         : Local ZFS, SOC
   Christoph Riplinger    : Optimizer, TS searches, QM/MM, DLPNO-CCSD(T), (RO)-DLPNO pert. Triples
   Tobias Risthaus        : Range-separated hybrids, TD-DFT gradient, RPA, STAB
   Michael Roemelt        : Original ROCIS implementation
   Masaaki Saitow         : Open-shell DLPNO-CCSD energy and density
   Barbara Sandhoefer     : DKH picture change effects
   Avijit Sen             : IP-ROCIS
   Kantharuban Sivalingam : CASSCF convergence, NEVPT2, FIC-MRCI
   Bernardo de Souza      : ESD, SOC TD-DFT
   Georgi Stoychev        : AutoAux, RI-MP2 NMR
   Willem Van den Heuvel  : Paramagnetic NMR
   Boris Wezisla          : Elementary symmetry handling
   Frank Wennmohs         : Technical directorship


 We gratefully acknowledge several colleagues who have allowed us to
 interface, adapt or use parts of their codes:
   Stefan Grimme, W. Hujo, H. Kruse,             : VdW corrections, initial TS optimization,
                  C. Bannwarth                     DFT functionals, gCP, sTDA/sTD-DF
   Ed Valeev, F. Pavosevic, A. Kumar             : LibInt (2-el integral package), F12 methods
   Garnet Chan, S. Sharma, J. Yang, R. Olivares  : DMRG
   Ulf Ekstrom                                   : XCFun DFT Library
   Mihaly Kallay                                 : mrcc  (arbitrary order and MRCC methods)
   Andreas Klamt, Michael Diedenhofen            : otool_cosmo (COSMO solvation model)
   Jiri Pittner, Ondrej Demel                    : Mk-CCSD
   Frank Weinhold                                : gennbo (NPA and NBO analysis)
   Christopher J. Cramer and Donald G. Truhlar   : smd solvation model
   Lars Goerigk                                  : TD-DFT with DH, B97 family of functionals
   V. Asgeirsson, H. Jonsson                     : NEB implementation
   FAccTs GmbH                                   : IRC, NEB, NEB-TS, Multilevel, MM, QM/MM, CI optimization
   S Lehtola, MJT Oliveira, MAL Marques          : LibXC Library


 Your calculation uses the libint2 library for the computation of 2-el integrals
 For citations please refer to: http://libint.valeyev.net

 Your ORCA version has been built with support for libXC version: 4.2.3
 For citations please refer to: https://tddft.org/programs/libxc/

 This ORCA versions uses:
   CBLAS   interface :  Fast vector & matrix operations
   LAPACKE interface :  Fast linear algebra routines
   SCALAPACK package :  Parallel linear algebra routines


XCFun DFT library Copyright 2009-2010 Ulf Ekstrom and contributors.
See http://admol.org/xcfun for more information. This is free soft-
ware; see the source code for copying conditions. There is ABSOLUTELY
NO WARRANTY; not even for MERCHANTABILITY or FITNESS FOR A PARTICULAR
PURPOSE. For details see the documentation. Scientific users of this 
library should cite U. Ekstrom, L. Visscher, R. Bast, A. J. Thorvald-
sen and K. Ruud; J.Chem.Theor.Comp. 2010, DOI: 10.1021/ct100117s
XCFun Version 0.99 
----- Orbital basis set information -----
Your calculation utilizes the basis: def2-SVP
   F. Weigend and R. Ahlrichs, Phys. Chem. Chem. Phys. 7, 3297 (2005).

----- AuxJ basis set information -----
Your calculation utilizes the auxiliary basis: def2/J
   F. Weigend, Phys. Chem. Chem. Phys. 8, 1057 (2006).

================================================================================
                                        WARNINGS
                       Please study these warnings very carefully!
================================================================================

INFO   : Checking CIS options ...

WARNING: CIS/ROCIS methods need fully converged wavefunctions
  ===> : Setting SCFConvForced true
         You can overwrite this default with %scf ConvForced false 


INFO   : the flag for use of LIBINT has been found!

================================================================================
                                       INPUT FILE
================================================================================
NAME = xtbopt.inp
|  1> # ORCA input file
|  2> # SCF done       -197.252801450815          0.000827872316
|  3> ! CAM-B3LYP def2-SVP def2/J RIJCOSX Grid4 TightSCF
|  4> %maxcore 5000
|  5> %tddft
|  6>     Mode sTDDFT
|  7>     Ethresh 5.0
|  8>     maxcore 5000
|  9> end
| 10> 
| 11> %pal
| 12>   nprocs 6
| 13>   end
| 14> * xyz 0 1
| 15>    C        0.54192         4.17309        -4.42480
| 16>    C       -0.77155         3.56207        -4.77707
| 17>    O       -1.20262         3.39037        -5.89538
| 18>    C       -1.36672         3.17107        -3.48525
| 19>    C       -0.55916         3.62602        -2.44144
| 20>    C        0.54913         4.39733        -2.99541
| 21>    C        1.27980         5.34373        -2.32815
| 22>    C        2.09041         6.29502        -2.98449
| 23>    N        2.70337         7.12558        -3.48583
| 24>    C        1.24421         5.53905        -0.93325
| 25>    N        1.29006         5.71413         0.20062
| 26>    C       -0.89227         3.35314        -1.10866
| 27>    C       -2.03037         2.63514        -0.84880
| 28>    C       -2.87781         2.17349        -1.87979
| 29>    C       -2.54637         2.44137        -3.24022
| 30>    C       -3.39474         1.97607        -4.26554
| 31>    C       -4.52788         1.27604        -3.95511
| 32>    C       -4.85990         1.01060        -2.61682
| 33>    C       -4.05397         1.44786        -1.60182
| 34>    C        1.52063         4.26566        -5.36367
| 35>    C        2.91208         4.41036        -5.15967
| 36>    O        3.48004         4.31792        -3.93155
| 37>    C        4.81882         4.43043        -4.04053
| 38>    C        5.13601         4.59218        -5.38427
| 39>    C        3.93032         4.57212        -6.09370
| 40>    F        3.76694         4.68597        -7.40686
| 41>    F        6.35659         4.73464        -5.90416
| 42>    C        5.63037         4.37512        -2.85497
| 43>    C        7.00498         4.37936        -2.93182
| 44>    C        7.77102         4.30639        -1.75155
| 45>    C        9.14322         4.26200        -1.54688
| 46>    C       10.24217         4.31118        -2.55378
| 47>    C       10.19974         3.09261        -3.49712
| 48>    N       11.52789         2.85795        -4.03128
| 49>    C       10.21563         5.63813        -3.33575
| 50>    N       11.42717         5.78812        -4.12873
| 51>    C        9.34396         4.13431        -0.12096
| 52>    C       10.46598         3.98121         0.60541
| 53>    C       10.41517         3.79516         2.08621
| 54>    C        9.04941         3.92217         2.68425
| 55>    C        7.93699         4.06222         1.94167
| 56>    C        8.02645         4.14217         0.53093
| 57>    C        7.08056         4.23901        -0.46609
| 58>    C        5.66601         4.25638        -0.42519
| 59>    C        4.96682         4.31356        -1.58310
| 60>    C       11.40580         4.71081         2.75369
| 61>    C       11.13583         5.98450         3.05812
| 62>    C       12.05526         6.82378         3.76665
| 63>    O       13.21467         6.32135         4.23634
| 64>    C       13.85885         7.27428         4.95432
| 65>    C       13.10262         8.43955         4.90940
| 66>    C       11.95005         8.14719         4.16331
| 67>    F       10.94583         8.96936         3.87500
| 68>    F       13.42184         9.59284         5.48112
| 69>    C       15.10641         7.02863         5.58218
| 70>    C       15.75194         5.84334         5.71826
| 71>    C       17.21473         5.82120         6.02028
| 72>    O       17.86346         6.74013         6.46502
| 73>    C       17.66807         4.48382         5.59742
| 74>    C       16.56898         3.71974         5.19781
| 75>    C       15.34755         4.48171         5.42826
| 76>    C       14.09413         3.95590         5.58679
| 77>    C       13.02633         4.66265         6.18218
| 78>    N       12.14829         5.16494         6.72338
| 79>    C       13.72701         2.64254         5.23426
| 80>    N       13.33973         1.61395         4.90135
| 81>    C       16.74130         2.41295         4.72315
| 82>    C       18.00909         1.89614         4.66464
| 83>    C       19.14003         2.63404         5.07863
| 84>    C       18.97781         3.96683         5.55891
| 85>    C       20.10966         4.69769         5.97366
| 86>    C       21.35248         4.12919         5.91787
| 87>    C       21.51794         2.81713         5.44602
| 88>    C       20.43761         2.08563         5.03438
| 89>    H       -0.26125         3.69032        -0.30227
| 90>    H       -2.29975         2.41039         0.17318
| 91>    H       -3.12928         2.18532        -5.28971
| 92>    H       -5.17793         0.92121        -4.74081
| 93>    H       -5.75969         0.45615        -2.39472
| 94>    H       -4.30746         1.24532        -0.57121
| 95>    H        1.21907         4.11695        -6.39405
| 96>    H        7.49773         4.41795        -3.88819
| 97>    H       11.20182         4.25645        -2.03023
| 98>    H        9.43676         3.26138        -4.27273
| 99>    H        9.90366         2.20677        -2.92400
|100>    H       11.82998         3.69764        -4.51936
|101>    H       11.51130         2.09018        -4.69369
|102>    H       10.06693         6.46121        -2.61556
|103>    H        9.36914         5.64583        -4.02515
|104>    H       12.23239         5.90031        -3.52044
|105>    H       11.36308         6.61328        -4.71480
|106>    H       11.44753         3.95977         0.15213
|107>    H       10.75949         2.76505         2.27599
|108>    H        9.00612         3.87065         3.76097
|109>    H        6.96539         4.12127         2.40897
|110>    H        5.15799         4.21694         0.52635
|111>    H        3.88879         4.31821        -1.57512
|112>    H       12.37705         4.29968         2.98904
|113>    H       10.18315         6.43184         2.81472
|114>    H       15.63124         7.91101         5.92959
|115>    H       15.89564         1.82718         4.40065
|116>    H       18.16108         0.89182         4.29649
|117>    H       19.97103         5.70480         6.33368
|118>    H       22.21855         4.68830         6.23840
|119>    H       22.50838         2.38839         5.41075
|120>    H       20.56226         1.07551         4.67211
|121> *
|122> 
|123>                          ****END OF INPUT****
================================================================================

                       ****************************
                       * Single Point Calculation *
                       ****************************

---------------------------------
CARTESIAN COORDINATES (ANGSTROEM)
---------------------------------
  C      0.541920    4.173090   -4.424800
  C     -0.771550    3.562070   -4.777070
  O     -1.202620    3.390370   -5.895380
  C     -1.366720    3.171070   -3.485250
  C     -0.559160    3.626020   -2.441440
  C      0.549130    4.397330   -2.995410
  C      1.279800    5.343730   -2.328150
  C      2.090410    6.295020   -2.984490
  N      2.703370    7.125580   -3.485830
  C      1.244210    5.539050   -0.933250
  N      1.290060    5.714130    0.200620
  C     -0.892270    3.353140   -1.108660
  C     -2.030370    2.635140   -0.848800
  C     -2.877810    2.173490   -1.879790
  C     -2.546370    2.441370   -3.240220
  C     -3.394740    1.976070   -4.265540
  C     -4.527880    1.276040   -3.955110
  C     -4.859900    1.010600   -2.616820
  C     -4.053970    1.447860   -1.601820
  C      1.520630    4.265660   -5.363670
  C      2.912080    4.410360   -5.159670
  O      3.480040    4.317920   -3.931550
  C      4.818820    4.430430   -4.040530
  C      5.136010    4.592180   -5.384270
  C      3.930320    4.572120   -6.093700
  F      3.766940    4.685970   -7.406860
  F      6.356590    4.734640   -5.904160
  C      5.630370    4.375120   -2.854970
  C      7.004980    4.379360   -2.931820
  C      7.771020    4.306390   -1.751550
  C      9.143220    4.262000   -1.546880
  C     10.242170    4.311180   -2.553780
  C     10.199740    3.092610   -3.497120
  N     11.527890    2.857950   -4.031280
  C     10.215630    5.638130   -3.335750
  N     11.427170    5.788120   -4.128730
  C      9.343960    4.134310   -0.120960
  C     10.465980    3.981210    0.605410
  C     10.415170    3.795160    2.086210
  C      9.049410    3.922170    2.684250
  C      7.936990    4.062220    1.941670
  C      8.026450    4.142170    0.530930
  C      7.080560    4.239010   -0.466090
  C      5.666010    4.256380   -0.425190
  C      4.966820    4.313560   -1.583100
  C     11.405800    4.710810    2.753690
  C     11.135830    5.984500    3.058120
  C     12.055260    6.823780    3.766650
  O     13.214670    6.321350    4.236340
  C     13.858850    7.274280    4.954320
  C     13.102620    8.439550    4.909400
  C     11.950050    8.147190    4.163310
  F     10.945830    8.969360    3.875000
  F     13.421840    9.592840    5.481120
  C     15.106410    7.028630    5.582180
  C     15.751940    5.843340    5.718260
  C     17.214730    5.821200    6.020280
  O     17.863460    6.740130    6.465020
  C     17.668070    4.483820    5.597420
  C     16.568980    3.719740    5.197810
  C     15.347550    4.481710    5.428260
  C     14.094130    3.955900    5.586790
  C     13.026330    4.662650    6.182180
  N     12.148290    5.164940    6.723380
  C     13.727010    2.642540    5.234260
  N     13.339730    1.613950    4.901350
  C     16.741300    2.412950    4.723150
  C     18.009090    1.896140    4.664640
  C     19.140030    2.634040    5.078630
  C     18.977810    3.966830    5.558910
  C     20.109660    4.697690    5.973660
  C     21.352480    4.129190    5.917870
  C     21.517940    2.817130    5.446020
  C     20.437610    2.085630    5.034380
  H     -0.261250    3.690320   -0.302270
  H     -2.299750    2.410390    0.173180
  H     -3.129280    2.185320   -5.289710
  H     -5.177930    0.921210   -4.740810
  H     -5.759690    0.456150   -2.394720
  H     -4.307460    1.245320   -0.571210
  H      1.219070    4.116950   -6.394050
  H      7.497730    4.417950   -3.888190
  H     11.201820    4.256450   -2.030230
  H      9.436760    3.261380   -4.272730
  H      9.903660    2.206770   -2.924000
  H     11.829980    3.697640   -4.519360
  H     11.511300    2.090180   -4.693690
  H     10.066930    6.461210   -2.615560
  H      9.369140    5.645830   -4.025150
  H     12.232390    5.900310   -3.520440
  H     11.363080    6.613280   -4.714800
  H     11.447530    3.959770    0.152130
  H     10.759490    2.765050    2.275990
  H      9.006120    3.870650    3.760970
  H      6.965390    4.121270    2.408970
  H      5.157990    4.216940    0.526350
  H      3.888790    4.318210   -1.575120
  H     12.377050    4.299680    2.989040
  H     10.183150    6.431840    2.814720
  H     15.631240    7.911010    5.929590
  H     15.895640    1.827180    4.400650
  H     18.161080    0.891820    4.296490
  H     19.971030    5.704800    6.333680
  H     22.218550    4.688300    6.238400
  H     22.508380    2.388390    5.410750
  H     20.562260    1.075510    4.672110

----------------------------
CARTESIAN COORDINATES (A.U.)
----------------------------
  NO LB      ZA    FRAG     MASS         X           Y           Z
   0 C     6.0000    0    12.011    1.024080    7.885997   -8.361660
   1 C     6.0000    0    12.011   -1.458018    6.731337   -9.027354
   2 O     8.0000    0    15.999   -2.272622    6.406871  -11.140654
   3 C     6.0000    0    12.011   -2.582727    5.992454   -6.586168
   4 C     6.0000    0    12.011   -1.056659    6.852185   -4.613653
   5 C     6.0000    0    12.011    1.037705    8.309749   -5.660505
   6 C     6.0000    0    12.011    2.418472   10.098186   -4.399566
   7 C     6.0000    0    12.011    3.950302   11.895864   -5.639869
   8 N     7.0000    0    14.007    5.108629   13.465395   -6.587264
   9 C     6.0000    0    12.011    2.351216   10.467288   -1.763587
  10 N     7.0000    0    14.007    2.437860   10.798141    0.379117
  11 C     6.0000    0    12.011   -1.686146    6.336516   -2.095064
  12 C     6.0000    0    12.011   -3.836843    4.979693   -1.604000
  13 C     6.0000    0    12.011   -5.438273    4.107301   -3.552288
  14 C     6.0000    0    12.011   -4.811942    4.613521   -6.123128
  15 C     6.0000    0    12.011   -6.415129    3.734231   -8.060702
  16 C     6.0000    0    12.011   -8.556453    2.411366   -7.474075
  17 C     6.0000    0    12.011   -9.183880    1.909757   -4.945073
  18 C     6.0000    0    12.011   -7.660893    2.736059   -3.027001
  19 C     6.0000    0    12.011    2.873574    8.060929  -10.135867
  20 C     6.0000    0    12.011    5.503034    8.334373   -9.750363
  21 O     8.0000    0    15.999    6.576323    8.159686   -7.429553
  22 C     6.0000    0    12.011    9.106250    8.372299   -7.635495
  23 C     6.0000    0    12.011    9.705652    8.677963  -10.174796
  24 C     6.0000    0    12.011    7.427228    8.640055  -11.515424
  25 F     9.0000    0    18.998    7.118485    8.855200  -13.996937
  26 F     9.0000    0    18.998   12.012214    8.947173  -11.157245
  27 C     6.0000    0    12.011   10.639857    8.267779   -5.395111
  28 C     6.0000    0    12.011   13.237494    8.275791   -5.540337
  29 C     6.0000    0    12.011   14.685100    8.137898   -3.309950
  30 C     6.0000    0    12.011   17.278182    8.054013   -2.923180
  31 C     6.0000    0    12.011   19.354896    8.146950   -4.825945
  32 C     6.0000    0    12.011   19.274715    5.844186   -6.608599
  33 N     7.0000    0    14.007   21.784555    5.400743   -7.618015
  34 C     6.0000    0    12.011   19.304743   10.654522   -6.303654
  35 N     7.0000    0    14.007   21.594222   10.937962   -7.802169
  36 C     6.0000    0    12.011   17.657525    7.812714   -0.228581
  37 C     6.0000    0    12.011   19.777836    7.523397    1.144059
  38 C     6.0000    0    12.011   19.681819    7.171813    3.942366
  39 C     6.0000    0    12.011   17.100907    7.411827    5.072497
  40 C     6.0000    0    12.011   14.998737    7.676483    3.669225
  41 C     6.0000    0    12.011   15.167792    7.827567    1.003312
  42 C     6.0000    0    12.011   13.380319    8.010568   -0.880782
  43 C     6.0000    0    12.011   10.707207    8.043393   -0.803493
  44 C     6.0000    0    12.011    9.385930    8.151447   -2.991625
  45 C     6.0000    0    12.011   21.553838    8.902141    5.203720
  46 C     6.0000    0    12.011   21.043669   11.309066    5.779009
  47 C     6.0000    0    12.011   22.781140   12.895075    7.117937
  48 O     8.0000    0    15.999   24.972107   11.945620    8.005522
  49 C     6.0000    0    12.011   26.189431   13.746397    9.362308
  50 C     6.0000    0    12.011   24.760363   15.948438    9.277421
  51 C     6.0000    0    12.011   22.582322   15.395958    7.867516
  52 F     9.0000    0    18.998   20.684621   16.949634    7.322689
  53 F     9.0000    0    18.998   25.363602   18.127840   10.357816
  54 C     6.0000    0    12.011   28.546978   13.282186   10.548791
  55 C     6.0000    0    12.011   29.766853   11.042312   10.805945
  56 C     6.0000    0    12.011   32.531125   11.000474   11.376680
  57 O     8.0000    0    15.999   33.757047   12.737000   12.217117
  58 C     6.0000    0    12.011   33.387814    8.473192   10.577591
  59 C     6.0000    0    12.011   31.310835    7.029290    9.822437
  60 C     6.0000    0    12.011   29.002666    8.469205   10.257925
  61 C     6.0000    0    12.011   26.634046    7.475568   10.557503
  62 C     6.0000    0    12.011   24.616196    8.811132   11.682627
  63 N     7.0000    0    14.007   22.956941    9.760322   12.705347
  64 C     6.0000    0    12.011   25.940290    4.993677    9.891318
  65 N     7.0000    0    14.007   25.208436    3.049923    9.262209
  66 C     6.0000    0    12.011   31.636472    4.559815    8.925460
  67 C     6.0000    0    12.011   34.032248    3.583185    8.814892
  68 C     6.0000    0    12.011   36.169415    4.977614    9.597220
  69 C     6.0000    0    12.011   35.862864    7.496222   10.504818
  70 C     6.0000    0    12.011   38.001750    8.877348   11.288581
  71 C     6.0000    0    12.011   40.350339    7.803038   11.183154
  72 C     6.0000    0    12.011   40.663014    5.323604   10.291486
  73 C     6.0000    0    12.011   38.621486    3.941270    9.513599
  74 H     1.0000    0     1.008   -0.493691    6.973694   -0.571208
  75 H     1.0000    0     1.008   -4.345898    4.554977    0.327263
  76 H     1.0000    0     1.008   -5.913482    4.129656   -9.996103
  77 H     1.0000    0     1.008   -9.784870    1.740835   -8.958833
  78 H     1.0000    0     1.008  -10.884237    0.861999   -4.525365
  79 H     1.0000    0     1.008   -8.139920    2.353314   -1.079430
  80 H     1.0000    0     1.008    2.303708    7.779908  -12.083003
  81 H     1.0000    0     1.008   14.168656    8.348716   -7.347614
  82 H     1.0000    0     1.008   21.168372    8.043525   -3.836579
  83 H     1.0000    0     1.008   17.832892    6.163115   -8.074290
  84 H     1.0000    0     1.008   18.715205    4.170191   -5.525559
  85 H     1.0000    0     1.008   22.355422    6.987527   -8.540353
  86 H     1.0000    0     1.008   21.753204    3.949868   -8.869789
  87 H     1.0000    0     1.008   19.023741   12.209917   -4.942692
  88 H     1.0000    0     1.008   17.705109   10.669072   -7.606431
  89 H     1.0000    0     1.008   23.115867   11.149970   -6.652667
  90 H     1.0000    0     1.008   21.473109   12.497288   -8.909681
  91 H     1.0000    0     1.008   21.632697    7.482881    0.287484
  92 H     1.0000    0     1.008   20.332489    5.225187    4.300998
  93 H     1.0000    0     1.008   17.019100    7.314468    7.107203
  94 H     1.0000    0     1.008   13.162680    7.788072    4.552294
  95 H     1.0000    0     1.008    9.747189    7.968862    0.994657
  96 H     1.0000    0     1.008    7.348748    8.160234   -2.976545
  97 H     1.0000    0     1.008   23.389235    8.125218    5.648467
  98 H     1.0000    0     1.008   19.243365   12.154416    5.319050
  99 H     1.0000    0     1.008   29.538763   14.949642   11.205301
 100 H     1.0000    0     1.008   30.038406    3.452870    8.316023
 101 H     1.0000    0     1.008   34.319467    1.685296    8.119189
 102 H     1.0000    0     1.008   37.739777   10.780510   11.968921
 103 H     1.0000    0     1.008   41.986975    8.859603   11.788868
 104 H     1.0000    0     1.008   42.534674    4.513403   10.224836
 105 H     1.0000    0     1.008   38.857040    2.032419    8.829008

--------------------------------
INTERNAL COORDINATES (ANGSTROEM)
--------------------------------
 C      0   0   0     0.000000000000     0.00000000     0.00000000
 C      1   0   0     1.490853122947     0.00000000     0.00000000
 O      2   1   0     1.210751622340   126.15997787     0.00000000
 C      2   1   3     1.475095671914   104.90279017   177.36944248
 C      4   2   1     1.395948413159   109.57478083     5.64900908
 C      1   2   3     1.446890228663   107.53798460   170.12070113
 C      6   1   2     1.369228803561   126.24304428   206.13175962
 C      7   6   1     1.411673982122   123.06733908     3.54073322
 N      8   7   6     1.147559005367   175.99565243   118.70046306
 C      7   6   1     1.408957969742   124.38851628   179.17204333
 N     10   7   6     1.148223151569   176.17799728   143.80121381
 C      5   4   2     1.400617112169   120.69345694   181.53318737
 C     12   5   4     1.370519182500   118.68477885   359.72494068
 C     13  12   5     1.412167007191   122.08438870   359.51763118
 C      4   2   1     1.408572296121   128.87064116   186.42437491
 C     15   4   2     1.409793193805   123.25954417   358.51000843
 C     16  15   4     1.367631180326   120.16200008   180.19091281
 C     17  16  15     1.404177979495   120.59738524   359.91868646
 C     18  17  16     1.367824722872   120.49653083   359.96426347
 C      1   2   3     1.359381972037   119.93516162   342.25655286
 C     20   1   2     1.413749338638   128.01882798   201.36048959
 O     21  20   1     1.356245718740   122.40207462     8.05192018
 C     22  21  20     1.347912099842   109.69629485   177.01719032
 C     23  22  21     1.390111415031   108.33041159   359.57522066
 C     21  20   1     1.391183322248   129.44964776   183.45526731
 F     25  21  20     1.328173193714   125.71371535     3.39541754
 F     24  23  22     1.334314805471   126.71128552   180.17126630
 C     23  22  21     1.437784793424   119.38936159   179.35809547
 C     28  23  22     1.376763070466   121.15910331   174.78936749
 C     29  28  23     1.408963865896   119.73053026   180.83677317
 C     30  29  28     1.388089738093   131.50132262   178.27841886
 C     31  30  29     1.491293862691   128.89285611     1.56801561
 C     32  31  30     1.541623658809   111.51874879   296.44528826
 N     33  32  31     1.450646284833   109.14655301   204.81975175
 C     32  31  30     1.540447258104   111.00520075    61.69873151
 N     35  32  31     1.455727808383   110.54450499   169.20269694
 C     31  30  29     1.445631049092   106.59063306   182.39984439
 C     37  31  30     1.345355665726   131.17854616   176.14934522
 C     38  37  31     1.493306699443   121.41202416   183.38854741
 C     39  38  37     1.496356828868   114.63254983   354.58347629
 C     40  39  38     1.344811256385   122.89845676     6.19483269
 C     41  40  39     1.415832773212   120.25235248   357.79001663
 C     42  41  40     1.377728114724   132.97312868   177.45973136
 C     43  42  41     1.415247762549   131.77201671   358.00969874
 C     44  43  42     1.353843335324   119.47178504   182.39467292
 C     39  38  37     1.505088791334   109.97296281   227.57655393
 C     46  39  38     1.337104200091   123.20222595    84.66758520
 C     47  46  39     1.432395617209   122.76258753   176.05856716
 O     48  47  46     1.348063852011   120.39914007   355.61676817
 C     49  48  47     1.355927261213   109.33908327   184.73153387
 C     50  49  48     1.389876178730   108.27693801   358.22931526
 C     48  47  46     1.385576532639   130.73078223   179.96229560
 F     52  48  47     1.329490117827   125.86922597   355.39516022
 F     51  50  49     1.326213780241   125.74529820   180.96361607
 C     50  49  48     1.418082527817   122.04988092   179.48503618
 C     55  50  49     1.356517280170   127.91023888   351.24382348
 C     56  55  50     1.493807499010   119.94869491   161.11657702
 O     57  56  55     1.209577044012   126.03435813    18.26392382
 C     57  56  55     1.474080391159   104.86861258   200.92769872
 C     59  57  56     1.396962857989   109.65344195   354.80081864
 C     56  55  50     1.449712912614   131.90329376   352.09227089
 C     61  56  55     1.368455192325   126.38533448   323.99408771
 C     62  61  56     1.412154968337   123.30717557   354.09165678
 N     63  62  61     1.147234468494   175.37152761   233.51497098
 C     62  61  56     1.408534339269   124.61151381   176.89344515
 N     65  62  61     1.148395513140   174.62724645   225.57600762
 C     60  59  57     1.400962669774   120.68624302   178.66450847
 C     67  60  59     1.370331157166   118.68895131     0.31762918
 C     68  67  60     1.412412621616   122.08987179     0.60957325
 C     59  57  56     1.408609437637   128.81315754   174.45625458
 C     70  59  57     1.409701501950   123.24495207     1.44539872
 C     71  70  59     1.367810778763   120.13564184   179.53220833
 C     72  71  70     1.404108570482   120.60782177     0.15098926
 C     73  72  71     1.368083567806   120.51049518     0.00000000
 H     12   5   4     1.078026634597   120.77335961   179.01706869
 H     13  12   5     1.080518980537   119.69165926   179.64419794
 H     16  15   4     1.078507655513   118.58677005     0.15109530
 H     17  16  15     1.079719325288   120.12353502   179.91106014
 H     18  17  16     1.079983914973   119.34386576   179.98745302
 H     19  18  17     1.080479802588   120.64033981   179.97112837
 H     20   1   2     1.083852407895   116.54662513    14.94221355
 H     29  28  23     1.076538586164   120.44427271   359.59584140
 H     32  31  30     1.094544698905   108.75265177   179.78808298
 H     33  32  31     1.100996214980   109.20666965    80.12632239
 H     33  32  31     1.095829551710   109.04925459   322.60356141
 H     34  33  32     1.017133103679   108.36528898   301.64825423
 H     34  33  32     1.014166164442   110.36451501   183.03805407
 H     35  32  31     1.103741823299   108.26798622    44.93075692
 H     35  32  31     1.091731180328   109.87604137   287.68129116
 H     36  35  32     1.015373117923   110.18489062   293.01940053
 H     36  35  32     1.014137366731   110.24522507   174.10109426
 H     38  37  31     1.081370812673   122.20505866     1.75646658
 H     39  38  37     1.102587557929   106.04873237   112.63143019
 H     40  39  38     1.078820788129   115.56007716   184.78657398
 H     41  40  39     1.079751245658   120.73441455   178.15514543
 H     44  43  42     1.079383252418   119.69967840     1.96511420
 H     45  44  43     1.078069563525   120.68252195   179.41073230
 H     46  39  38     1.080622071725   117.17429145   264.73051399
 H     47  46  39     1.080257292500   121.41460763   358.58167273
 H     55  50  49     1.083851789407   115.27030770   166.53056148
 H     67  60  59     1.078087927073   120.77626714   180.91249204
 H     68  67  60     1.080413830437   119.68822389   180.31032771
 H     71  70  59     1.078472637298   118.63002475   359.64067173
 H     72  71  70     1.079546533457   120.10422692   180.18381100
 H     73  72  71     1.079830243186   119.34558843   180.00324773
 H     74  73  72     1.080333092060   120.64542733   180.07685105

---------------------------
INTERNAL COORDINATES (A.U.)
---------------------------
 C      0   0   0     0.000000000000     0.00000000     0.00000000
 C      1   0   0     2.817304108271     0.00000000     0.00000000
 O      2   1   0     2.287988982424   126.15997787     0.00000000
 C      2   1   3     2.787526841250   104.90279017   177.36944248
 C      4   2   1     2.637960197952   109.57478083     5.64900908
 C      1   2   3     2.734226278019   107.53798460   170.12070113
 C      6   1   2     2.587467453406   126.24304428   206.13175962
 C      7   6   1     2.667677216593   123.06733908     3.54073322
 N      8   7   6     2.168572242660   175.99565243   118.70046306
 C      7   6   1     2.662544697018   124.38851628   179.17204333
 N     10   7   6     2.169827297094   176.17799728   143.80121381
 C      5   4   2     2.646782760483   120.69345694   181.53318737
 C     12   5   4     2.589905916210   118.68477885   359.72494068
 C     13  12   5     2.668608898951   122.08438870   359.51763118
 C      4   2   1     2.661815879498   128.87064116   186.42437491
 C     15   4   2     2.664123041758   123.25954417   358.51000843
 C     16  15   4     2.584448383028   120.16200008   180.19091281
 C     17  16  15     2.653511824529   120.59738524   359.91868646
 C     18  17  16     2.584814125435   120.49653083   359.96426347
 C      1   2   3     2.568859638540   119.93516162   342.25655286
 C     20   1   2     2.671599072039   128.01882798   201.36048959
 O     21  20   1     2.562932978721   122.40207462     8.05192018
 C     22  21  20     2.547184721300   109.69629485   177.01719032
 C     23  22  21     2.626929870047   108.33041159   359.57522066
 C     21  20   1     2.628955481127   129.44964776   183.45526731
 F     25  21  20     2.509883594535   125.71371535     3.39541754
 F     24  23  22     2.521489558777   126.71128552   180.17126630
 C     23  22  21     2.717019499087   119.38936159   179.35809547
 C     28  23  22     2.601705154478   121.15910331   174.78936749
 C     29  28  23     2.662555839134   119.73053026   180.83677317
 C     30  29  28     2.623109454303   131.50132262   178.27841886
 C     31  30  29     2.818136985684   128.89285611     1.56801561
 C     32  31  30     2.913246516723   111.51874879   296.44528826
 N     33  32  31     2.741324195525   109.14655301   204.81975175
 C     32  31  30     2.911023441566   111.00520075    61.69873151
 N     35  32  31     2.750926883378   110.54450499   169.20269694
 C     31  30  29     2.731846773478   106.59063306   182.39984439
 C     37  31  30     2.542353760941   131.17854616   176.14934522
 C     38  37  31     2.821940695896   121.41202416   183.38854741
 C     39  38  37     2.827704605183   114.63254983   354.58347629
 C     40  39  38     2.541324976382   122.89845676     6.19483269
 C     41  40  39     2.675536192800   120.25235248   357.79001663
 C     42  41  40     2.603528823831   132.97312868   177.45973136
 C     43  42  41     2.674430682862   131.77201671   358.00969874
 C     44  43  42     2.558393131996   119.47178504   182.39467292
 C     39  38  37     2.844205622856   109.97296281   227.57655393
 C     46  39  38     2.526760750687   123.20222595    84.66758520
 C     47  46  39     2.706835431954   122.76258753   176.05856716
 O     48  47  46     2.547471491341   120.39914007   355.61676817
 C     49  48  47     2.562331181210   109.33908327   184.73153387
 C     50  49  48     2.626485337860   108.27693801   358.22931526
 C     48  47  46     2.618360184276   130.73078223   179.96229560
 F     52  48  47     2.512372220448   125.86922597   355.39516022
 F     51  50  49     2.506180839687   125.74529820   180.96361607
 C     50  49  48     2.679787612873   122.04988092   179.48503618
 C     55  50  49     2.563446155453   127.91023888   351.24382348
 C     56  55  50     2.822887069928   119.94869491   161.11657702
 O     57  56  55     2.285769351060   126.03435813    18.26392382
 C     57  56  55     2.785608238674   104.86861258   200.92769872
 C     59  57  56     2.639877220859   109.65344195   354.80081864
 C     56  55  50     2.739560377650   131.90329376   352.09227089
 C     61  56  55     2.586005540036   126.38533448   323.99408771
 C     62  61  56     2.668586148814   123.30717557   354.09165678
 N     63  62  61     2.167958956848   175.37152761   233.51497098
 C     62  61  56     2.661744151442   124.61151381   176.89344515
 N     65  62  61     2.170153013258   174.62724645   225.57600762
 C     60  59  57     2.647435769720   120.68624302   178.66450847
 C     67  60  59     2.589550599823   118.68895131     0.31762918
 C     68  67  60     2.669073042948   122.08987179     0.60957325
 C     59  57  56     2.661886066791   128.81315754   174.45625458
 C     70  59  57     2.663949769263   123.24495207     1.44539872
 C     71  70  59     2.584787774887   120.13564184   179.53220833
 C     72  71  70     2.653380660502   120.60782177     0.15098926
 C     73  72  71     2.585303271471   120.51049518     0.00000000
 H     12   5   4     2.037175104461   120.77335961   179.01706869
 H     13  12   5     2.041884955718   119.69165926   179.64419794
 H     16  15   4     2.038084102257   118.58677005     0.15109530
 H     17  16  15     2.040373826296   120.12353502   179.91106014
 H     18  17  16     2.040873828339   119.34386576   179.98745302
 H     19  18  17     2.041810920124   120.64033981   179.97112837
 H     20   1   2     2.048184220513   116.54662513    14.94221355
 H     29  28  23     2.034363100449   120.44427271   359.59584140
 H     32  31  30     2.068389722265   108.75265177   179.78808298
 H     33  32  31     2.080581320796   109.20666965    80.12632239
 H     33  32  31     2.070817742189   109.04925459   322.60356141
 H     34  33  32     1.922103007699   108.36528898   301.64825423
 H     34  33  32     1.916496305086   110.36451501   183.03805407
 H     35  32  31     2.085769768591   108.26798622    44.93075692
 H     35  32  31     2.063072942682   109.87604137   287.68129116
 H     36  35  32     1.918777116620   110.18489062   293.01940053
 H     36  35  32     1.916441885298   110.24522507   174.10109426
 H     38  37  31     2.043494685167   122.20505866     1.75646658
 H     39  38  37     2.083588523155   106.04873237   112.63143019
 H     40  39  38     2.038675837146   115.56007716   184.78657398
 H     41  40  39     2.040434147054   120.73441455   178.15514543
 H     44  43  42     2.039738740611   119.69967840     1.96511420
 H     45  44  43     2.037256228379   120.68252195   179.41073230
 H     46  39  38     2.042079769832   117.17429145   264.73051399
 H     47  46  39     2.041390436997   121.41460763   358.58167273
 H     55  50  49     2.048183051739   115.27030770   166.53056148
 H     67  60  59     2.037290930454   120.77626714   180.91249204
 H     68  67  60     2.041686250827   119.68822389   180.31032771
 H     71  70  59     2.038017927421   118.63002475   359.64067173
 H     72  71  70     2.040047297059   120.10422692   180.18381100
 H     73  72  71     2.040583430748   119.34558843   180.00324773
 H     74  73  72     2.041533677406   120.64542733   180.07685105

---------------------
BASIS SET INFORMATION
---------------------
There are 5 groups of distinct atoms

 Group   1 Type C   : 7s4p1d contracted to 3s2p1d pattern {511/31/1}
 Group   2 Type O   : 7s4p1d contracted to 3s2p1d pattern {511/31/1}
 Group   3 Type N   : 7s4p1d contracted to 3s2p1d pattern {511/31/1}
 Group   4 Type F   : 7s4p1d contracted to 3s2p1d pattern {511/31/1}
 Group   5 Type H   : 4s1p contracted to 2s1p pattern {31/1}

Atom   0C    basis set group =>   1
Atom   1C    basis set group =>   1
Atom   2O    basis set group =>   2
Atom   3C    basis set group =>   1
Atom   4C    basis set group =>   1
Atom   5C    basis set group =>   1
Atom   6C    basis set group =>   1
Atom   7C    basis set group =>   1
Atom   8N    basis set group =>   3
Atom   9C    basis set group =>   1
Atom  10N    basis set group =>   3
Atom  11C    basis set group =>   1
Atom  12C    basis set group =>   1
Atom  13C    basis set group =>   1
Atom  14C    basis set group =>   1
Atom  15C    basis set group =>   1
Atom  16C    basis set group =>   1
Atom  17C    basis set group =>   1
Atom  18C    basis set group =>   1
Atom  19C    basis set group =>   1
Atom  20C    basis set group =>   1
Atom  21O    basis set group =>   2
Atom  22C    basis set group =>   1
Atom  23C    basis set group =>   1
Atom  24C    basis set group =>   1
Atom  25F    basis set group =>   4
Atom  26F    basis set group =>   4
Atom  27C    basis set group =>   1
Atom  28C    basis set group =>   1
Atom  29C    basis set group =>   1
Atom  30C    basis set group =>   1
Atom  31C    basis set group =>   1
Atom  32C    basis set group =>   1
Atom  33N    basis set group =>   3
Atom  34C    basis set group =>   1
Atom  35N    basis set group =>   3
Atom  36C    basis set group =>   1
Atom  37C    basis set group =>   1
Atom  38C    basis set group =>   1
Atom  39C    basis set group =>   1
Atom  40C    basis set group =>   1
Atom  41C    basis set group =>   1
Atom  42C    basis set group =>   1
Atom  43C    basis set group =>   1
Atom  44C    basis set group =>   1
Atom  45C    basis set group =>   1
Atom  46C    basis set group =>   1
Atom  47C    basis set group =>   1
Atom  48O    basis set group =>   2
Atom  49C    basis set group =>   1
Atom  50C    basis set group =>   1
Atom  51C    basis set group =>   1
Atom  52F    basis set group =>   4
Atom  53F    basis set group =>   4
Atom  54C    basis set group =>   1
Atom  55C    basis set group =>   1
Atom  56C    basis set group =>   1
Atom  57O    basis set group =>   2
Atom  58C    basis set group =>   1
Atom  59C    basis set group =>   1
Atom  60C    basis set group =>   1
Atom  61C    basis set group =>   1
Atom  62C    basis set group =>   1
Atom  63N    basis set group =>   3
Atom  64C    basis set group =>   1
Atom  65N    basis set group =>   3
Atom  66C    basis set group =>   1
Atom  67C    basis set group =>   1
Atom  68C    basis set group =>   1
Atom  69C    basis set group =>   1
Atom  70C    basis set group =>   1
Atom  71C    basis set group =>   1
Atom  72C    basis set group =>   1
Atom  73C    basis set group =>   1
Atom  74H    basis set group =>   5
Atom  75H    basis set group =>   5
Atom  76H    basis set group =>   5
Atom  77H    basis set group =>   5
Atom  78H    basis set group =>   5
Atom  79H    basis set group =>   5
Atom  80H    basis set group =>   5
Atom  81H    basis set group =>   5
Atom  82H    basis set group =>   5
Atom  83H    basis set group =>   5
Atom  84H    basis set group =>   5
Atom  85H    basis set group =>   5
Atom  86H    basis set group =>   5
Atom  87H    basis set group =>   5
Atom  88H    basis set group =>   5
Atom  89H    basis set group =>   5
Atom  90H    basis set group =>   5
Atom  91H    basis set group =>   5
Atom  92H    basis set group =>   5
Atom  93H    basis set group =>   5
Atom  94H    basis set group =>   5
Atom  95H    basis set group =>   5
Atom  96H    basis set group =>   5
Atom  97H    basis set group =>   5
Atom  98H    basis set group =>   5
Atom  99H    basis set group =>   5
Atom 100H    basis set group =>   5
Atom 101H    basis set group =>   5
Atom 102H    basis set group =>   5
Atom 103H    basis set group =>   5
Atom 104H    basis set group =>   5
Atom 105H    basis set group =>   5
---------------------------------
AUXILIARY/J BASIS SET INFORMATION
---------------------------------
There are 5 groups of distinct atoms

 Group   1 Type C   : 12s5p4d2f1g contracted to 6s4p3d1f1g pattern {711111/2111/211/2/1}
 Group   2 Type O   : 12s5p4d2f1g contracted to 6s4p3d1f1g pattern {711111/2111/211/2/1}
 Group   3 Type N   : 12s5p4d2f1g contracted to 6s4p3d1f1g pattern {711111/2111/211/2/1}
 Group   4 Type F   : 12s5p4d2f1g contracted to 6s4p3d1f1g pattern {711111/2111/211/2/1}
 Group   5 Type H   : 5s2p1d contracted to 3s1p1d pattern {311/2/1}

Atom   0C    basis set group =>   1
Atom   1C    basis set group =>   1
Atom   2O    basis set group =>   2
Atom   3C    basis set group =>   1
Atom   4C    basis set group =>   1
Atom   5C    basis set group =>   1
Atom   6C    basis set group =>   1
Atom   7C    basis set group =>   1
Atom   8N    basis set group =>   3
Atom   9C    basis set group =>   1
Atom  10N    basis set group =>   3
Atom  11C    basis set group =>   1
Atom  12C    basis set group =>   1
Atom  13C    basis set group =>   1
Atom  14C    basis set group =>   1
Atom  15C    basis set group =>   1
Atom  16C    basis set group =>   1
Atom  17C    basis set group =>   1
Atom  18C    basis set group =>   1
Atom  19C    basis set group =>   1
Atom  20C    basis set group =>   1
Atom  21O    basis set group =>   2
Atom  22C    basis set group =>   1
Atom  23C    basis set group =>   1
Atom  24C    basis set group =>   1
Atom  25F    basis set group =>   4
Atom  26F    basis set group =>   4
Atom  27C    basis set group =>   1
Atom  28C    basis set group =>   1
Atom  29C    basis set group =>   1
Atom  30C    basis set group =>   1
Atom  31C    basis set group =>   1
Atom  32C    basis set group =>   1
Atom  33N    basis set group =>   3
Atom  34C    basis set group =>   1
Atom  35N    basis set group =>   3
Atom  36C    basis set group =>   1
Atom  37C    basis set group =>   1
Atom  38C    basis set group =>   1
Atom  39C    basis set group =>   1
Atom  40C    basis set group =>   1
Atom  41C    basis set group =>   1
Atom  42C    basis set group =>   1
Atom  43C    basis set group =>   1
Atom  44C    basis set group =>   1
Atom  45C    basis set group =>   1
Atom  46C    basis set group =>   1
Atom  47C    basis set group =>   1
Atom  48O    basis set group =>   2
Atom  49C    basis set group =>   1
Atom  50C    basis set group =>   1
Atom  51C    basis set group =>   1
Atom  52F    basis set group =>   4
Atom  53F    basis set group =>   4
Atom  54C    basis set group =>   1
Atom  55C    basis set group =>   1
Atom  56C    basis set group =>   1
Atom  57O    basis set group =>   2
Atom  58C    basis set group =>   1
Atom  59C    basis set group =>   1
Atom  60C    basis set group =>   1
Atom  61C    basis set group =>   1
Atom  62C    basis set group =>   1
Atom  63N    basis set group =>   3
Atom  64C    basis set group =>   1
Atom  65N    basis set group =>   3
Atom  66C    basis set group =>   1
Atom  67C    basis set group =>   1
Atom  68C    basis set group =>   1
Atom  69C    basis set group =>   1
Atom  70C    basis set group =>   1
Atom  71C    basis set group =>   1
Atom  72C    basis set group =>   1
Atom  73C    basis set group =>   1
Atom  74H    basis set group =>   5
Atom  75H    basis set group =>   5
Atom  76H    basis set group =>   5
Atom  77H    basis set group =>   5
Atom  78H    basis set group =>   5
Atom  79H    basis set group =>   5
Atom  80H    basis set group =>   5
Atom  81H    basis set group =>   5
Atom  82H    basis set group =>   5
Atom  83H    basis set group =>   5
Atom  84H    basis set group =>   5
Atom  85H    basis set group =>   5
Atom  86H    basis set group =>   5
Atom  87H    basis set group =>   5
Atom  88H    basis set group =>   5
Atom  89H    basis set group =>   5
Atom  90H    basis set group =>   5
Atom  91H    basis set group =>   5
Atom  92H    basis set group =>   5
Atom  93H    basis set group =>   5
Atom  94H    basis set group =>   5
Atom  95H    basis set group =>   5
Atom  96H    basis set group =>   5
Atom  97H    basis set group =>   5
Atom  98H    basis set group =>   5
Atom  99H    basis set group =>   5
Atom 100H    basis set group =>   5
Atom 101H    basis set group =>   5
Atom 102H    basis set group =>   5
Atom 103H    basis set group =>   5
Atom 104H    basis set group =>   5
Atom 105H    basis set group =>   5


           ************************************************************
           *        Program running with 6 parallel MPI-processes     *
           *              working on a common directory               *
           ************************************************************
------------------------------------------------------------------------------
                           ORCA GTO INTEGRAL CALCULATION
                           -- RI-GTO INTEGRALS CHOSEN --
------------------------------------------------------------------------------

                         BASIS SET STATISTICS AND STARTUP INFO

Gaussian basis set:
 # of primitive gaussian shells          ... 1048
 # of primitive gaussian functions       ... 2000
 # of contracted shells                  ...  540
 # of contracted basis functions         ... 1196
 Highest angular momentum                ...    2
 Maximum contraction depth               ...    5
Auxiliary gaussian basis set:
 # of primitive gaussian shells          ... 2032
 # of primitive gaussian functions       ... 5692
 # of contracted shells                  ... 1270
 # of contracted aux-basis functions     ... 3978
 Highest angular momentum                ...    4
 Maximum contraction depth               ...    7
Ratio of auxiliary to basis functions    ...  3.33
Integral package used                  ... LIBINT
 One Electron integrals                  ... done
 Ordering auxiliary basis shells         ... done
 Integral threshhold             Thresh  ...  2.500e-11
 Primitive cut-off               TCut    ...  2.500e-12
 Pre-screening matrix                    ... done
 Shell pair data                         ... 
 Ordering of the shell pairs             ... done (   0.010 sec) 47955 of 146070 pairs
 Determination of significant pairs      ... done (   0.000 sec)
 Creation of shell pair data             ... done (   0.005 sec)
 Storage of shell pair data              ... done (   0.657 sec)
 Shell pair data done in (   0.671 sec)
 Computing two index integrals           ... done
 Cholesky decomposition of the V-matrix  ... done


Timings:
 Total evaluation time                   ...   5.643 sec (  0.094 min)
 One electron matrix time                ...   1.025 sec (  0.017 min) = 18.2%
 Schwartz matrix evaluation time         ...   0.569 sec (  0.009 min) = 10.1%
 Two index repulsion integral time       ...   0.492 sec (  0.008 min) =  8.7%
 Cholesky decomposition of V             ...   2.868 sec (  0.048 min) = 50.8%
 Three index repulsion integral time     ...   0.000 sec (  0.000 min) =  0.0%



           ************************************************************
           *        Program running with 6 parallel MPI-processes     *
           *              working on a common directory               *
           ************************************************************
-------------------------------------------------------------------------------
                                 ORCA SCF
-------------------------------------------------------------------------------

------------
SCF SETTINGS
------------
Hamiltonian:
 Density Functional     Method          .... DFT(GTOs)
 Exchange Functional    Exchange        .... WB88
 Correlation Functional Correlation     .... LYP
 LDA part of GGA corr.  LDAOpt          .... VWN-5
 Gradients option       PostSCFGGA      .... off
 Hybrid DFT is turned on
   Fraction HF Exchange ScalHFX         ....  0.190000
   Scaling of DF-GGA-X  ScalDFX         ....  0.350000
   Scaling of DF-GGA-C  ScalDFC         ....  0.810000
   Scaling of DF-LDA-C  ScalLDAC        ....  1.000000
   Perturbative correction              ....  0.000000
   Density functional embedding theory  .... OFF
 Long-range corrected/Screened/Range-Separated Hybrid DFT is turned on
   Amount of maximum screened exact exchange              ....  0.460000
   Range separation parameter mu (erf(mu*r12)/r12)        ....  0.330000
 RI-approximation to the Coulomb term is turned on
   Number of auxiliary basis functions  .... 3978
   RIJ-COSX (HFX calculated with COS-X)).... on


General Settings:
 Integral files         IntName         .... xtbopt
 Hartree-Fock type      HFTyp           .... RHF
 Total Charge           Charge          ....    0
 Multiplicity           Mult            ....    1
 Number of Electrons    NEL             ....  502
 Basis Dimension        Dim             .... 1196
 Nuclear Repulsion      ENuc            ....   9931.5018428526 Eh

Convergence Acceleration:
 DIIS                   CNVDIIS         .... on
   Start iteration      DIISMaxIt       ....    12
   Startup error        DIISStart       ....  0.200000
   # of expansion vecs  DIISMaxEq       ....     5
   Bias factor          DIISBfac        ....   1.050
   Max. coefficient     DIISMaxC        ....  10.000
 Newton-Raphson         CNVNR           .... off
 SOSCF                  CNVSOSCF        .... on
   Start iteration      SOSCFMaxIt      ....   150
   Startup grad/error   SOSCFStart      ....  0.003300
 Level Shifting         CNVShift        .... on
   Level shift para.    LevelShift      ....    0.2500
   Turn off err/grad.   ShiftErr        ....    0.0010
 Zerner damping         CNVZerner       .... off
 Static damping         CNVDamp         .... on
   Fraction old density DampFac         ....    0.7000
   Max. Damping (<1)    DampMax         ....    0.9800
   Min. Damping (>=0)   DampMin         ....    0.0000
   Turn off err/grad.   DampErr         ....    0.1000
 Fernandez-Rico         CNVRico         .... off

SCF Procedure:
 Maximum # iterations   MaxIter         ....   125
 SCF integral mode      SCFMode         .... Direct
   Integral package                     .... LIBINT
 Reset frequency        DirectResetFreq ....    20
 Integral Threshold     Thresh          ....  2.500e-11 Eh
 Primitive CutOff       TCut            ....  2.500e-12 Eh

Convergence Tolerance:
 Convergence Check Mode ConvCheckMode   .... Total+1el-Energy
 Convergence forced     ConvForced      .... 1
 Energy Change          TolE            ....  1.000e-08 Eh
 1-El. energy change                    ....  1.000e-05 Eh
 Orbital Gradient       TolG            ....  1.000e-05
 Orbital Rotation angle TolX            ....  1.000e-05
 DIIS Error             TolErr          ....  5.000e-07


Diagonalization of the overlap matrix:
Smallest eigenvalue                        ... 2.038e-04
Time for diagonalization                   ...    2.228 sec
Threshold for overlap eigenvalues          ... 1.000e-08
Number of eigenvalues below threshold      ... 0
Time for construction of square roots      ...    1.127 sec
Total time needed                          ...    3.356 sec

-------------------
DFT GRID GENERATION
-------------------

General Integration Accuracy     IntAcc      ...  4.670
Radial Grid Type                 RadialGrid  ... Gauss-Chebyshev
Angular Grid (max. acc.)         AngularGrid ... Lebedev-302
Angular grid pruning method      GridPruning ... 3 (G Style)
Weight generation scheme         WeightScheme... Becke
Basis function cutoff            BFCut       ...    1.0000e-11
Integration weight cutoff        WCut        ...    1.0000e-14
Grids for H and He will be reduced by one unit

# of grid points (after initial pruning)     ... 568536 (   0.0 sec)
# of grid points (after weights+screening)   ... 483704 (   7.1 sec)
nearest neighbour list constructed           ...    0.0 sec
Grid point re-assignment to atoms done       ...    0.1 sec
Grid point division into batches done        ...    1.8 sec
Reduced shell lists constructed in    2.7 sec

Total number of grid points                  ...   483704
Total number of batches                      ...     7613
Average number of points per batch           ...       63
Average number of grid points per atom       ...     4563
Average number of shells per batch           ...    97.71 (18.09%)
Average number of basis functions per batch  ...   207.28 (17.33%)
Average number of large shells per batch     ...    61.31 (62.75%)
Average number of large basis fcns per batch ...   131.75 (63.56%)
Maximum spatial batch extension              ...  18.33, 20.69, 19.70 au
Average spatial batch extension              ...   0.33,  0.35,  0.31 au

Time for grid setup =   13.208 sec

------------------------------
INITIAL GUESS: MODEL POTENTIAL
------------------------------
Loading Hartree-Fock densities                     ... done
Calculating cut-offs                               ... done
Setting up the integral package                    ... done
Initializing the effective Hamiltonian             ... done
Starting the Coulomb interaction                   ... done (   1.4 sec)
Reading the grid                                   ... done
Mapping shells                                     ... done
Starting the XC term evaluation                    ... done (   3.7 sec)
  promolecular density results
     # of electrons  =    501.983917264
     EX              =   -428.344625037
     EC              =    -17.038144520
     EX+EC           =   -445.382769557
Transforming the Hamiltonian                       ... done (   0.8 sec)
Diagonalizing the Hamiltonian                      ... done (   2.3 sec)
Back transforming the eigenvectors                 ... done (   0.7 sec)
Now organizing SCF variables                       ... done
                      ------------------
                      INITIAL GUESS DONE (  22.2 sec)
                      ------------------
--------------------
COSX GRID GENERATION
--------------------

General Integration Accuracy     IntAcc      ...  3.340
Radial Grid Type                 RadialGrid  ... Gauss-Chebyshev
Angular Grid (max. acc.)         AngularGrid ... Lebedev-50
Angular grid pruning method      GridPruning ... 3 (G Style)
Weight generation scheme         WeightScheme... Becke
Basis function cutoff            BFCut       ...    1.0000e-11
Integration weight cutoff        WCut        ...    1.0000e-14
Grids for H and He will be reduced by one unit

# of grid points (after initial pruning)     ...  53076 (   0.0 sec)
# of grid points (after weights+screening)   ...  47292 (   0.8 sec)
nearest neighbour list constructed           ...    0.0 sec
Grid point re-assignment to atoms done       ...    0.0 sec
Grid point division into batches done        ...    0.0 sec
Reduced shell lists constructed in    0.1 sec

Total number of grid points                  ...    47292
Total number of batches                      ...      796
Average number of points per batch           ...       59
Average number of grid points per atom       ...      446
Average number of shells per batch           ...   117.17 (21.70%)
Average number of basis functions per batch  ...   251.25 (21.01%)
Average number of large shells per batch     ...    73.38 (62.63%)
Average number of large basis fcns per batch ...   159.69 (63.56%)
Maximum spatial batch extension              ...  16.06, 15.65, 16.60 au
Average spatial batch extension              ...   0.72,  0.88,  0.63 au

Overlap Fitting                  UseSFitting ... on
Constructing numerical overlap ... done (      0.3 sec)
Inverting numerical overlap    ... done (      0.3 sec)
Obtaining analytic overlap     ... done (      0.0 sec)
Final contraction and storage  ... done (      0.7 sec)


General Integration Accuracy     IntAcc      ...  3.670
Radial Grid Type                 RadialGrid  ... Gauss-Chebyshev
Angular Grid (max. acc.)         AngularGrid ... Lebedev-50
Angular grid pruning method      GridPruning ... 3 (G Style)
Weight generation scheme         WeightScheme... Becke
Basis function cutoff            BFCut       ...    1.0000e-11
Integration weight cutoff        WCut        ...    1.0000e-14
Grids for H and He will be reduced by one unit

# of grid points (after initial pruning)     ...  66292 (   0.0 sec)
# of grid points (after weights+screening)   ...  58818 (   0.8 sec)
nearest neighbour list constructed           ...    0.0 sec
Grid point re-assignment to atoms done       ...    0.0 sec
Grid point division into batches done        ...    0.0 sec
Reduced shell lists constructed in    0.2 sec

Total number of grid points                  ...    58818
Total number of batches                      ...      969
Average number of points per batch           ...       60
Average number of grid points per atom       ...      555
Average number of shells per batch           ...   114.78 (21.26%)
Average number of basis functions per batch  ...   245.93 (20.56%)
Average number of large shells per batch     ...    71.64 (62.42%)
Average number of large basis fcns per batch ...   155.78 (63.34%)
Maximum spatial batch extension              ...  16.87, 17.05, 17.77 au
Average spatial batch extension              ...   0.68,  0.83,  0.57 au

Overlap Fitting                  UseSFitting ... on
Constructing numerical overlap ... done (      0.4 sec)
Inverting numerical overlap    ... done (      0.4 sec)
Obtaining analytic overlap     ... done (      0.0 sec)
Final contraction and storage  ... done (      0.7 sec)


General Integration Accuracy     IntAcc      ...  4.010
Radial Grid Type                 RadialGrid  ... Gauss-Chebyshev
Angular Grid (max. acc.)         AngularGrid ... Lebedev-110
Angular grid pruning method      GridPruning ... 3 (G Style)
Weight generation scheme         WeightScheme... Becke
Basis function cutoff            BFCut       ...    1.0000e-11
Integration weight cutoff        WCut        ...    1.0000e-14
Grids for H and He will be reduced by one unit

# of grid points (after initial pruning)     ... 129736 (   0.0 sec)
# of grid points (after weights+screening)   ... 113898 (   1.6 sec)
nearest neighbour list constructed           ...    0.0 sec
Grid point re-assignment to atoms done       ...    0.0 sec
Grid point division into batches done        ...    0.1 sec
Reduced shell lists constructed in    0.3 sec

Total number of grid points                  ...   113898
Total number of batches                      ...     1833
Average number of points per batch           ...       62
Average number of grid points per atom       ...     1075
Average number of shells per batch           ...   109.71 (20.32%)
Average number of basis functions per batch  ...   234.66 (19.62%)
Average number of large shells per batch     ...    69.16 (63.04%)
Average number of large basis fcns per batch ...   149.97 (63.91%)
Maximum spatial batch extension              ...  17.15, 17.33, 17.17 au
Average spatial batch extension              ...   0.54,  0.61,  0.47 au

Overlap Fitting                  UseSFitting ... on
Constructing numerical overlap ... done (      0.7 sec)
Inverting numerical overlap    ... done (      0.2 sec)
Obtaining analytic overlap     ... done (      0.0 sec)
Final contraction and storage  ... done (      0.7 sec)

Time for X-Grid setup             =    9.463 sec
--------------
SCF ITERATIONS
--------------
ITER       Energy         Delta-E        Max-DP      RMS-DP      [F,P]     Damp
               ***  Starting incremental Fock matrix formation  ***
  0  -3328.8855587054   0.000000000000 0.08157326  0.00091643  0.2277074 0.7000
  1  -3329.4141538527  -0.528595147289 0.04775951  0.00065295  0.1144851 0.7000
                               ***Turning on DIIS***
  2  -3329.6479374723  -0.233783619564 0.06589638  0.00121567  0.0436840 0.0000
  3  -3330.0521256233  -0.404188150997 0.04127257  0.00044464  0.0605716 0.0000
  4  -3330.1107946615  -0.058669038202 0.01612728  0.00014224  0.0262946 0.0000
  5  -3330.1168404223  -0.006045760829 0.00546707  0.00005508  0.0061863 0.0000
                      *** Initiating the SOSCF procedure ***
                           *** Shutting down DIIS ***
                      *** Re-Reading the Fockian *** 
                      *** Removing any level shift *** 
ITER      Energy       Delta-E        Grad      Rot      Max-DP    RMS-DP
  6  -3330.11782118  -0.0009807625  0.002063  0.002063  0.002660  0.000035
               *** Restarting incremental Fock matrix formation ***
  7  -3330.11818264  -0.0003614506  0.001586  0.009561  0.003423  0.000040
  8  -3330.11848130  -0.0002986655  0.000473  0.009244  0.003500  0.000050
  9  -3330.11850999  -0.0000286855  0.000833  0.002779  0.001411  0.000017
 10  -3330.11857348  -0.0000634916  0.000333  0.001416  0.000851  0.000009
 11  -3330.11857043   0.0000030518  0.000273  0.000654  0.000496  0.000005
 12  -3330.11857948  -0.0000090521  0.000035  0.000197  0.000181  0.000002
 13  -3330.11857955  -0.0000000752  0.000024  0.000073  0.000107  0.000001
 14  -3330.11857977  -0.0000002118  0.000010  0.000084  0.000037  0.000000
 15  -3330.11857979  -0.0000000239  0.000007  0.000031  0.000019  0.000000
 16  -3330.11857981  -0.0000000247  0.000003  0.000030  0.000013  0.000000
                  ***Gradient check signals convergence***
              ***Rediagonalizing the Fockian in SOSCF/NRSCF***

               *****************************************************
               *                     SUCCESS                       *
               *           SCF CONVERGED AFTER  17 CYCLES          *
               *****************************************************

Setting up the final grid:

General Integration Accuracy     IntAcc      ...  5.010
Radial Grid Type                 RadialGrid  ... Gauss-Chebyshev
Angular Grid (max. acc.)         AngularGrid ... Lebedev-434
Angular grid pruning method      GridPruning ... 3 (G Style)
Weight generation scheme         WeightScheme... Becke
Basis function cutoff            BFCut       ...    1.0000e-11
Integration weight cutoff        WCut        ...    1.0000e-14
Grids for H and He will be reduced by one unit

# of grid points (after initial pruning)     ... 1006204 (   0.0 sec)
# of grid points (after weights+screening)   ... 853193 (  11.5 sec)
nearest neighbour list constructed           ...    0.0 sec
Grid point re-assignment to atoms done       ...    0.1 sec
Grid point division into batches done        ...    5.8 sec
Reduced shell lists constructed in    7.4 sec

Total number of grid points                  ...   853193
Total number of batches                      ...    13384
Average number of points per batch           ...       63
Average number of grid points per atom       ...     8049
Average number of shells per batch           ...    93.79 (17.37%)
Average number of basis functions per batch  ...   198.40 (16.59%)
Average number of large shells per batch     ...    58.91 (62.81%)
Average number of large basis fcns per batch ...   126.28 (63.65%)
Maximum spatial batch extension              ...  16.59, 21.17, 20.65 au
Average spatial batch extension              ...   0.27,  0.28,  0.25 au

Final grid set up in   27.4 sec
Final integration                            ... done (   6.4 sec)
Change in XC energy                          ...    -0.000009409
Integrated number of electrons               ...   501.999915970
Previous integrated no of electrons          ...   501.999559834
Old exchange energy                            =   -122.014350607 Eh
New exchange energy                            =   -122.014392304 Eh
Exchange energy change after final integration =     -0.000041697 Eh
Total energy after final integration           =  -3330.118630922 Eh
Final COS-X integration done in                =   122.064 sec

----------------
TOTAL SCF ENERGY
----------------

Total Energy       :        -3330.11863092 Eh          -90617.13483 eV

Components:
Nuclear Repulsion  :         9931.50184285 Eh          270249.90438 eV
Electronic Energy  :       -13261.62047378 Eh         -360867.03922 eV
One Electron Energy:       -24313.50804502 Eh         -661604.18921 eV
Two Electron Energy:        11051.88757125 Eh          300737.14999 eV

Virial components:
Potential Energy   :        -6630.33027134 Eh         -180420.45908 eV
Kinetic Energy     :         3300.21164041 Eh           89803.32425 eV
Virial Ratio       :            2.00906214


DFT components:
N(Alpha)           :      250.999957985039 electrons
N(Beta)            :      250.999957985039 electrons
N(Total)           :      501.999915970079 electrons
E(XC)              :     -331.446456743352 Eh       
DFET-embed. en.    :        0.000000000000 Eh       

---------------
SCF CONVERGENCE
---------------

  Last Energy change         ...   -2.8413e-09  Tolerance :   1.0000e-08
  Last MAX-Density change    ...    6.2172e-15  Tolerance :   1.0000e-07
  Last RMS-Density change    ...    3.4817e-17  Tolerance :   5.0000e-09
  Last Orbital Gradient      ...    2.1183e-06  Tolerance :   1.0000e-05
  Last Orbital Rotation      ...    1.2183e-05  Tolerance :   1.0000e-05

             **** THE GBW FILE WAS UPDATED (xtbopt.gbw) ****
             **** DENSITY FILE WAS UPDATED (xtbopt.scfp) ****
             **** ENERGY FILE WAS UPDATED (xtbopt.en.tmp) ****
             **** THE GBW FILE WAS UPDATED (xtbopt.gbw) ****
             **** DENSITY FILE WAS UPDATED (xtbopt.scfp) ****
----------------
ORBITAL ENERGIES
----------------

  NO   OCC          E(Eh)            E(eV) 
   0   2.0000     -24.821050      -675.4151 
   1   2.0000     -24.814771      -675.2442 
   2   2.0000     -24.811834      -675.1643 
   3   2.0000     -24.809286      -675.0950 
   4   2.0000     -19.319946      -525.7225 
   5   2.0000     -19.312744      -525.5265 
   6   2.0000     -19.221724      -523.0497 
   7   2.0000     -19.213224      -522.8184 
   8   2.0000     -14.423254      -392.4767 
   9   2.0000     -14.415088      -392.2545 
  10   2.0000     -14.412451      -392.1827 
  11   2.0000     -14.406158      -392.0115 
  12   2.0000     -14.390749      -391.5922 
  13   2.0000     -14.355704      -390.6386 
  14   2.0000     -10.392292      -282.7886 
  15   2.0000     -10.384871      -282.5867 
  16   2.0000     -10.380898      -282.4786 
  17   2.0000     -10.372860      -282.2599 
  18   2.0000     -10.372691      -282.2553 
  19   2.0000     -10.365703      -282.0651 
  20   2.0000     -10.364337      -282.0279 
  21   2.0000     -10.360578      -281.9257 
  22   2.0000     -10.360301      -281.9181 
  23   2.0000     -10.350761      -281.6585 
  24   2.0000     -10.347957      -281.5822 
  25   2.0000     -10.345351      -281.5113 
  26   2.0000     -10.338635      -281.3285 
  27   2.0000     -10.335898      -281.2541 
  28   2.0000     -10.327075      -281.0140 
  29   2.0000     -10.325725      -280.9773 
  30   2.0000     -10.318570      -280.7826 
  31   2.0000     -10.318342      -280.7764 
  32   2.0000     -10.315074      -280.6874 
  33   2.0000     -10.313569      -280.6465 
  34   2.0000     -10.309593      -280.5383 
  35   2.0000     -10.307993      -280.4947 
  36   2.0000     -10.305056      -280.4148 
  37   2.0000     -10.303255      -280.3658 
  38   2.0000     -10.301842      -280.3274 
  39   2.0000     -10.301033      -280.3053 
  40   2.0000     -10.300271      -280.2846 
  41   2.0000     -10.299839      -280.2729 
  42   2.0000     -10.299550      -280.2650 
  43   2.0000     -10.299061      -280.2517 
  44   2.0000     -10.298747      -280.2432 
  45   2.0000     -10.295546      -280.1560 
  46   2.0000     -10.293098      -280.0894 
  47   2.0000     -10.292854      -280.0828 
  48   2.0000     -10.292669      -280.0778 
  49   2.0000     -10.292107      -280.0625 
  50   2.0000     -10.291414      -280.0436 
  51   2.0000     -10.291181      -280.0373 
  52   2.0000     -10.287623      -279.9405 
  53   2.0000     -10.287117      -279.9267 
  54   2.0000     -10.287001      -279.9235 
  55   2.0000     -10.286447      -279.9085 
  56   2.0000     -10.284502      -279.8555 
  57   2.0000     -10.280643      -279.7505 
  58   2.0000     -10.280580      -279.7488 
  59   2.0000     -10.280554      -279.7481 
  60   2.0000     -10.279971      -279.7322 
  61   2.0000     -10.277931      -279.6767 
  62   2.0000     -10.276538      -279.6388 
  63   2.0000     -10.273937      -279.5681 
  64   2.0000     -10.273167      -279.5471 
  65   2.0000     -10.272685      -279.5340 
  66   2.0000     -10.271256      -279.4951 
  67   2.0000     -10.270798      -279.4826 
  68   2.0000     -10.269665      -279.4518 
  69   2.0000     -10.268173      -279.4112 
  70   2.0000     -10.266378      -279.3624 
  71   2.0000     -10.265496      -279.3383 
  72   2.0000     -10.264043      -279.2988 
  73   2.0000     -10.263172      -279.2751 
  74   2.0000      -1.337796       -36.4033 
  75   2.0000      -1.331231       -36.2246 
  76   2.0000      -1.324611       -36.0445 
  77   2.0000      -1.319487       -35.9051 
  78   2.0000      -1.242182       -33.8015 
  79   2.0000      -1.234707       -33.5981 
  80   2.0000      -1.137331       -30.9483 
  81   2.0000      -1.128381       -30.7048 
  82   2.0000      -1.023199       -27.8427 
  83   2.0000      -1.013717       -27.5846 
  84   2.0000      -1.003992       -27.3200 
  85   2.0000      -0.997134       -27.1334 
  86   2.0000      -0.994802       -27.0699 
  87   2.0000      -0.987726       -26.8774 
  88   2.0000      -0.986863       -26.8539 
  89   2.0000      -0.973192       -26.4819 
  90   2.0000      -0.972500       -26.4631 
  91   2.0000      -0.965354       -26.2686 
  92   2.0000      -0.954740       -25.9798 
  93   2.0000      -0.939451       -25.5638 
  94   2.0000      -0.937207       -25.5027 
  95   2.0000      -0.930177       -25.3114 
  96   2.0000      -0.928537       -25.2668 
  97   2.0000      -0.923483       -25.1293 
  98   2.0000      -0.920505       -25.0482 
  99   2.0000      -0.915974       -24.9249 
 100   2.0000      -0.905861       -24.6497 
 101   2.0000      -0.901864       -24.5410 
 102   2.0000      -0.893351       -24.3093 
 103   2.0000      -0.886871       -24.1330 
 104   2.0000      -0.874737       -23.8028 
 105   2.0000      -0.865219       -23.5438 
 106   2.0000      -0.858908       -23.3721 
 107   2.0000      -0.849598       -23.1187 
 108   2.0000      -0.843825       -22.9616 
 109   2.0000      -0.840572       -22.8731 
 110   2.0000      -0.834650       -22.7120 
 111   2.0000      -0.831095       -22.6153 
 112   2.0000      -0.822017       -22.3682 
 113   2.0000      -0.803801       -21.8725 
 114   2.0000      -0.783815       -21.3287 
 115   2.0000      -0.776935       -21.1415 
 116   2.0000      -0.769407       -20.9366 
 117   2.0000      -0.763079       -20.7644 
 118   2.0000      -0.759239       -20.6600 
 119   2.0000      -0.745265       -20.2797 
 120   2.0000      -0.734501       -19.9868 
 121   2.0000      -0.729610       -19.8537 
 122   2.0000      -0.722870       -19.6703 
 123   2.0000      -0.721016       -19.6198 
 124   2.0000      -0.717071       -19.5125 
 125   2.0000      -0.715215       -19.4620 
 126   2.0000      -0.709609       -19.3095 
 127   2.0000      -0.708273       -19.2731 
 128   2.0000      -0.701139       -19.0790 
 129   2.0000      -0.695119       -18.9152 
 130   2.0000      -0.688915       -18.7463 
 131   2.0000      -0.686491       -18.6804 
 132   2.0000      -0.679423       -18.4880 
 133   2.0000      -0.679024       -18.4772 
 134   2.0000      -0.670632       -18.2488 
 135   2.0000      -0.668327       -18.1861 
 136   2.0000      -0.660708       -17.9788 
 137   2.0000      -0.655848       -17.8465 
 138   2.0000      -0.652630       -17.7590 
 139   2.0000      -0.640504       -17.4290 
 140   2.0000      -0.634341       -17.2613 
 141   2.0000      -0.630402       -17.1541 
 142   2.0000      -0.625975       -17.0337 
 143   2.0000      -0.622861       -16.9489 
 144   2.0000      -0.620959       -16.8971 
 145   2.0000      -0.614874       -16.7316 
 146   2.0000      -0.613009       -16.6808 
 147   2.0000      -0.607842       -16.5402 
 148   2.0000      -0.605213       -16.4687 
 149   2.0000      -0.598984       -16.2992 
 150   2.0000      -0.596811       -16.2401 
 151   2.0000      -0.593160       -16.1407 
 152   2.0000      -0.591713       -16.1013 
 153   2.0000      -0.586898       -15.9703 
 154   2.0000      -0.584254       -15.8984 
 155   2.0000      -0.579026       -15.7561 
 156   2.0000      -0.576513       -15.6877 
 157   2.0000      -0.572001       -15.5649 
 158   2.0000      -0.566105       -15.4045 
 159   2.0000      -0.565772       -15.3955 
 160   2.0000      -0.563240       -15.3265 
 161   2.0000      -0.559906       -15.2358 
 162   2.0000      -0.559136       -15.2149 
 163   2.0000      -0.558390       -15.1946 
 164   2.0000      -0.555905       -15.1270 
 165   2.0000      -0.553257       -15.0549 
 166   2.0000      -0.547452       -14.8969 
 167   2.0000      -0.546389       -14.8680 
 168   2.0000      -0.541768       -14.7423 
 169   2.0000      -0.539702       -14.6860 
 170   2.0000      -0.534876       -14.5547 
 171   2.0000      -0.534437       -14.5428 
 172   2.0000      -0.532657       -14.4943 
 173   2.0000      -0.531667       -14.4674 
 174   2.0000      -0.528004       -14.3677 
 175   2.0000      -0.526315       -14.3218 
 176   2.0000      -0.524838       -14.2816 
 177   2.0000      -0.520963       -14.1761 
 178   2.0000      -0.519679       -14.1412 
 179   2.0000      -0.519341       -14.1320 
 180   2.0000      -0.514429       -13.9983 
 181   2.0000      -0.513826       -13.9819 
 182   2.0000      -0.511655       -13.9228 
 183   2.0000      -0.510332       -13.8868 
 184   2.0000      -0.508972       -13.8498 
 185   2.0000      -0.508450       -13.8356 
 186   2.0000      -0.505058       -13.7433 
 187   2.0000      -0.502772       -13.6811 
 188   2.0000      -0.501169       -13.6375 
 189   2.0000      -0.499300       -13.5866 
 190   2.0000      -0.497019       -13.5246 
 191   2.0000      -0.490271       -13.3410 
 192   2.0000      -0.489229       -13.3126 
 193   2.0000      -0.486716       -13.2442 
 194   2.0000      -0.482830       -13.1385 
 195   2.0000      -0.481882       -13.1127 
 196   2.0000      -0.478805       -13.0290 
 197   2.0000      -0.474079       -12.9004 
 198   2.0000      -0.472678       -12.8622 
 199   2.0000      -0.469417       -12.7735 
 200   2.0000      -0.466550       -12.6955 
 201   2.0000      -0.465125       -12.6567 
 202   2.0000      -0.457538       -12.4503 
 203   2.0000      -0.455641       -12.3986 
 204   2.0000      -0.450112       -12.2482 
 205   2.0000      -0.446515       -12.1503 
 206   2.0000      -0.445349       -12.1186 
 207   2.0000      -0.444093       -12.0844 
 208   2.0000      -0.443344       -12.0640 
 209   2.0000      -0.439620       -11.9627 
 210   2.0000      -0.438179       -11.9234 
 211   2.0000      -0.437216       -11.8973 
 212   2.0000      -0.436281       -11.8718 
 213   2.0000      -0.435727       -11.8567 
 214   2.0000      -0.433690       -11.8013 
 215   2.0000      -0.431759       -11.7488 
 216   2.0000      -0.429656       -11.6915 
 217   2.0000      -0.428191       -11.6517 
 218   2.0000      -0.426471       -11.6049 
 219   2.0000      -0.425230       -11.5711 
 220   2.0000      -0.422719       -11.5028 
 221   2.0000      -0.420828       -11.4513 
 222   2.0000      -0.415360       -11.3025 
 223   2.0000      -0.412763       -11.2318 
[...]
  11   3.438     360.6   0.108922   0.102933  -510.758102  -484.744307     0.25 (  91->  96)    0.20 (  89->  95)    0.14 (  88->  94)
  12   3.613     343.2   0.032091   0.029395  -207.811494  -201.377130     0.41 (  91->  95)    0.21 (  91->  97)    0.12 (  91->  98)
  13   3.647     339.9   0.036841   0.034677  138.882945  132.050947     0.60 (  92->  94)    0.07 (  92->  98)    0.06 (  92->  95)
  14   3.669     338.0   0.027332   0.025717  110.059583  93.501515     0.26 (  81->  96)    0.24 (  88->  96)    0.14 (  85->  94)
  15   3.709     334.3   0.090020   0.084339  68.547174  73.942296     0.26 (  92->  98)    0.23 (  89->  97)    0.09 (  92->  94)
  16   3.721     333.2   0.033591   0.034785  56.145194  50.243933     0.28 (  92->  98)    0.14 (  87->  95)    0.08 (  82->  98)
  17   3.750     330.6   0.056934   0.052547  25.166496  21.573595     0.26 (  81->  96)    0.18 (  81->  94)    0.14 (  85->  94)
  18   3.797     326.5   0.060526   0.059193  -53.804534  -53.680606     0.19 (  82->  97)    0.16 (  83->  97)    0.15 (  87->  95)
  19   3.876     319.9   0.008631   0.007819  13.840196  12.796193     0.79 (  90->  94)    0.11 (  90->  95)    0.05 (  93->  99)
  20   3.903     317.7   0.033034   0.029097  22.664294  20.995789     0.69 (  93->  99)    0.12 (  93-> 101)    0.06 (  90->  94)
  21   3.969     312.4   0.560443   0.522819  119.810065  115.343409     0.43 (  88->  96)    0.14 (  81->  94)    0.07 (  80->  94)
  22   3.995     310.3   0.577516   0.524519  326.267477  304.182089     0.28 (  81->  94)    0.27 (  85->  94)    0.06 (  89->  97)
  23   4.006     309.5   0.131855   0.125745  -355.045225  -346.140047     0.21 (  89->  97)    0.13 (  87->  95)    0.11 (  89->  98)
  24   4.025     308.0   0.011753   0.010490   6.694162   7.329591     0.38 (  86->  95)    0.12 (  86->  97)    0.10 (  83->  95)
  25   4.039     307.0   0.179937   0.159783  -172.860331  -162.571893     0.20 (  87->  95)    0.16 (  83->  95)    0.13 (  86->  95)
  26   4.120     300.9   0.280558   0.254057  -182.958582  -176.177931     0.44 (  93-> 100)    0.09 (  93-> 103)    0.08 (  87->  97)
  27   4.230     293.1   0.002502   0.002383   2.112066   2.589010     0.31 (  90->  97)    0.28 (  90->  95)    0.25 (  90->  98)
  28   4.273     290.2   0.254800   0.226746  377.518364  359.510179     0.14 (  87->  97)    0.14 (  93-> 100)    0.08 (  87->  95)
  29   4.284     289.4   0.215337   0.190102  -33.003236  -24.658948     0.52 (  85->  96)    0.08 (  84->  96)    0.07 (  81->  96)
  30   4.340     285.6   0.054718   0.049703  58.714075  54.156879     0.33 (  84->  95)    0.14 (  87->  98)    0.06 (  85->  95)
  31   4.367     283.9   0.001434   0.001239   2.561244   2.251132     0.81 (  92->  96)    0.10 (  92->  97)    0.01 (  87->  96)
  32   4.401     281.7   0.033066   0.030009  29.584138  28.535964     0.30 (  91->  95)    0.26 (  91->  97)    0.11 (  91->  98)
  33   4.478     276.9   0.091913   0.079973  -268.502535  -253.219017     0.19 (  82->  95)    0.13 (  83->  95)    0.11 (  93-> 100)
  34   4.515     274.6   0.125583   0.107809  193.862975  175.182057     0.36 (  80->  94)    0.07 (  84->  94)    0.07 (  83->  94)
  35   4.537     273.3   0.005945   0.005238  14.904363  12.570806     0.76 (  90->  96)    0.11 (  90->  97)    0.02 (  80->  94)
  36   4.539     273.1   0.054946   0.049561  -38.173864  -35.503284     0.58 (  89->  94)    0.21 (  89->  98)    0.06 (  89->  97)
  37   4.590     270.1   0.003648   0.002997   2.243627   1.672079     0.82 (  86->  94)    0.11 (  86->  95)    0.02 (  80->  94)
  38   4.620     268.4   0.054253   0.048186  -37.081814  -33.605372     0.32 (  89->  94)    0.22 (  89->  98)    0.11 (  89->  95)
  39   4.672     265.4   0.006002   0.005161  -12.653465  -12.378019     0.71 (  88->  95)    0.12 (  88->  97)    0.06 (  88->  98)
  40   4.694     264.1   0.195715   0.169548  289.848000  269.735165     0.10 (  84->  97)    0.09 (  89->  98)    0.09 (  87->  94)
  41   4.728     262.2   0.114948   0.098515  -155.477033  -147.867075     0.23 (  87->  94)    0.17 (  84->  94)    0.11 (  80->  94)
  42   4.796     258.5   0.054395   0.045880  21.606105  16.725559     0.18 (  93-> 103)    0.17 (  93-> 106)    0.09 (  93-> 100)
  43   4.820     257.2   0.001296   0.001283   0.790538   0.772738     0.56 (  90->  98)    0.32 (  90->  97)    0.04 (  91->  98)
  44   4.886     253.8   0.005663   0.004627  -2.044470  -3.426167     0.63 (  93-> 101)    0.13 (  93->  99)    0.04 (  93-> 102)
  45   4.925     251.8   0.058456   0.050567  53.305896  48.369859     0.40 (  91->  98)    0.23 (  91->  97)    0.05 (  84->  97)
  46   4.963     249.8   0.061088   0.051022  60.650157  52.065478     0.22 (  86->  97)    0.18 (  86->  95)    0.16 (  86->  98)
  47   4.983     248.8   0.101061   0.085008  126.310163  112.676773     0.10 (  86->  97)    0.09 (  79->  95)    0.09 (  86->  95)
  48   4.998     248.1   0.122532   0.104893  -22.424516  -24.206051     0.27 (  80->  96)    0.16 (  88->  99)    0.06 (  85->  96)

-----------------------------------------------------------------------------
         ABSORPTION SPECTRUM VIA TRANSITION ELECTRIC DIPOLE MOMENTS
-----------------------------------------------------------------------------
State   Energy  Wavelength   fosc         T2         TX        TY        TZ  
        (cm-1)    (nm)                  (au**2)     (au)      (au)      (au) 
-----------------------------------------------------------------------------
   0   13451.5    743.4   0.139515879   3.41450   1.81836   0.04923  -0.32503
   1   16239.0    615.8   0.013703209   0.27780  -0.09907   0.02318  -0.51716
   2   17435.0    573.6   0.233450011   4.40805   1.83823  -0.17064   0.99992
   3   21447.5    466.3   0.315173021   4.83779   1.76113  -0.91747   0.94576
   4   21844.2    457.8   0.028113397   0.42369  -0.19297  -0.35524  -0.51016
   5   22437.1    445.7   0.551186525   8.08736  -2.79958   0.01102  -0.49962
   6   22596.4    442.5   0.103924579   1.51410   1.10151   0.24454  -0.49089
   7   26107.0    383.0   0.176606978   2.22703  -1.19112   0.32836  -0.83693
   8   26263.9    380.8   0.029963129   0.37558   0.41330   0.23089  -0.38918
   9   26623.3    375.6   0.009219397   0.11400  -0.30217  -0.09238  -0.11899
  10   27494.1    363.7   0.641839461   7.68533   2.62245   0.39430   0.80786
  11   27729.6    360.6   0.108922450   1.29315  -0.46595   1.03658  -0.03928
  12   29141.6    343.2   0.032090629   0.36253  -0.10491  -0.59087   0.04891
  13   29417.0    339.9   0.036841211   0.41230   0.44285  -0.07908  -0.45818
  14   29589.0    338.0   0.027332424   0.30410  -0.33123  -0.36980  -0.24009
  15   29916.0    334.3   0.090020490   0.99063  -0.09078   0.13421   0.98203
  16   30007.9    333.2   0.033590712   0.36852  -0.43692  -0.22641   0.35546
  17   30246.4    330.6   0.056934252   0.61969   0.73518  -0.24376  -0.14066
  18   30628.0    326.5   0.060526131   0.65058   0.59463   0.52505   0.14598
  19   31263.9    319.9   0.008630560   0.09088  -0.15336  -0.18510  -0.18193
  20   31476.3    317.7   0.033034068   0.34550  -0.18141  -0.20704  -0.51936
  21   32009.4    312.4   0.560443389   5.76407   2.12856   0.81358   0.75590
  22   32222.7    310.3   0.577516384   5.90035   2.36668   0.12983   0.53134
  23   32311.9    309.5   0.131855444   1.34342   0.24018   0.79821   0.80535
  24   32467.8    308.0   0.011752870   0.11917   0.11044  -0.01068  -0.32689
  25   32573.5    307.0   0.179937019   1.81858   1.00551   0.88880   0.13250
  26   33229.3    300.9   0.280558439   2.77957   1.24619   0.49257   0.99195
  27   34117.7    293.1   0.002501711   0.02414  -0.11679  -0.02678   0.09890
  28   34463.7    290.2   0.254800039   2.43396   0.36051   0.67972  -1.35719
  29   34553.5    289.4   0.215336665   2.05164   1.32087  -0.48948  -0.25953
  30   35008.4    285.6   0.054717631   0.51455   0.35319   0.37347   0.50033
  31   35221.5    283.9   0.001434366   0.01341  -0.01072   0.04744   0.10508
  32   35499.0    281.7   0.033065911   0.30665   0.26104   0.09984   0.47805
  33   36115.8    276.9   0.091912965   0.83783  -0.09161  -0.41588   0.81023
  34   36415.2    274.6   0.125583194   1.13534  -0.04473   1.03386   0.25390
  35   36591.9    273.3   0.005945417   0.05349  -0.11005   0.20332   0.00643
  36   36612.6    273.1   0.054946010   0.49406  -0.43649  -0.54572  -0.07565
  37   37020.1    270.1   0.003648302   0.03244   0.00731  -0.17757  -0.02932
  38   37261.0    268.4   0.054252691   0.47934   0.33573   0.47581   0.37448
  39   37681.5    265.4   0.006002457   0.05244  -0.20359   0.09002  -0.05375
  40   37858.6    264.1   0.195715391   1.70191   0.43201   0.00876  -1.23094
  41   38137.4    262.2   0.114948181   0.99226  -0.13074  -0.27765   0.94767
  42   38681.7    258.5   0.054394829   0.46294   0.17073  -0.21675   0.62194
  43   38874.4    257.2   0.001295619   0.01097  -0.00463  -0.00738   0.10438
  44   39404.4    253.8   0.005662782   0.04731  -0.09001   0.11123   0.16382
  45   39720.2    251.8   0.058455643   0.48450   0.04575   0.17354  -0.67252
  46   40030.8    249.8   0.061088085   0.50239   0.09183  -0.00956   0.70275
  47   40189.2    248.8   0.101061324   0.82785   0.04391  -0.06972   0.90612
  48   40314.3    248.1   0.122531936   1.00061   0.90571  -0.31924  -0.27997

-----------------------------------------------------------------------------
         ABSORPTION SPECTRUM VIA TRANSITION VELOCITY DIPOLE MOMENTS
-----------------------------------------------------------------------------
State   Energy  Wavelength   fosc         P2         PX        PY        PZ  
        (cm-1)    (nm)                  (au**2)     (au)      (au)      (au) 
-----------------------------------------------------------------------------
   0   13451.5    743.4   0.168365206   0.01548   0.12319   0.00326  -0.01708
   1   16239.0    615.8   0.014923951   0.00166  -0.00413   0.00344  -0.04034
   2   17435.0    573.6   0.264595710   0.03153   0.16064  -0.01603   0.07394
   3   21447.5    466.3   0.335353816   0.04916   0.17590  -0.09947   0.09123
   4   21844.2    457.8   0.030929650   0.00462  -0.02151  -0.03769  -0.05229
   5   22437.1    445.7   0.565644462   0.08674  -0.29079   0.00127  -0.04669
   6   22596.4    442.5   0.110473970   0.01706   0.11636   0.02800  -0.05231
   7   26107.0    383.0   0.167299447   0.02985  -0.13632   0.04022  -0.09824
   8   26263.9    380.8   0.029928282   0.00537   0.05066   0.02877  -0.04448
   9   26623.3    375.6   0.010458965   0.00190  -0.03904  -0.01134  -0.01583
  10   27494.1    363.7   0.617851245   0.11610   0.32175   0.04932   0.10074
  11   27729.6    360.6   0.102932849   0.01951  -0.05873   0.12667  -0.00353
  12   29141.6    343.2   0.029395032   0.00585  -0.01260  -0.07514   0.00709
  13   29417.0    339.9   0.034677316   0.00697   0.05891  -0.01035  -0.05827
  14   29589.0    338.0   0.025717132   0.00520  -0.04740  -0.04648  -0.02818
  15   29916.0    334.3   0.084339002   0.01724  -0.00809   0.02059   0.12944
  16   30007.9    333.2   0.034784914   0.00713  -0.06230  -0.03391   0.04585
  17   30246.4    330.6   0.052547235   0.01086   0.09791  -0.03145  -0.01697
  18   30628.0    326.5   0.059193302   0.01239   0.08282   0.07077   0.02285
  19   31263.9    319.9   0.007818599   0.00167  -0.02066  -0.02550  -0.02436
  20   31476.3    317.7   0.029096897   0.00626  -0.02459  -0.02819  -0.06972
  21   32009.4    312.4   0.522819120   0.11438   0.30097   0.11262   0.10541
  22   32222.7    310.3   0.524518933   0.11551   0.33098   0.01781   0.07515
  23   32311.9    309.5   0.125745305   0.02777   0.03561   0.11507   0.11515
  24   32467.8    308.0   0.010489932   0.00233   0.01364  -0.00193  -0.04624
  25   32573.5    307.0   0.159782924   0.03557   0.14007   0.12524   0.01633
  26   33229.3    300.9   0.254056927   0.05770   0.17968   0.07175   0.14236
  27   34117.7    293.1   0.002383166   0.00056  -0.01656  -0.00411   0.01627
  28   34463.7    290.2   0.226746448   0.05341   0.05235   0.10154  -0.20089
  29   34553.5    289.4   0.190102428   0.04489   0.19647  -0.06984  -0.03764
  30   35008.4    285.6   0.049703220   0.01189   0.05132   0.05588   0.07833
  31   35221.5    283.9   0.001239251   0.00030  -0.00180   0.00751   0.01545
  32   35499.0    281.7   0.030008593   0.00728   0.03945   0.01489   0.07418
  33   36115.8    276.9   0.079972986   0.01974  -0.01478  -0.06298   0.12472
  34   36415.2    274.6   0.107809072   0.02683  -0.00757   0.15910   0.03825
  35   36591.9    273.3   0.005238327   0.00131  -0.01763   0.03161   0.00021
  36   36612.6    273.1   0.049560944   0.01240  -0.06971  -0.08589  -0.01282
  37   37020.1    270.1   0.002996565   0.00076   0.00096  -0.02719  -0.00422
  38   37261.0    268.4   0.048186042   0.01227   0.05426   0.07550   0.06021
  39   37681.5    265.4   0.005160924   0.00133  -0.03228   0.01388  -0.00973
  40   37858.6    264.1   0.169548278   0.04387   0.07067   0.00371  -0.19713
  41   38137.4    262.2   0.098515099   0.02568  -0.02153  -0.04312   0.15282
  42   38681.7    258.5   0.045880391   0.01213   0.02529  -0.03479   0.10139
  43   38874.4    257.2   0.001282682   0.00034  -0.00088  -0.00127   0.01840
  44   39404.4    253.8   0.004627285   0.00125  -0.01645   0.01843   0.02522
  45   39720.2    251.8   0.050566558   0.01373   0.00977   0.02953  -0.11296
  46   40030.8    249.8   0.051022480   0.01396   0.01130  -0.00169   0.11760
  47   40189.2    248.8   0.085007855   0.02335   0.00286  -0.01241   0.15227
  48   40314.3    248.1   0.104892799   0.02890   0.15578  -0.05171  -0.04425

-------------------------------------------------------------------
                             CD SPECTRUM
-------------------------------------------------------------------
State   Energy Wavelength       R         MX        MY        MZ   
        (cm-1)   (nm)       (1e40*cgs)   (au)      (au)      (au)  
-------------------------------------------------------------------
   0   13451.5    743.4     29.05897   0.07468   1.29112   0.99260
   1   16239.0    615.8    -50.97791   0.66038   0.02230  -0.54368
   2   17435.0    573.6    -26.18206  -0.66578   1.97106   1.67140
   3   21447.5    466.3    176.47359  -2.44992   1.58757   5.31056
   4   21844.2    457.8     27.80139   0.31887  -0.77251   0.64848
   5   22437.1    445.7     77.62841   0.59643  -3.08409  -2.75093
   6   22596.4    442.5    -423.41491   1.08461   1.52830  -0.46405
   7   26107.0    383.0     69.78161   1.45483  -2.36865  -2.64613
   8   26263.9    380.8    -257.74338   1.37566  -0.71919  -1.77535
   9   26623.3    375.6     -1.78783  -0.03811  -0.48302   0.40802
  10   27494.1    363.7    412.67618  -2.02189   0.19652   4.30039
  11   27729.6    360.6    -510.75810   0.50242   2.19453  -3.20933
  12   29141.6    343.2    -207.81149  -0.58839  -1.22026   2.02109
  13   29417.0    339.9    138.88295  -0.04543   0.14705   1.21663
  14   29589.0    338.0    110.05958  -0.24903   0.26105   1.88620
  15   29916.0    334.3     68.54717  -0.54458  -0.79811  -0.23738
  16   30007.9    333.2     56.14519  -0.23692  -0.03558  -0.98395
  17   30246.4    330.6     25.16650  -0.40302  -1.94369   2.02096
  18   30628.0    326.5    -53.80453  -0.60530   0.88962   0.82951
  19   31263.9    319.9     13.84020  -0.02852  -0.17881   0.52870
  20   31476.3    317.7     22.66429   0.54395  -0.66102   0.25865
  21   32009.4    312.4    119.81007  -0.14934  -0.15732  -0.08255
  22   32222.7    310.3    326.26748  -1.41844  -1.79144   4.15076
  23   32311.9    309.5    -355.04522  -1.26040   2.58578  -0.31671
  24   32467.8    308.0      6.69416   0.32869  -0.16368   0.20327
  25   32573.5    307.0    -172.86033  -0.84441   1.63160   0.99776
  26   33229.3    300.9    -182.95858  -1.37211   2.74667   1.14232
  27   34117.7    293.1      2.11207  -0.09927   0.10225  -0.18013
  28   34463.7    290.2    377.51836   0.93568  -1.59274   0.63089
  29   34553.5    289.4    -33.00324  -0.20736  -2.44100   3.00895
  30   35008.4    285.6     58.71407  -0.43807  -0.23545  -0.01285
  31   35221.5    283.9      2.56124  -0.06100   0.09519  -0.15260
  32   35499.0    281.7     29.58414  -0.25540   0.62172  -0.25292
  33   36115.8    276.9    -268.50253  -1.33055   0.50836   1.51634
  34   36415.2    274.6    193.86297   1.33966   0.50544  -5.06129
  35   36591.9    273.3     14.90436   0.54828   0.03487  -1.55337
  36   36612.6    273.1    -38.17386   0.41966  -0.62346  -0.06459
  37   37020.1    270.1      2.24363  -0.22583  -0.09212   0.82626
  38   37261.0    268.4    -37.08181  -0.83480   0.85455   0.08273
  39   37681.5    265.4    -12.65346   0.15333   0.58025  -0.60760
  40   37858.6    264.1    289.84800   1.12434  -0.92755   1.38693
  41   38137.4    262.2    -155.47703  -1.45202   1.20665   0.84920
  42   38681.7    258.5     21.60610  -0.75259   0.97120   0.39768
  43   38874.4    257.2      0.79054  -0.10315   0.12761  -0.02768
  44   39404.4    253.8     -2.04447  -0.14375   0.69102  -0.49523
  45   39720.2    251.8     53.30590   0.57726  -0.94517   0.13164
  46   40030.8    249.8     60.65016  -0.70459   1.03973  -0.25991
  47   40189.2    248.8    126.31016  -0.75733   1.30131  -0.45453
  48   40314.3    248.1    -22.42452   0.04411  -2.59009   2.75629

sTD-DFT done

Total run time:        8.466 sec

           *** ORCA-CIS/TD-DFT FINISHED WITHOUT ERROR ***

-------------------------   --------------------
FINAL SINGLE POINT ENERGY     -3330.118630922419
-------------------------   --------------------


                            ***************************************
                            *     ORCA property calculations      *
                            ***************************************

                                    ---------------------
                                    Active property flags
                                    ---------------------
   (+) Dipole Moment


------------------------------------------------------------------------------
                       ORCA ELECTRIC PROPERTIES CALCULATION
------------------------------------------------------------------------------

Dipole Moment Calculation                       ... on
Quadrupole Moment Calculation                   ... off
Polarizability Calculation                      ... off
GBWName                                         ... xtbopt.gbw
Electron density file                           ... xtbopt.scfp
The origin for moment calculation is the CENTER OF MASS  = (15.845607,  8.488393  0.650773)

-------------
DIPOLE MOMENT
-------------
                                X             Y             Z
Electronic contribution:    -16.76978      31.70967      10.71196
Nuclear contribution   :     18.92920     -33.33505     -11.12843
                        -----------------------------------------
Total Dipole Moment    :      2.15942      -1.62538      -0.41647
                        -----------------------------------------
Magnitude (a.u.)       :      2.73467
Magnitude (Debye)      :      6.95097



--------------------
Rotational spectrum 
--------------------
 
Rotational constants in cm-1:     0.001997     0.000262     0.000252 
Rotational constants in MHz :    59.854764     7.843438     7.552267 

 Dipole components along the rotational axes: 
x,y,z [a.u.] :    -1.595549    -1.487777     1.648985 
x,y,z [Debye]:    -4.055564    -3.781629     4.191386 

 

Timings for individual modules:

Sum of individual times         ...     1283.351 sec (=  21.389 min)
GTO integral calculation        ...        8.414 sec (=   0.140 min)   0.7 %
SCF iterations                  ...     1263.877 sec (=  21.065 min)  98.5 %
CIS module                      ...       11.060 sec (=   0.184 min)   0.9 %
                             ****ORCA TERMINATED NORMALLY****
TOTAL RUN TIME: 0 days 0 hours 21 minutes 26 seconds 85 msec
