
                                 *****************
                                 * O   R   C   A *
                                 *****************

           --- An Ab Initio, DFT and Semiempirical electronic structure package ---

                  #######################################################
                  #                        -***-                        #
                  #          Department of theory and spectroscopy      #
                  #               Directorship: Frank Neese             #
                  #        Max Planck Institute fuer Kohlenforschung    #
                  #                Kaiser Wilhelm Platz 1               #
                  #                 D-45470 Muelheim/Ruhr               #
                  #                      Germany                        #
                  #                                                     #
                  #                  All rights reserved                #
                  #                        -***-                        #
                  #######################################################


                         Program Version 4.2.0 -  RELEASE  -


 With contributions from (in alphabetic order):
   Daniel Aravena         : Magnetic Suceptibility
   Michael Atanasov       : Ab Initio Ligand Field Theory (pilot matlab implementation)
   Alexander A. Auer      : GIAO ZORA, VPT2
   Ute Becker             : Parallelization
   Giovanni Bistoni       : ED, misc. LED, open-shell LED, HFLED
   Martin Brehm           : Molecular dynamics
   Dmytro Bykov           : SCF Hessian
   Vijay G. Chilkuri      : MRCI spin determinant printing, contributions to CSF-ICE
   Dipayan Datta          : RHF DLPNO-CCSD density
   Achintya Kumar Dutta   : EOM-CC, STEOM-CC
   Dmitry Ganyushin       : Spin-Orbit,Spin-Spin,Magnetic field MRCI
   Miquel Garcia          : C-PCM Hessian, Gaussian charge scheme
   Yang Guo               : DLPNO-NEVPT2, CIM, IAO-localization
   Andreas Hansen         : Spin unrestricted coupled pair/coupled cluster methods
   Benjamin Helmich-Paris : CASSCF linear response (MC-RPA)
   Lee Huntington         : MR-EOM, pCC
   Robert Izsak           : Overlap fitted RIJCOSX, COSX-SCS-MP3, EOM
   Christian Kollmar      : KDIIS, OOCD, Brueckner-CCSD(T), CCSD density
   Simone Kossmann        : Meta GGA functionals, TD-DFT gradient, OOMP2, MP2 Hessian
   Martin Krupicka        : AUTO-CI
   Lucas Lang             : DCDCAS
   Dagmar Lenk            : GEPOL surface, SMD
   Dimitrios Liakos       : Extrapolation schemes; Compound Job, initial MDCI parallelization
   Dimitrios Manganas     : Further ROCIS development; embedding schemes
   Dimitrios Pantazis     : SARC Basis sets
   Taras Petrenko         : DFT Hessian,TD-DFT gradient, ASA, ECA, R-Raman, ABS, FL, XAS/XES, NRVS
   Peter Pinski           : DLPNO-MP2, DLPNO-MP2 Gradient
   Christoph Reimann      : Effective Core Potentials
   Marius Retegan         : Local ZFS, SOC
   Christoph Riplinger    : Optimizer, TS searches, QM/MM, DLPNO-CCSD(T), (RO)-DLPNO pert. Triples
   Tobias Risthaus        : Range-separated hybrids, TD-DFT gradient, RPA, STAB
   Michael Roemelt        : Original ROCIS implementation
   Masaaki Saitow         : Open-shell DLPNO-CCSD energy and density
   Barbara Sandhoefer     : DKH picture change effects
   Avijit Sen             : IP-ROCIS
   Kantharuban Sivalingam : CASSCF convergence, NEVPT2, FIC-MRCI
   Bernardo de Souza      : ESD, SOC TD-DFT
   Georgi Stoychev        : AutoAux, RI-MP2 NMR
   Willem Van den Heuvel  : Paramagnetic NMR
   Boris Wezisla          : Elementary symmetry handling
   Frank Wennmohs         : Technical directorship


 We gratefully acknowledge several colleagues who have allowed us to
 interface, adapt or use parts of their codes:
   Stefan Grimme, W. Hujo, H. Kruse,             : VdW corrections, initial TS optimization,
                  C. Bannwarth                     DFT functionals, gCP, sTDA/sTD-DF
   Ed Valeev, F. Pavosevic, A. Kumar             : LibInt (2-el integral package), F12 methods
   Garnet Chan, S. Sharma, J. Yang, R. Olivares  : DMRG
   Ulf Ekstrom                                   : XCFun DFT Library
   Mihaly Kallay                                 : mrcc  (arbitrary order and MRCC methods)
   Andreas Klamt, Michael Diedenhofen            : otool_cosmo (COSMO solvation model)
   Jiri Pittner, Ondrej Demel                    : Mk-CCSD
   Frank Weinhold                                : gennbo (NPA and NBO analysis)
   Christopher J. Cramer and Donald G. Truhlar   : smd solvation model
   Lars Goerigk                                  : TD-DFT with DH, B97 family of functionals
   V. Asgeirsson, H. Jonsson                     : NEB implementation
   FAccTs GmbH                                   : IRC, NEB, NEB-TS, Multilevel, MM, QM/MM, CI optimization
   S Lehtola, MJT Oliveira, MAL Marques          : LibXC Library


 Your calculation uses the libint2 library for the computation of 2-el integrals
 For citations please refer to: http://libint.valeyev.net

 Your ORCA version has been built with support for libXC version: 4.2.3
 For citations please refer to: https://tddft.org/programs/libxc/

 This ORCA versions uses:
   CBLAS   interface :  Fast vector & matrix operations
   LAPACKE interface :  Fast linear algebra routines
   SCALAPACK package :  Parallel linear algebra routines


XCFun DFT library Copyright 2009-2010 Ulf Ekstrom and contributors.
See http://admol.org/xcfun for more information. This is free soft-
ware; see the source code for copying conditions. There is ABSOLUTELY
NO WARRANTY; not even for MERCHANTABILITY or FITNESS FOR A PARTICULAR
PURPOSE. For details see the documentation. Scientific users of this 
library should cite U. Ekstrom, L. Visscher, R. Bast, A. J. Thorvald-
sen and K. Ruud; J.Chem.Theor.Comp. 2010, DOI: 10.1021/ct100117s
XCFun Version 0.99 
----- Orbital basis set information -----
Your calculation utilizes the basis: def2-SVP
   F. Weigend and R. Ahlrichs, Phys. Chem. Chem. Phys. 7, 3297 (2005).

----- AuxJ basis set information -----
Your calculation utilizes the auxiliary basis: def2/J
   F. Weigend, Phys. Chem. Chem. Phys. 8, 1057 (2006).

================================================================================
                                        WARNINGS
                       Please study these warnings very carefully!
================================================================================

INFO   : Checking CIS options ...

WARNING: CIS/ROCIS methods need fully converged wavefunctions
  ===> : Setting SCFConvForced true
         You can overwrite this default with %scf ConvForced false 


INFO   : the flag for use of LIBINT has been found!

================================================================================
                                       INPUT FILE
================================================================================
NAME = xtbopt.inp
|  1> # ORCA input file
|  2> # SCF done       -202.543855859362          0.000585727345
|  3> ! CAM-B3LYP def2-SVP def2/J RIJCOSX Grid4 TightSCF
|  4> %maxcore 5000
|  5> %tddft
|  6>     Mode sTDDFT
|  7>     Ethresh 5.0
|  8>     maxcore 5000
|  9> end
| 10> 
| 11> %pal
| 12>   nprocs 6
| 13>   end
| 14> * xyz 0 1
| 15>    C       -2.03540        -0.55519        -0.19196
| 16>    C       -2.45765        -1.79778        -0.58833
| 17>    C       -1.59936        -2.89865        -0.78723
| 18>    N       -0.95208        -3.83063        -0.96276
| 19>    C       -3.79284        -2.13843        -0.89210
| 20>    N       -4.84459        -2.49009        -1.19013
| 21>    C       -0.65105        -0.14551         0.00321
| 22>    C       -0.62310         1.24366         0.28320
| 23>    C        0.54721         1.92968         0.50081
| 24>    C        1.74722         1.21562         0.42998
| 25>    C        1.70882        -0.17198         0.15428
| 26>    C        0.52527        -0.86858        -0.05885
| 27>    S        3.30629        -0.85040         0.12093
| 28>    C        3.99726         0.69767         0.46501
| 29>    C        3.08151         1.68122         0.60170
| 30>    C       -1.99998         1.76998         0.31691
| 31>    O       -2.33218         2.88665         0.65477
| 32>    C       -2.87578         0.61116        -0.00104
| 33>    C       -4.23591         0.62484         0.06378
| 34>    C       -5.04803         1.79568         0.02592
| 35>    C       -6.27347         1.84522         0.72264
| 36>    C       -7.09017         3.03359         0.74602
| 37>    N       -8.27333         3.00342         1.37956
| 38>    C       -8.63334         1.92281         2.02781
| 39>    C       -7.77580         0.77542         2.07817
| 40>    N       -6.64327         0.75778         1.42216
| 41>    C       -8.16309        -0.35931         2.83446
| 42>    N       -8.51123        -1.24827         3.46766
| 43>    C       -9.89167         1.90114         2.67828
| 44>    N      -10.89707         1.86040         3.22646
| 45>    C       -6.70691         4.22442         0.07953
| 46>    C       -5.54516         4.12741        -0.71416
| 47>    C       -4.73224         2.93108        -0.74474
| 48>    N       -3.71160         3.04282        -1.59323
| 49>    S       -3.72272         4.51110        -2.23047
| 50>    N       -5.03564         5.07700        -1.50721
| 51>    C       -7.46679         5.45071         0.19824
| 52>    C       -7.51015         6.35531        -0.87794
| 53>    C       -8.24562         7.50658        -0.76862
| 54>    C       -8.92111         7.81273         0.43005
| 55>    C       -8.87185         6.93383         1.50568
| 56>    C       -8.15488         5.76442         1.38162
| 57>    C       -9.52291         9.11485         0.30183
| 58>    C       -9.20441         9.63327        -0.96883
| 59>    C       -8.44750         8.60655        -1.78552
| 60>    C       -7.11797         9.14612        -2.33040
| 61>    C       -6.22216         9.69828        -1.22763
| 62>    C       -9.39420         8.16046        -2.92606
| 63>    C       -8.91545         6.97882        -3.75886
| 64>    C       -9.60845        10.89045        -1.33489
| 65>    C      -10.36592        11.66677        -0.43779
| 66>    C      -10.70966        11.11506         0.81038
| 67>    C      -10.28810         9.86154         1.19133
| 68>    C      -10.80898        12.99319        -0.74954
| 69>    C      -10.36380        13.77599        -1.76888
| 70>    C      -10.84583        15.07464        -2.01098
| 71>    C      -10.35551        15.91998        -2.97213
| 72>    C      -10.81176        17.23052        -3.26584
| 73>    C      -10.12363        17.85670        -4.25655
| 74>    C       -9.07175        17.08302        -4.80482
| 75>    S       -9.00747        15.51421        -4.02510
| 76>    C       -8.17849        17.45062        -5.78476
| 77>    C       -8.12700        18.68669        -6.48555
| 78>    C       -7.11755        18.77677        -7.38066
| 79>    C       -6.28303        17.61478        -7.45216
| 80>    S       -6.89038        16.39469        -6.31934
| 81>    C       -5.18965        17.44236        -8.21660
| 82>    C       -4.36050        16.20364        -8.25601
| 83>    C       -4.47893        15.56613        -9.61330
| 84>    C       -3.78721        15.91033       -10.69614
| 85>    O       -3.97042        15.29239       -11.91686
| 86>    C       -3.82023        13.88817       -11.93527
| 87>    C       -2.51424        13.42225       -11.28456
| 88>    C       -1.26376        14.13310       -11.83064
| 89>    O       -0.92429        15.33595       -11.17976
| 90>    C       -1.54276        16.52138       -11.63375
| 91>    C       -2.72266        16.97173       -10.75607
| 92>    H        0.53635         2.98736         0.71441
| 93>    H        0.54713        -1.92699        -0.25839
| 94>    H        5.06410         0.77576         0.54536
| 95>    H        3.32585         2.70569         0.81742
| 96>    H       -4.77752        -0.30448         0.18735
| 97>    H       -6.96280         6.12524        -1.77619
| 98>    H       -9.37067         7.17082         2.43319
| 99>    H       -8.08719         5.09595         2.22423
|100>    H       -7.32777         9.93228        -3.05897
|101>    H       -6.59010         8.34167        -2.84322
|102>    H       -6.71589        10.51110        -0.69916
|103>    H       -5.29537        10.07674        -1.65248
|104>    H       -5.97818         8.91867        -0.50965
|105>    H       -9.55201         9.02031        -3.58126
|106>    H      -10.35921         7.90516        -2.48007
|107>    H       -7.95088         7.17992        -4.21706
|108>    H       -9.63292         6.78655        -4.55392
|109>    H       -8.83824         6.08194        -3.15073
|110>    H       -9.36334        11.28254        -2.30981
|111>    H      -11.30524        11.70759         1.49024
|112>    H      -10.54851         9.46414         2.16078
|113>    H      -11.54820        13.41275        -0.07748
|114>    H       -9.58396        13.42150        -2.42969
|115>    H      -11.65692        15.44261        -1.39580
|116>    H      -11.63688        17.66496        -2.72924
|117>    H      -10.33503        18.85216        -4.60362
|118>    H       -8.84315        19.46712        -6.29961
|119>    H       -6.92031        19.63380        -7.99976
|120>    H       -4.89809        18.23822        -8.88734
|121>    H       -4.70507        15.50508        -7.49167
|122>    H       -3.31745        16.45921        -8.04902
|123>    H       -5.23255        14.79616        -9.69508
|124>    H       -3.83077        13.62743       -12.99732
|125>    H       -4.67047        13.39178       -11.44758
|126>    H       -2.41695        12.35016       -11.45846
|127>    H       -2.55884        13.59313       -10.20729
|128>    H       -1.37435        14.30024       -12.91135
|129>    H       -0.39717        13.48551       -11.66549
|130>    H       -1.87945        16.40523       -12.67028
|131>    H       -0.76962        17.29761       -11.60115
|132>    H       -3.13257        17.88633       -11.19104
|133>    H       -2.36216        17.19539        -9.75283
|134> *
|135> 
|136>                          ****END OF INPUT****
================================================================================

                       ****************************
                       * Single Point Calculation *
                       ****************************

---------------------------------
CARTESIAN COORDINATES (ANGSTROEM)
---------------------------------
  C     -2.035400   -0.555190   -0.191960
  C     -2.457650   -1.797780   -0.588330
  C     -1.599360   -2.898650   -0.787230
  N     -0.952080   -3.830630   -0.962760
  C     -3.792840   -2.138430   -0.892100
  N     -4.844590   -2.490090   -1.190130
  C     -0.651050   -0.145510    0.003210
  C     -0.623100    1.243660    0.283200
  C      0.547210    1.929680    0.500810
  C      1.747220    1.215620    0.429980
  C      1.708820   -0.171980    0.154280
  C      0.525270   -0.868580   -0.058850
  S      3.306290   -0.850400    0.120930
  C      3.997260    0.697670    0.465010
  C      3.081510    1.681220    0.601700
  C     -1.999980    1.769980    0.316910
  O     -2.332180    2.886650    0.654770
  C     -2.875780    0.611160   -0.001040
  C     -4.235910    0.624840    0.063780
  C     -5.048030    1.795680    0.025920
  C     -6.273470    1.845220    0.722640
  C     -7.090170    3.033590    0.746020
  N     -8.273330    3.003420    1.379560
  C     -8.633340    1.922810    2.027810
  C     -7.775800    0.775420    2.078170
  N     -6.643270    0.757780    1.422160
  C     -8.163090   -0.359310    2.834460
  N     -8.511230   -1.248270    3.467660
  C     -9.891670    1.901140    2.678280
  N    -10.897070    1.860400    3.226460
  C     -6.706910    4.224420    0.079530
  C     -5.545160    4.127410   -0.714160
  C     -4.732240    2.931080   -0.744740
  N     -3.711600    3.042820   -1.593230
  S     -3.722720    4.511100   -2.230470
  N     -5.035640    5.077000   -1.507210
  C     -7.466790    5.450710    0.198240
  C     -7.510150    6.355310   -0.877940
  C     -8.245620    7.506580   -0.768620
  C     -8.921110    7.812730    0.430050
  C     -8.871850    6.933830    1.505680
  C     -8.154880    5.764420    1.381620
  C     -9.522910    9.114850    0.301830
  C     -9.204410    9.633270   -0.968830
  C     -8.447500    8.606550   -1.785520
  C     -7.117970    9.146120   -2.330400
  C     -6.222160    9.698280   -1.227630
  C     -9.394200    8.160460   -2.926060
  C     -8.915450    6.978820   -3.758860
  C     -9.608450   10.890450   -1.334890
  C    -10.365920   11.666770   -0.437790
  C    -10.709660   11.115060    0.810380
  C    -10.288100    9.861540    1.191330
  C    -10.808980   12.993190   -0.749540
  C    -10.363800   13.775990   -1.768880
  C    -10.845830   15.074640   -2.010980
  C    -10.355510   15.919980   -2.972130
  C    -10.811760   17.230520   -3.265840
  C    -10.123630   17.856700   -4.256550
  C     -9.071750   17.083020   -4.804820
  S     -9.007470   15.514210   -4.025100
  C     -8.178490   17.450620   -5.784760
  C     -8.127000   18.686690   -6.485550
  C     -7.117550   18.776770   -7.380660
  C     -6.283030   17.614780   -7.452160
  S     -6.890380   16.394690   -6.319340
  C     -5.189650   17.442360   -8.216600
  C     -4.360500   16.203640   -8.256010
  C     -4.478930   15.566130   -9.613300
  C     -3.787210   15.910330  -10.696140
  O     -3.970420   15.292390  -11.916860
  C     -3.820230   13.888170  -11.935270
  C     -2.514240   13.422250  -11.284560
  C     -1.263760   14.133100  -11.830640
  O     -0.924290   15.335950  -11.179760
  C     -1.542760   16.521380  -11.633750
  C     -2.722660   16.971730  -10.756070
  H      0.536350    2.987360    0.714410
  H      0.547130   -1.926990   -0.258390
  H      5.064100    0.775760    0.545360
  H      3.325850    2.705690    0.817420
  H     -4.777520   -0.304480    0.187350
  H     -6.962800    6.125240   -1.776190
  H     -9.370670    7.170820    2.433190
  H     -8.087190    5.095950    2.224230
  H     -7.327770    9.932280   -3.058970
  H     -6.590100    8.341670   -2.843220
  H     -6.715890   10.511100   -0.699160
  H     -5.295370   10.076740   -1.652480
  H     -5.978180    8.918670   -0.509650
  H     -9.552010    9.020310   -3.581260
  H    -10.359210    7.905160   -2.480070
  H     -7.950880    7.179920   -4.217060
  H     -9.632920    6.786550   -4.553920
  H     -8.838240    6.081940   -3.150730
  H     -9.363340   11.282540   -2.309810
  H    -11.305240   11.707590    1.490240
  H    -10.548510    9.464140    2.160780
  H    -11.548200   13.412750   -0.077480
  H     -9.583960   13.421500   -2.429690
  H    -11.656920   15.442610   -1.395800
  H    -11.636880   17.664960   -2.729240
  H    -10.335030   18.852160   -4.603620
  H     -8.843150   19.467120   -6.299610
  H     -6.920310   19.633800   -7.999760
  H     -4.898090   18.238220   -8.887340
  H     -4.705070   15.505080   -7.491670
  H     -3.317450   16.459210   -8.049020
  H     -5.232550   14.796160   -9.695080
  H     -3.830770   13.627430  -12.997320
  H     -4.670470   13.391780  -11.447580
  H     -2.416950   12.350160  -11.458460
  H     -2.558840   13.593130  -10.207290
  H     -1.374350   14.300240  -12.911350
  H     -0.397170   13.485510  -11.665490
  H     -1.879450   16.405230  -12.670280
  H     -0.769620   17.297610  -11.601150
  H     -3.132570   17.886330  -11.191040
  H     -2.362160   17.195390   -9.752830

----------------------------
CARTESIAN COORDINATES (A.U.)
----------------------------
  NO LB      ZA    FRAG     MASS         X           Y           Z
   0 C     6.0000    0    12.011   -3.846349   -1.049157   -0.362752
   1 C     6.0000    0    12.011   -4.644285   -3.397312   -1.111783
   2 C     6.0000    0    12.011   -3.022352   -5.477655   -1.487649
   3 N     7.0000    0    14.007   -1.799170   -7.238842   -1.819353
   4 C     6.0000    0    12.011   -7.167429   -4.041047   -1.685825
   5 N     7.0000    0    14.007   -9.154948   -4.705588   -2.249020
   6 C     6.0000    0    12.011   -1.230306   -0.274974    0.006066
   7 C     6.0000    0    12.011   -1.177488    2.350177    0.535170
   8 C     6.0000    0    12.011    1.034077    3.646567    0.946394
   9 C     6.0000    0    12.011    3.301767    2.297189    0.812544
  10 C     6.0000    0    12.011    3.229202   -0.324995    0.291547
  11 C     6.0000    0    12.011    0.992616   -1.641378   -0.111210
  12 S    16.0000    0    32.060    6.247983   -1.607023    0.228525
  13 C     6.0000    0    12.011    7.553727    1.318405    0.878742
  14 C     6.0000    0    12.011    5.823210    3.177045    1.137048
  15 C     6.0000    0    12.011   -3.779414    3.344777    0.598873
  16 O     8.0000    0    15.999   -4.407181    5.454978    1.237336
  17 C     6.0000    0    12.011   -5.434437    1.154925   -0.001965
  18 C     6.0000    0    12.011   -8.004710    1.180776    0.120527
  19 C     6.0000    0    12.011   -9.539394    3.393343    0.048982
  20 C     6.0000    0    12.011  -11.855140    3.486960    1.365592
  21 C     6.0000    0    12.011  -13.398480    5.732654    1.409773
  22 N     7.0000    0    14.007  -15.634328    5.675641    2.606991
  23 C     6.0000    0    12.011  -16.314648    3.633584    3.832006
  24 C     6.0000    0    12.011  -14.694132    1.465331    3.927172
  25 N     7.0000    0    14.007  -12.553961    1.431997    2.687493
  26 C     6.0000    0    12.011  -15.426005   -0.678997    5.356353
  27 N     7.0000    0    14.007  -16.083894   -2.358888    6.552928
  28 C     6.0000    0    12.011  -18.692547    3.592634    5.061216
  29 N     7.0000    0    14.007  -20.592478    3.515646    6.097126
  30 C     6.0000    0    12.011  -12.674223    7.982997    0.150290
  31 C     6.0000    0    12.011  -10.478834    7.799675   -1.349567
  32 C     6.0000    0    12.011   -8.942638    5.538938   -1.407355
  33 N     7.0000    0    14.007   -7.013908    5.750096   -3.010768
  34 S    16.0000    0    32.060   -7.034921    8.524744   -4.214977
  35 N     7.0000    0    14.007   -9.515981    9.594140   -2.848214
  36 C     6.0000    0    12.011  -14.110188   10.300349    0.374619
  37 C     6.0000    0    12.011  -14.192127   12.009795   -1.659066
  38 C     6.0000    0    12.011  -15.581964   14.185380   -1.452481
  39 C     6.0000    0    12.011  -16.858455   14.763920    0.812677
  40 C     6.0000    0    12.011  -16.765367   13.103040    2.845323
  41 C     6.0000    0    12.011  -15.410490   10.893175    2.610883
  42 C     6.0000    0    12.011  -17.995692   17.224570    0.570376
  43 C     6.0000    0    12.011  -17.393814   18.204242   -1.830823
  44 C     6.0000    0    12.011  -15.963462   16.264022   -3.374144
  45 C     6.0000    0    12.011  -13.451014   17.283662   -4.403818
  46 C     6.0000    0    12.011  -11.758178   18.327093   -2.319884
  47 C     6.0000    0    12.011  -17.752465   15.421035   -5.529452
  48 C     6.0000    0    12.011  -16.847759   13.188059   -7.103216
  49 C     6.0000    0    12.011  -18.157339   20.579968   -2.522577
  50 C     6.0000    0    12.011  -19.588750   22.047000   -0.827303
  51 C     6.0000    0    12.011  -20.238324   21.004419    1.531396
  52 C     6.0000    0    12.011  -19.441691   18.635610    2.251287
  53 C     6.0000    0    12.011  -20.426012   24.553571   -1.416425
  54 C     6.0000    0    12.011  -19.584744   26.032848   -3.342699
  55 C     6.0000    0    12.011  -20.495648   28.486941   -3.800201
  56 C     6.0000    0    12.011  -19.569078   30.084402   -5.616512
  57 C     6.0000    0    12.011  -20.431265   32.560964   -6.171543
  58 C     6.0000    0    12.011  -19.130888   33.744273   -8.043714
  59 C     6.0000    0    12.011  -17.143123   32.282229   -9.079794
  60 S    16.0000    0    32.060  -17.021651   29.317608   -7.606337
  61 C     6.0000    0    12.011  -15.455106   32.976893  -10.931612
  62 C     6.0000    0    12.011  -15.357804   35.312726  -12.255913
  63 C     6.0000    0    12.011  -13.450220   35.482953  -13.947426
  64 C     6.0000    0    12.011  -11.873206   33.287110  -14.082542
  65 S    16.0000    0    32.060  -13.020931   30.981474  -11.941822
  66 C     6.0000    0    12.011   -9.807017   32.961284  -15.527124
  67 C     6.0000    0    12.011   -8.240151   30.620442  -15.601598
  68 C     6.0000    0    12.011   -8.463951   29.415723  -18.166504
  69 C     6.0000    0    12.011   -7.156790   30.066166  -20.212775
  70 O     8.0000    0    15.999   -7.503006   28.898429  -22.519602
  71 C     6.0000    0    12.011   -7.219188   26.244838  -22.554392
  72 C     6.0000    0    12.011   -4.751225   25.364377  -21.324728
  73 C     6.0000    0    12.011   -2.388160   26.707688  -22.356670
  74 O     8.0000    0    15.999   -1.746655   28.980746  -21.126685
  75 C     6.0000    0    12.011   -2.915394   31.220884  -21.984601
  76 C     6.0000    0    12.011   -5.145082   32.071922  -20.326027
  77 H     1.0000    0     1.008    1.013555    5.645292    1.350039
  78 H     1.0000    0     1.008    1.033926   -3.641483   -0.488286
  79 H     1.0000    0     1.008    9.569762    1.465974    1.030581
  80 H     1.0000    0     1.008    6.284946    5.113013    1.544700
  81 H     1.0000    0     1.008   -9.028204   -0.575384    0.354040
  82 H     1.0000    0     1.008  -13.157785   11.575026   -3.356513
  83 H     1.0000    0     1.008  -17.708000   13.550886    4.598063
  84 H     1.0000    0     1.008  -15.282574    9.629950    4.203186
  85 H     1.0000    0     1.008  -13.847478   18.769289   -5.780616
  86 H     1.0000    0     1.008  -12.453484   15.763472   -5.372907
  87 H     1.0000    0     1.008  -12.691193   19.863100   -1.321221
  88 H     1.0000    0     1.008  -10.006799   19.042279   -3.122735
  89 H     1.0000    0     1.008  -11.297123   16.853844   -0.963099
  90 H     1.0000    0     1.008  -18.050683   17.045916   -6.767601
  91 H     1.0000    0     1.008  -19.576070   14.938587   -4.686653
  92 H     1.0000    0     1.008  -15.024986   13.568082   -7.969088
  93 H     1.0000    0     1.008  -18.203581   12.824721   -8.605662
  94 H     1.0000    0     1.008  -16.701853   11.493201   -5.954017
  95 H     1.0000    0     1.008  -17.694148   21.320911   -4.364908
  96 H     1.0000    0     1.008  -21.363807   22.124139    2.816145
  97 H     1.0000    0     1.008  -19.933795   17.884633    4.083282
  98 H     1.0000    0     1.008  -21.822935   25.346424   -0.146416
  99 H     1.0000    0     1.008  -18.111060   25.362959   -4.591449
 100 H     1.0000    0     1.008  -22.028386   29.182304   -2.637680
 101 H     1.0000    0     1.008  -21.990516   33.381937   -5.157516
 102 H     1.0000    0     1.008  -19.530376   35.625419   -8.699581
 103 H     1.0000    0     1.008  -16.711132   36.787525  -11.904538
 104 H     1.0000    0     1.008  -13.077491   37.102505  -15.117356
 105 H     1.0000    0     1.008   -9.256049   34.465241  -16.794639
 106 H     1.0000    0     1.008   -8.891294   29.300355  -14.157205
 107 H     1.0000    0     1.008   -6.269072   31.103399  -15.210443
 108 H     1.0000    0     1.008   -9.888086   27.960690  -18.321046
 109 H     1.0000    0     1.008   -7.239106   25.752111  -24.561375
 110 H     1.0000    0     1.008   -8.825909   25.306797  -21.632791
 111 H     1.0000    0     1.008   -4.567374   23.338420  -21.653351
 112 H     1.0000    0     1.008   -4.835507   25.687293  -19.288983
 113 H     1.0000    0     1.008   -2.597145   27.023537  -24.398916
 114 H     1.0000    0     1.008   -0.750543   25.483921  -22.044581
 115 H     1.0000    0     1.008   -3.551646   31.001392  -23.943359
 116 H     1.0000    0     1.008   -1.454371   32.687746  -21.922996
 117 H     1.0000    0     1.008   -5.919699   33.800265  -21.148001
 118 H     1.0000    0     1.008   -4.463835   32.494578  -18.430178

--------------------------------
INTERNAL COORDINATES (ANGSTROEM)
--------------------------------
 C      0   0   0     0.000000000000     0.00000000     0.00000000
 C      1   0   0     1.370924559376     0.00000000     0.00000000
 C      2   1   0     1.410013365539   124.12246837     0.00000000
 N      3   2   1     1.148202464594   176.79951964   177.72614267
 C      2   1   3     1.411046055769   124.92517639   182.10678081
 N      5   2   1     1.148331267100   175.17728486   158.70700245
 C      1   2   3     1.456830104645   125.89505176     4.15480937
 C      7   1   2     1.417380997297   108.71245001   174.27095238
 C      8   7   1     1.373900669117   122.51157579   180.73903657
 C      9   8   7     1.398185457155   117.90785634     0.46370929
 C     10   9   8     1.415245141309   119.16393422   359.34141557
 C      7   1   2     1.382175969586   130.96462471   355.00959253
 S     11  10   9     1.735879120158   111.22067029   180.25339988
 C     13  11  10     1.729841412442    90.80308290   359.86428652
 C     14  13  11     1.350797105823   113.63744785     0.08196107
 C      8   7   1     1.474431294059   109.63101390     1.65999557
 O     16   8   7     1.213036730070   126.20766590   172.45238450
 C      1   2   3     1.450193543393   126.05487781   178.67495522
 C     18   1   2     1.361742410186   126.38123784    13.12313255
 C     19  18   1     1.425425753801   125.17329188   191.17948450
 C     20  19  18     1.410523365138   120.71107689   211.77789308
 C     21  20  19     1.442140343829   121.93461723   177.49705460
 N     22  21  20     1.342442082959   119.22558159   177.23490236
 C     23  22  21     1.310554552356   119.60862567     3.77976722
 C     24  23  22     1.433322989874   120.86955811     0.48158253
 N     25  24  23     1.308924936962   120.71979487   356.57881950
 C     25  24  23     1.417596656705   119.74021124   177.25995667
 N     27  25  24     1.145597477825   177.49521503   345.94613785
 C     24  23  22     1.416677521068   118.92881284   180.72354001
 N     29  24  23     1.145857853313   178.28328658   206.45537644
 C     22  21  20     1.417453080917   122.10954997   359.53751207
 C     31  22  21     1.410325430069   115.43950567     6.06093205
 C     20  19  18     1.408109839359   123.30393080    35.19982804
 N     33  20  19     1.331963632124   126.02468142     4.68999500
 S     34  33  20     1.600638819472   108.98007484   180.89234782
 N     32  31  22     1.338006016803   126.75750955   175.08788046
 C     31  22  21     1.447514021556   122.08805451   185.48629562
 C     37  31  22     1.406536399102   119.88654056   211.39125529
 C     38  37  31     1.370507058063   119.72056618   179.10398737
 C     39  38  37     1.409547562695   120.49457974     2.19001639
 C     40  39  38     1.389917858904   120.25013770   358.58650563
 C     41  40  39     1.377300480142   119.05414869     0.02639479
 C     40  39  38     1.440180579927   108.71832976   175.69099662
 C     43  40  39     1.408821628880   108.57440411   358.99656023
 C     39  38  37     1.511547268629   128.99929533   180.58379087
 C     45  39  38     1.534822471884   112.26989059   307.35375565
 C     46  45  39     1.524289308038   112.30834156   301.35230359
 C     45  39  38     1.547923987055   111.57171905    73.60208636
 C     48  45  39     1.522836331357   115.74021410   298.39955124
 C     44  43  40     1.370310110012   120.78922147   182.65864553
 C     50  44  43     1.407558863174   119.63138600   359.15053020
 C     51  50  44     1.407291533621   118.71826714   358.85863668
 C     52  51  50     1.376280540624   121.85362304     2.24049722
 C     51  50  44     1.432787577591   122.56976768   179.32403099
 C     54  51  50     1.360152604673   126.48767258   345.67271667
 C     55  54  51     1.406220876463   123.25245631   180.17751787
 C     56  55  54     1.370701550484   124.58635973   175.41555259
 C     57  56  55     1.418430371291   126.86606394   179.36140378
 C     58  57  56     1.359091826699   114.44187218   178.74986521
 C     59  58  57     1.416203470445   113.98948301   359.61882942
 S     60  59  58     1.753071593775   110.11643326     0.85028489
 C     60  59  58     1.375981682727   127.72991477   182.05344890
 C     62  60  59     1.421839262751   127.35652308   358.77885710
 C     63  62  60     1.352155915936   114.28200515   178.71024540
 C     64  63  62     1.432395420441   114.45279041   359.66616158
 S     62  60  59     1.749283085552   122.30386908   177.76770448
 C     65  64  63     1.345205186728   127.29241066   182.24140508
 C     67  65  64     1.491130480206   124.99160510   180.35191575
 C     68  67  65     1.504220997427   109.39883353   113.86414716
 C     69  68  67     1.330222787356   125.72610855    82.62962660
 O     70  69  68     1.380424958518   122.34441228   181.24641120
 C     71  70  69     1.412349026480   116.26233133   304.40415462
 C     72  71  70     1.531703244953   112.80312995   309.34991015
 C     73  72  71     1.538574443860   113.68219642   308.36496552
 O     74  73  72     1.409160309475   115.22870074    87.97838219
 C     75  74  73     1.412039781982   117.55411223   273.65789841
 C     70  69  68     1.504469430530   125.65664639     2.18209340
 H      9   8   7     1.079087522864   120.81024841   180.15891399
 H     12   7   1     1.077277029970   122.65391107   358.52509410
 H     14  13  11     1.072707675091   118.50939885   180.04668037
 H     15  14  13     1.075070199987   124.06136589   179.94376189
 H     19  18   1     1.082703375537   119.76582040    13.37971147
 H     38  37  31     1.076743836713   119.02552749   359.23782500
 H     41  40  39     1.079472302841   120.64618441   178.79426239
 H     42  41  40     1.077694617737   119.26981992   177.98385515
 H     46  45  39     1.092189466393   108.87283171   179.84201995
 H     46  45  39     1.090307705100   109.08592149    62.11109562
 H     47  46  45     1.087991822671   110.81422240   300.41377477
 H     47  46  45     1.087505953179   110.13720582   180.41108716
 H     47  46  45     1.087572192041   110.47388346    60.64975847
 H     48  45  39     1.092489386035   107.66310983   175.99824791
 H     48  45  39     1.093311241230   107.85138748    60.25438152
 H     49  48  45     1.086638732468   111.47293792   302.02440474
 H     49  48  45     1.088049335922   109.23387570   182.68612721
 H     49  48  45     1.086359616057   110.90497336    63.68962770
 H     50  44  43     1.079019224389   120.51488934   180.09408246
 H     52  51  50     1.080748331898   118.52901119   181.00223615
 H     53  52  51     1.079617261162   120.65915462   178.89945344
 H     54  51  50     1.083578075452   115.75100210   167.86778398
 H     55  54  51     1.081888830611   120.33766086   358.61340754
 H     56  55  54     1.082458009070   118.22536827   355.79973707
 H     58  57  56     1.075872059308   121.09788348   358.81519013
 H     59  58  57     1.075215400048   124.21566844   180.12507470
 H     63  62  60     1.075414102102   121.43638032   358.71408275
 H     64  63  62     1.075494699429   124.82472660   180.10893373
 H     67  65  64     1.080875811923   118.52311544   357.84359931
 H     68  67  65     1.091297481945   109.73566066   353.55986832
 H     68  67  65     1.093670054221   109.34107672   234.60313473
 H     69  68  67     1.080502139609   115.16450948   265.63921776
 H     72  71  70     1.093639173448   104.39920364   189.48403252
 H     72  71  70     1.098704976688   111.16880162    72.79487656
 H     73  72  71     1.090451063643   107.90172563   187.38344742
 H     73  72  71     1.091650029680   109.68090201    69.54305677
 H     74  73  72     1.099136038805   109.72203738   322.64980846
 H     74  73  72     1.094360799143   108.45929648   204.23522787
 H     76  75  74     1.096013421223   110.46574294   336.72691168
 H     76  75  74     1.096057130126   106.02329999   219.18484234
 H     77  70  69     1.092574148056   109.93549964   258.91709790
 H     77  70  69     1.089254122416   110.02059454    18.47301302

---------------------------
INTERNAL COORDINATES (A.U.)
---------------------------
 C      0   0   0     0.000000000000     0.00000000     0.00000000
 C      1   0   0     2.590671967487     0.00000000     0.00000000
 C      2   1   0     2.664539106038   124.12246837     0.00000000
 N      3   2   1     2.169788204376   176.79951964   177.72614267
 C      2   1   3     2.666490607752   124.92517639   182.10678081
 N      5   2   1     2.170031605838   175.17728486   158.70700245
 C      1   2   3     2.753009921431   125.89505176     4.15480937
 C      7   1   2     2.678461912316   108.71245001   174.27095238
 C      8   7   1     2.596295999842   122.51157579   180.73903657
 C      9   8   7     2.642187598455   117.90785634     0.46370929
 C     10   9   8     2.674425729438   119.16393422   359.34141557
 C      7   1   2     2.611934051404   130.96462471   355.00959253
 S     11  10   9     3.280336138691   111.22067029   180.25339988
 C     13  11  10     3.268926524631    90.80308290   359.86428652
 C     14  13  11     2.552636592499   113.63744785     0.08196107
 C      8   7   1     2.786271349054   109.63101390     1.65999557
 O     16   8   7     2.292307210221   126.20766590   172.45238450
 C      1   2   3     2.740468638194   126.05487781   178.67495522
 C     18   1   2     2.573320220198   126.38123784    13.12313255
 C     19  18   1     2.693664298923   125.17329188   191.17948450
 C     20  19  18     2.665502865608   120.71107689   211.77789308
 C     21  20  19     2.725250296516   121.93461723   177.49705460
 N     22  21  20     2.536847887444   119.22558159   177.23490236
 C     23  22  21     2.476589187516   119.60862567     3.77976722
 C     24  23  22     2.708587912314   120.86955811     0.48158253
 N     25  24  23     2.473509660718   120.71979487   356.57881950
 C     25  24  23     2.678869449534   119.74021124   177.25995667
 N     27  25  24     2.164865492801   177.49521503   345.94613785
 C     24  23  22     2.677132534901   118.92881284   180.72354001
 N     29  24  23     2.165357531165   178.28328658   206.45537644
 C     22  21  20     2.678598130615   122.10954997   359.53751207
 C     31  22  21     2.665128822536   115.43950567     6.06093205
 C     20  19  18     2.660941962869   123.30393080    35.19982804
 N     33  20  19     2.517046485057   126.02468142     4.68999500
 S     34  33  20     3.024769008125   108.98007484   180.89234782
 N     32  31  22     2.528464937296   126.75750955   175.08788046
 C     31  22  21     2.735405075751   122.08805451   185.48629562
 C     37  31  22     2.657968591695   119.88654056   211.39125529
 C     38  37  31     2.589883004345   119.72056618   179.10398737
 C     39  38  37     2.663658866230   120.49457974     2.19001639
 C     40  39  38     2.626564101975   120.25013770   358.58650563
 C     41  40  39     2.602720711587   119.05414869     0.02639479
 C     40  39  38     2.721546879455   108.71832976   175.69099662
 C     43  40  39     2.662287050128   108.57440411   358.99656023
 C     39  38  37     2.856410376186   128.99929533   180.58379087
 C     45  39  38     2.900394136049   112.26989059   307.35375565
 C     46  45  39     2.880489341057   112.30834156   301.35230359
 C     45  39  38     2.925152411661   111.57171905    73.60208636
 C     48  45  39     2.877743613050   115.74021410   298.39955124
 C     44  43  40     2.589510826465   120.78922147   182.65864553
 C     50  44  43     2.659900768773   119.63138600   359.15053020
 C     51  50  44     2.659395589129   118.71826714   358.85863668
 C     52  51  50     2.600793305224   121.85362304     2.24049722
 C     51  50  44     2.707576129732   122.56976768   179.32403099
 C     54  51  50     2.570315923172   126.48767258   345.67271667
 C     55  54  51     2.657372340318   123.25245631   180.17751787
 C     56  55  54     2.590250541757   124.58635973   175.41555259
 C     57  56  55     2.680444941776   126.86606394   179.36140378
 C     58  57  56     2.568311343312   114.44187218   178.74986521
 C     59  58  57     2.676236709050   113.98948301   359.61882942
 S     60  59  58     3.312825205391   110.11643326     0.85028489
 C     60  59  58     2.600228545646   127.72991477   182.05344890
 C     62  60  59     2.686886813056   127.35652308   358.77885710
 C     63  62  60     2.555204371480   114.28200515   178.71024540
 C     64  63  62     2.706835060116   114.45279041   359.66616158
 S     62  60  59     3.305665962395   122.30386908   177.76770448
 C     65  64  63     2.542069396846   127.29241066   182.24140508
 C     67  65  64     2.817828237532   124.99160510   180.35191575
 C     68  67  65     2.842565730031   109.39883353   113.86414716
 C     69  68  67     2.513756765203   125.72610855    82.62962660
 O     70  69  68     2.608625120029   122.34441228   181.24641120
 C     71  70  69     2.668952865558   116.26233133   304.40415462
 C     72  71  70     2.894499651400   112.80312995   309.34991015
 C     73  72  71     2.907484335546   113.68219642   308.36496552
 O     74  73  72     2.662927063700   115.22870074    87.97838219
 C     75  74  73     2.668368478148   117.55411223   273.65789841
 C     70  69  68     2.843035200559   125.65664639     2.18209340
 H      9   8   7     2.039179892744   120.81024841   180.15891399
 H     12   7   1     2.035758557007   122.65391107   358.52509410
 H     14  13  11     2.027123727678   118.50939885   180.04668037
 H     15  14  13     2.031588252715   124.06136589   179.94376189
 H     19  18   1     2.046012864038   119.76582040    13.37971147
 H     38  37  31     2.034750967776   119.02552749   359.23782500
 H     41  40  39     2.039907021522   120.64618441   178.79426239
 H     42  41  40     2.036547683524   119.26981992   177.98385515
 H     46  45  39     2.063938977837   108.87283171   179.84201995
 H     46  45  39     2.060382964343   109.08592149    62.11109562
 H     47  46  45     2.056006580795   110.81422240   300.41377477
 H     47  46  45     2.055088420517   110.13720582   180.41108716
 H     47  46  45     2.055213593825   110.47388346    60.64975847
 H     48  45  39     2.064505743823   107.66310983   175.99824791
 H     48  45  39     2.066058825062   107.85138748    60.25438152
 H     49  48  45     2.053449610876   111.47293792   302.02440474
 H     49  48  45     2.056115265087   109.23387570   182.68612721
 H     49  48  45     2.052922157300   110.90497336    63.68962770
 H     50  44  43     2.039050827330   120.51488934   180.09408246
 H     52  51  50     2.042318366979   118.52901119   181.00223615
 H     53  52  51     2.040180953051   120.65915462   178.89945344
 H     54  51  50     2.047665807326   115.75100210   167.86778398
 H     55  54  51     2.044473597202   120.33766086   358.61340754
 H     56  55  54     2.045549188612   118.22536827   355.79973707
 H     58  57  56     2.033103547230   121.09788348   358.81519013
 H     59  58  57     2.031862641065   124.21566844   180.12507470
 H     63  62  60     2.032238133530   121.43638032   358.71408275
 H     64  63  62     2.032390440405   124.82472660   180.10893373
 H     67  65  64     2.042559269314   118.52311544   357.84359931
 H     68  67  65     2.062253371514   109.73566066   353.55986832
 H     68  67  65     2.066736883349   109.34107672   234.60313473
 H     69  68  67     2.041853130977   115.16450948   265.63921776
 H     72  71  70     2.066678527145   104.39920364   189.48403252
 H     72  71  70     2.076251507918   111.16880162    72.79487656
 H     73  72  71     2.060653872728   107.90172563   187.38344742
 H     73  72  71     2.062919590182   109.68090201    69.54305677
 H     74  73  72     2.077066097265   109.72203738   322.64980846
 H     74  73  72     2.068042202079   108.45929648   204.23522787
 H     76  75  74     2.071165205213   110.46574294   336.72691168
 H     76  75  74     2.071247803070   106.02329999   219.18484234
 H     77  70  69     2.064665920828   109.93549964   258.91709790
 H     77  70  69     2.058391981611   110.02059454    18.47301302

---------------------
BASIS SET INFORMATION
---------------------
There are 5 groups of distinct atoms

 Group   1 Type C   : 7s4p1d contracted to 3s2p1d pattern {511/31/1}
 Group   2 Type N   : 7s4p1d contracted to 3s2p1d pattern {511/31/1}
 Group   3 Type S   : 10s7p1d contracted to 4s3p1d pattern {5311/511/1}
 Group   4 Type O   : 7s4p1d contracted to 3s2p1d pattern {511/31/1}
 Group   5 Type H   : 4s1p contracted to 2s1p pattern {31/1}

Atom   0C    basis set group =>   1
Atom   1C    basis set group =>   1
Atom   2C    basis set group =>   1
Atom   3N    basis set group =>   2
Atom   4C    basis set group =>   1
Atom   5N    basis set group =>   2
Atom   6C    basis set group =>   1
Atom   7C    basis set group =>   1
Atom   8C    basis set group =>   1
Atom   9C    basis set group =>   1
Atom  10C    basis set group =>   1
Atom  11C    basis set group =>   1
Atom  12S    basis set group =>   3
Atom  13C    basis set group =>   1
Atom  14C    basis set group =>   1
Atom  15C    basis set group =>   1
Atom  16O    basis set group =>   4
Atom  17C    basis set group =>   1
Atom  18C    basis set group =>   1
Atom  19C    basis set group =>   1
Atom  20C    basis set group =>   1
Atom  21C    basis set group =>   1
Atom  22N    basis set group =>   2
Atom  23C    basis set group =>   1
Atom  24C    basis set group =>   1
Atom  25N    basis set group =>   2
Atom  26C    basis set group =>   1
Atom  27N    basis set group =>   2
Atom  28C    basis set group =>   1
Atom  29N    basis set group =>   2
Atom  30C    basis set group =>   1
Atom  31C    basis set group =>   1
Atom  32C    basis set group =>   1
Atom  33N    basis set group =>   2
Atom  34S    basis set group =>   3
Atom  35N    basis set group =>   2
Atom  36C    basis set group =>   1
Atom  37C    basis set group =>   1
Atom  38C    basis set group =>   1
Atom  39C    basis set group =>   1
Atom  40C    basis set group =>   1
Atom  41C    basis set group =>   1
Atom  42C    basis set group =>   1
Atom  43C    basis set group =>   1
Atom  44C    basis set group =>   1
Atom  45C    basis set group =>   1
Atom  46C    basis set group =>   1
Atom  47C    basis set group =>   1
Atom  48C    basis set group =>   1
Atom  49C    basis set group =>   1
Atom  50C    basis set group =>   1
Atom  51C    basis set group =>   1
Atom  52C    basis set group =>   1
Atom  53C    basis set group =>   1
Atom  54C    basis set group =>   1
Atom  55C    basis set group =>   1
Atom  56C    basis set group =>   1
Atom  57C    basis set group =>   1
Atom  58C    basis set group =>   1
Atom  59C    basis set group =>   1
Atom  60S    basis set group =>   3
Atom  61C    basis set group =>   1
Atom  62C    basis set group =>   1
Atom  63C    basis set group =>   1
Atom  64C    basis set group =>   1
Atom  65S    basis set group =>   3
Atom  66C    basis set group =>   1
Atom  67C    basis set group =>   1
Atom  68C    basis set group =>   1
Atom  69C    basis set group =>   1
Atom  70O    basis set group =>   4
Atom  71C    basis set group =>   1
Atom  72C    basis set group =>   1
Atom  73C    basis set group =>   1
Atom  74O    basis set group =>   4
Atom  75C    basis set group =>   1
Atom  76C    basis set group =>   1
Atom  77H    basis set group =>   5
Atom  78H    basis set group =>   5
Atom  79H    basis set group =>   5
Atom  80H    basis set group =>   5
Atom  81H    basis set group =>   5
Atom  82H    basis set group =>   5
Atom  83H    basis set group =>   5
Atom  84H    basis set group =>   5
Atom  85H    basis set group =>   5
Atom  86H    basis set group =>   5
Atom  87H    basis set group =>   5
Atom  88H    basis set group =>   5
Atom  89H    basis set group =>   5
Atom  90H    basis set group =>   5
Atom  91H    basis set group =>   5
Atom  92H    basis set group =>   5
Atom  93H    basis set group =>   5
Atom  94H    basis set group =>   5
Atom  95H    basis set group =>   5
Atom  96H    basis set group =>   5
Atom  97H    basis set group =>   5
Atom  98H    basis set group =>   5
Atom  99H    basis set group =>   5
Atom 100H    basis set group =>   5
Atom 101H    basis set group =>   5
Atom 102H    basis set group =>   5
Atom 103H    basis set group =>   5
Atom 104H    basis set group =>   5
Atom 105H    basis set group =>   5
Atom 106H    basis set group =>   5
Atom 107H    basis set group =>   5
Atom 108H    basis set group =>   5
Atom 109H    basis set group =>   5
Atom 110H    basis set group =>   5
Atom 111H    basis set group =>   5
Atom 112H    basis set group =>   5
Atom 113H    basis set group =>   5
Atom 114H    basis set group =>   5
Atom 115H    basis set group =>   5
Atom 116H    basis set group =>   5
Atom 117H    basis set group =>   5
Atom 118H    basis set group =>   5
---------------------------------
AUXILIARY/J BASIS SET INFORMATION
---------------------------------
There are 5 groups of distinct atoms

 Group   1 Type C   : 12s5p4d2f1g contracted to 6s4p3d1f1g pattern {711111/2111/211/2/1}
 Group   2 Type N   : 12s5p4d2f1g contracted to 6s4p3d1f1g pattern {711111/2111/211/2/1}
 Group   3 Type S   : 14s5p5d2f1g contracted to 8s4p3d1f1g pattern {71111111/2111/311/2/1}
 Group   4 Type O   : 12s5p4d2f1g contracted to 6s4p3d1f1g pattern {711111/2111/211/2/1}
 Group   5 Type H   : 5s2p1d contracted to 3s1p1d pattern {311/2/1}

Atom   0C    basis set group =>   1
Atom   1C    basis set group =>   1
Atom   2C    basis set group =>   1
Atom   3N    basis set group =>   2
Atom   4C    basis set group =>   1
Atom   5N    basis set group =>   2
Atom   6C    basis set group =>   1
Atom   7C    basis set group =>   1
Atom   8C    basis set group =>   1
Atom   9C    basis set group =>   1
Atom  10C    basis set group =>   1
Atom  11C    basis set group =>   1
Atom  12S    basis set group =>   3
Atom  13C    basis set group =>   1
Atom  14C    basis set group =>   1
Atom  15C    basis set group =>   1
Atom  16O    basis set group =>   4
Atom  17C    basis set group =>   1
Atom  18C    basis set group =>   1
Atom  19C    basis set group =>   1
Atom  20C    basis set group =>   1
Atom  21C    basis set group =>   1
Atom  22N    basis set group =>   2
Atom  23C    basis set group =>   1
Atom  24C    basis set group =>   1
Atom  25N    basis set group =>   2
Atom  26C    basis set group =>   1
Atom  27N    basis set group =>   2
Atom  28C    basis set group =>   1
Atom  29N    basis set group =>   2
Atom  30C    basis set group =>   1
Atom  31C    basis set group =>   1
Atom  32C    basis set group =>   1
Atom  33N    basis set group =>   2
Atom  34S    basis set group =>   3
Atom  35N    basis set group =>   2
Atom  36C    basis set group =>   1
Atom  37C    basis set group =>   1
Atom  38C    basis set group =>   1
Atom  39C    basis set group =>   1
Atom  40C    basis set group =>   1
Atom  41C    basis set group =>   1
Atom  42C    basis set group =>   1
Atom  43C    basis set group =>   1
Atom  44C    basis set group =>   1
Atom  45C    basis set group =>   1
Atom  46C    basis set group =>   1
Atom  47C    basis set group =>   1
Atom  48C    basis set group =>   1
Atom  49C    basis set group =>   1
Atom  50C    basis set group =>   1
Atom  51C    basis set group =>   1
Atom  52C    basis set group =>   1
Atom  53C    basis set group =>   1
Atom  54C    basis set group =>   1
Atom  55C    basis set group =>   1
Atom  56C    basis set group =>   1
Atom  57C    basis set group =>   1
Atom  58C    basis set group =>   1
Atom  59C    basis set group =>   1
Atom  60S    basis set group =>   3
Atom  61C    basis set group =>   1
Atom  62C    basis set group =>   1
Atom  63C    basis set group =>   1
Atom  64C    basis set group =>   1
Atom  65S    basis set group =>   3
Atom  66C    basis set group =>   1
Atom  67C    basis set group =>   1
Atom  68C    basis set group =>   1
Atom  69C    basis set group =>   1
Atom  70O    basis set group =>   4
Atom  71C    basis set group =>   1
Atom  72C    basis set group =>   1
Atom  73C    basis set group =>   1
Atom  74O    basis set group =>   4
Atom  75C    basis set group =>   1
Atom  76C    basis set group =>   1
Atom  77H    basis set group =>   5
Atom  78H    basis set group =>   5
Atom  79H    basis set group =>   5
Atom  80H    basis set group =>   5
Atom  81H    basis set group =>   5
Atom  82H    basis set group =>   5
Atom  83H    basis set group =>   5
Atom  84H    basis set group =>   5
Atom  85H    basis set group =>   5
Atom  86H    basis set group =>   5
Atom  87H    basis set group =>   5
Atom  88H    basis set group =>   5
Atom  89H    basis set group =>   5
Atom  90H    basis set group =>   5
Atom  91H    basis set group =>   5
Atom  92H    basis set group =>   5
Atom  93H    basis set group =>   5
Atom  94H    basis set group =>   5
Atom  95H    basis set group =>   5
Atom  96H    basis set group =>   5
Atom  97H    basis set group =>   5
Atom  98H    basis set group =>   5
Atom  99H    basis set group =>   5
Atom 100H    basis set group =>   5
Atom 101H    basis set group =>   5
Atom 102H    basis set group =>   5
Atom 103H    basis set group =>   5
Atom 104H    basis set group =>   5
Atom 105H    basis set group =>   5
Atom 106H    basis set group =>   5
Atom 107H    basis set group =>   5
Atom 108H    basis set group =>   5
Atom 109H    basis set group =>   5
Atom 110H    basis set group =>   5
Atom 111H    basis set group =>   5
Atom 112H    basis set group =>   5
Atom 113H    basis set group =>   5
Atom 114H    basis set group =>   5
Atom 115H    basis set group =>   5
Atom 116H    basis set group =>   5
Atom 117H    basis set group =>   5
Atom 118H    basis set group =>   5


           ************************************************************
           *        Program running with 6 parallel MPI-processes     *
           *              working on a common directory               *
           ************************************************************
------------------------------------------------------------------------------
                           ORCA GTO INTEGRAL CALCULATION
                           -- RI-GTO INTEGRALS CHOSEN --
------------------------------------------------------------------------------

                         BASIS SET STATISTICS AND STARTUP INFO

Gaussian basis set:
 # of primitive gaussian shells          ... 1158
 # of primitive gaussian functions       ... 2190
 # of contracted shells                  ...  596
 # of contracted basis functions         ... 1304
 Highest angular momentum                ...    2
 Maximum contraction depth               ...    5
Auxiliary gaussian basis set:
 # of primitive gaussian shells          ... 2196
 # of primitive gaussian functions       ... 6090
 # of contracted shells                  ... 1373
 # of contracted aux-basis functions     ... 4243
 Highest angular momentum                ...    4
 Maximum contraction depth               ...    7
Ratio of auxiliary to basis functions    ...  3.25
Integral package used                  ... LIBINT
 One Electron integrals                  ... done
 Ordering auxiliary basis shells         ... done
 Integral threshhold             Thresh  ...  2.500e-11
 Primitive cut-off               TCut    ...  2.500e-12
 Pre-screening matrix                    ... done
 Shell pair data                         ... 
 Ordering of the shell pairs             ... done (   0.011 sec) 51077 of 177906 pairs
 Determination of significant pairs      ... done (   0.000 sec)
 Creation of shell pair data             ... done (   0.007 sec)
 Storage of shell pair data              ... done (   0.011 sec)
 Shell pair data done in (   0.029 sec)
 Computing two index integrals           ... done
 Cholesky decomposition of the V-matrix  ... done


Timings:
 Total evaluation time                   ...   2.815 sec (  0.047 min)
 One electron matrix time                ...   0.752 sec (  0.013 min) = 26.7%
 Schwartz matrix evaluation time         ...   0.820 sec (  0.014 min) = 29.1%
 Two index repulsion integral time       ...   0.437 sec (  0.007 min) = 15.5%
 Cholesky decomposition of V             ...   0.759 sec (  0.013 min) = 27.0%
 Three index repulsion integral time     ...   0.000 sec (  0.000 min) =  0.0%



           ************************************************************
           *        Program running with 6 parallel MPI-processes     *
           *              working on a common directory               *
           ************************************************************
-------------------------------------------------------------------------------
                                 ORCA SCF
-------------------------------------------------------------------------------

------------
SCF SETTINGS
------------
Hamiltonian:
 Density Functional     Method          .... DFT(GTOs)
 Exchange Functional    Exchange        .... WB88
 Correlation Functional Correlation     .... LYP
 LDA part of GGA corr.  LDAOpt          .... VWN-5
 Gradients option       PostSCFGGA      .... off
 Hybrid DFT is turned on
   Fraction HF Exchange ScalHFX         ....  0.190000
   Scaling of DF-GGA-X  ScalDFX         ....  0.350000
   Scaling of DF-GGA-C  ScalDFC         ....  0.810000
   Scaling of DF-LDA-C  ScalLDAC        ....  1.000000
   Perturbative correction              ....  0.000000
   Density functional embedding theory  .... OFF
 Long-range corrected/Screened/Range-Separated Hybrid DFT is turned on
   Amount of maximum screened exact exchange              ....  0.460000
   Range separation parameter mu (erf(mu*r12)/r12)        ....  0.330000
 RI-approximation to the Coulomb term is turned on
   Number of auxiliary basis functions  .... 4243
   RIJ-COSX (HFX calculated with COS-X)).... on


General Settings:
 Integral files         IntName         .... xtbopt
 Hartree-Fock type      HFTyp           .... RHF
 Total Charge           Charge          ....    0
 Multiplicity           Mult            ....    1
 Number of Electrons    NEL             ....  558
 Basis Dimension        Dim             .... 1304
 Nuclear Repulsion      ENuc            ....  11332.5460777186 Eh

Convergence Acceleration:
 DIIS                   CNVDIIS         .... on
   Start iteration      DIISMaxIt       ....    12
   Startup error        DIISStart       ....  0.200000
   # of expansion vecs  DIISMaxEq       ....     5
   Bias factor          DIISBfac        ....   1.050
   Max. coefficient     DIISMaxC        ....  10.000
 Newton-Raphson         CNVNR           .... off
 SOSCF                  CNVSOSCF        .... on
   Start iteration      SOSCFMaxIt      ....   150
   Startup grad/error   SOSCFStart      ....  0.003300
 Level Shifting         CNVShift        .... on
   Level shift para.    LevelShift      ....    0.2500
   Turn off err/grad.   ShiftErr        ....    0.0010
 Zerner damping         CNVZerner       .... off
 Static damping         CNVDamp         .... on
   Fraction old density DampFac         ....    0.7000
   Max. Damping (<1)    DampMax         ....    0.9800
   Min. Damping (>=0)   DampMin         ....    0.0000
   Turn off err/grad.   DampErr         ....    0.1000
 Fernandez-Rico         CNVRico         .... off

SCF Procedure:
 Maximum # iterations   MaxIter         ....   125
 SCF integral mode      SCFMode         .... Direct
   Integral package                     .... LIBINT
 Reset frequency        DirectResetFreq ....    20
 Integral Threshold     Thresh          ....  2.500e-11 Eh
 Primitive CutOff       TCut            ....  2.500e-12 Eh

Convergence Tolerance:
 Convergence Check Mode ConvCheckMode   .... Total+1el-Energy
 Convergence forced     ConvForced      .... 1
 Energy Change          TolE            ....  1.000e-08 Eh
 1-El. energy change                    ....  1.000e-05 Eh
 Orbital Gradient       TolG            ....  1.000e-05
 Orbital Rotation angle TolX            ....  1.000e-05
 DIIS Error             TolErr          ....  5.000e-07


Diagonalization of the overlap matrix:
Smallest eigenvalue                        ... 1.058e-04
Time for diagonalization                   ...    0.279 sec
Threshold for overlap eigenvalues          ... 1.000e-08
Number of eigenvalues below threshold      ... 0
Time for construction of square roots      ...    0.187 sec
Total time needed                          ...    0.471 sec

-------------------
DFT GRID GENERATION
-------------------

General Integration Accuracy     IntAcc      ...  4.670
Radial Grid Type                 RadialGrid  ... Gauss-Chebyshev
Angular Grid (max. acc.)         AngularGrid ... Lebedev-302
Angular grid pruning method      GridPruning ... 3 (G Style)
Weight generation scheme         WeightScheme... Becke
Basis function cutoff            BFCut       ...    1.0000e-11
Integration weight cutoff        WCut        ...    1.0000e-14
Grids for H and He will be reduced by one unit

# of grid points (after initial pruning)     ... 623408 (   0.0 sec)
# of grid points (after weights+screening)   ... 532170 (   9.5 sec)
nearest neighbour list constructed           ...    0.0 sec
Grid point re-assignment to atoms done       ...    0.1 sec
Grid point division into batches done        ...    1.9 sec
Reduced shell lists constructed in    3.1 sec

Total number of grid points                  ...   532170
Total number of batches                      ...     8372
Average number of points per batch           ...       63
Average number of grid points per atom       ...     4472
Average number of shells per batch           ...    86.67 (14.54%)
Average number of basis functions per batch  ...   187.30 (14.36%)
Average number of large shells per batch     ...    54.01 (62.32%)
Average number of large basis fcns per batch ...   118.16 (63.09%)
Maximum spatial batch extension              ...  15.94, 17.23, 21.31 au
Average spatial batch extension              ...   0.33,  0.34,  0.38 au

Time for grid setup =   13.331 sec

------------------------------
INITIAL GUESS: MODEL POTENTIAL
------------------------------
Loading Hartree-Fock densities                     ... done
Calculating cut-offs                               ... done
Setting up the integral package                    ... done
Initializing the effective Hamiltonian             ... done
Starting the Coulomb interaction                   ... done (   1.7 sec)
Reading the grid                                   ... done
Mapping shells                                     ... done
Starting the XC term evaluation                    ... done (   1.7 sec)
  promolecular density results
     # of electrons  =    557.978669495
     EX              =   -506.103775261
     EC              =    -19.219456841
     EX+EC           =   -525.323232102
Transforming the Hamiltonian                       ... done (   0.1 sec)
Diagonalizing the Hamiltonian                      ... done (   0.3 sec)
Back transforming the eigenvectors                 ... done (   0.1 sec)
Now organizing SCF variables                       ... done
                      ------------------
                      INITIAL GUESS DONE (  17.3 sec)
                      ------------------
--------------------
COSX GRID GENERATION
--------------------

General Integration Accuracy     IntAcc      ...  3.340
Radial Grid Type                 RadialGrid  ... Gauss-Chebyshev
Angular Grid (max. acc.)         AngularGrid ... Lebedev-50
Angular grid pruning method      GridPruning ... 3 (G Style)
Weight generation scheme         WeightScheme... Becke
Basis function cutoff            BFCut       ...    1.0000e-11
Integration weight cutoff        WCut        ...    1.0000e-14
Grids for H and He will be reduced by one unit

# of grid points (after initial pruning)     ...  58492 (   0.0 sec)
# of grid points (after weights+screening)   ...  52135 (   0.9 sec)
nearest neighbour list constructed           ...    0.0 sec
Grid point re-assignment to atoms done       ...    0.0 sec
Grid point division into batches done        ...    0.0 sec
Reduced shell lists constructed in    0.2 sec

Total number of grid points                  ...    52135
Total number of batches                      ...      885
Average number of points per batch           ...       58
Average number of grid points per atom       ...      438
Average number of shells per batch           ...   104.34 (17.51%)
Average number of basis functions per batch  ...   227.33 (17.43%)
Average number of large shells per batch     ...    65.11 (62.41%)
Average number of large basis fcns per batch ...   144.42 (63.53%)
Maximum spatial batch extension              ...  16.95, 17.17, 29.44 au
Average spatial batch extension              ...   0.61,  0.64,  0.87 au

Overlap Fitting                  UseSFitting ... on
Constructing numerical overlap ... done (      0.1 sec)
Inverting numerical overlap    ... done (      0.1 sec)
Obtaining analytic overlap     ... done (      0.0 sec)
Final contraction and storage  ... done (      0.1 sec)


General Integration Accuracy     IntAcc      ...  3.670
Radial Grid Type                 RadialGrid  ... Gauss-Chebyshev
Angular Grid (max. acc.)         AngularGrid ... Lebedev-50
Angular grid pruning method      GridPruning ... 3 (G Style)
Weight generation scheme         WeightScheme... Becke
Basis function cutoff            BFCut       ...    1.0000e-11
Integration weight cutoff        WCut        ...    1.0000e-14
Grids for H and He will be reduced by one unit

# of grid points (after initial pruning)     ...  73402 (   0.0 sec)
# of grid points (after weights+screening)   ...  65127 (   1.1 sec)
nearest neighbour list constructed           ...    0.0 sec
Grid point re-assignment to atoms done       ...    0.0 sec
Grid point division into batches done        ...    0.0 sec
Reduced shell lists constructed in    0.2 sec

Total number of grid points                  ...    65127
Total number of batches                      ...     1072
Average number of points per batch           ...       60
Average number of grid points per atom       ...      547
Average number of shells per batch           ...   103.01 (17.28%)
Average number of basis functions per batch  ...   224.33 (17.20%)
Average number of large shells per batch     ...    64.03 (62.16%)
Average number of large basis fcns per batch ...   141.89 (63.25%)
Maximum spatial batch extension              ...  17.97, 17.86, 19.59 au
Average spatial batch extension              ...   0.57,  0.61,  0.82 au

Overlap Fitting                  UseSFitting ... on
Constructing numerical overlap ... done (      0.1 sec)
Inverting numerical overlap    ... done (      0.1 sec)
Obtaining analytic overlap     ... done (      0.0 sec)
Final contraction and storage  ... done (      0.1 sec)


General Integration Accuracy     IntAcc      ...  4.010
Radial Grid Type                 RadialGrid  ... Gauss-Chebyshev
Angular Grid (max. acc.)         AngularGrid ... Lebedev-110
Angular grid pruning method      GridPruning ... 3 (G Style)
Weight generation scheme         WeightScheme... Becke
Basis function cutoff            BFCut       ...    1.0000e-11
Integration weight cutoff        WCut        ...    1.0000e-14
Grids for H and He will be reduced by one unit

# of grid points (after initial pruning)     ... 141610 (   0.0 sec)
# of grid points (after weights+screening)   ... 124611 (   2.2 sec)
nearest neighbour list constructed           ...    0.0 sec
Grid point re-assignment to atoms done       ...    0.0 sec
Grid point division into batches done        ...    0.1 sec
Reduced shell lists constructed in    0.4 sec

Total number of grid points                  ...   124611
Total number of batches                      ...     2008
Average number of points per batch           ...       62
Average number of grid points per atom       ...     1047
Average number of shells per batch           ...    95.67 (16.05%)
Average number of basis functions per batch  ...   207.88 (15.94%)
Average number of large shells per batch     ...    59.81 (62.51%)
Average number of large basis fcns per batch ...   131.77 (63.39%)
Maximum spatial batch extension              ...  19.64, 18.63, 26.38 au
Average spatial batch extension              ...   0.49,  0.52,  0.67 au

Overlap Fitting                  UseSFitting ... on
Constructing numerical overlap ... done (      0.2 sec)
Inverting numerical overlap    ... done (      0.1 sec)
Obtaining analytic overlap     ... done (      0.0 sec)
Final contraction and storage  ... done (      0.1 sec)

Time for X-Grid setup             =    6.419 sec
--------------
SCF ITERATIONS
--------------
ITER       Energy         Delta-E        Max-DP      RMS-DP      [F,P]     Damp
               ***  Starting incremental Fock matrix formation  ***
  0  -4638.2445992708   0.000000000000 0.09637756  0.00094694  0.2396279 0.7000
  1  -4638.9275618909  -0.682962620092 0.05197427  0.00067496  0.0994360 0.7000
                               ***Turning on DIIS***
  2  -4639.2281062331  -0.300544342155 0.10141576  0.00124014  0.0417803 0.0000
  3  -4639.7102611649  -0.482154931813 0.09201803  0.00049496  0.0596720 0.0000
  4  -4639.8043905165  -0.094129351648 0.01769815  0.00015812  0.0242620 0.0000
  5  -4639.8114634274  -0.007072910867 0.00741334  0.00006470  0.0105998 0.0000
  6  -4639.8132158862  -0.001752458820 0.00353766  0.00004115  0.0027567 0.0000
  7  -4639.8139765169  -0.000760630697 0.00200843  0.00002739  0.0011188 0.0000
  8  -4639.8144234455  -0.000446928629 0.00313400  0.00006572  0.0009769 0.0000
               *** Restarting incremental Fock matrix formation ***
                                   *** Resetting DIIS ***
                      *** Initiating the SOSCF procedure ***
                           *** Shutting down DIIS ***
                      *** Re-Reading the Fockian *** 
                      *** Removing any level shift *** 
ITER      Energy       Delta-E        Grad      Rot      Max-DP    RMS-DP
  9  -4639.81494449  -0.0005210463  0.000808  0.000808  0.002049  0.000014
               *** Restarting incremental Fock matrix formation ***
 10  -4639.81498316  -0.0000386636  0.000794  0.009848  0.001618  0.000019
 11  -4639.81500920  -0.0000260404  0.000760  0.008011  0.001035  0.000015
 12  -4639.81504792  -0.0000387268  0.000114  0.000557  0.001060  0.000007
 13  -4639.81504823  -0.0000003111  0.000142  0.000536  0.000335  0.000003
 14  -4639.81505189  -0.0000036595  0.000024  0.000157  0.000256  0.000001
 15  -4639.81505186   0.0000000331  0.000032  0.000132  0.000113  0.000001
 16  -4639.81505209  -0.0000002325  0.000009  0.000071  0.000056  0.000000
 17  -4639.81505209   0.0000000043  0.000011  0.000038  0.000026  0.000000
                 **** Energy Check signals convergence ****
              ***Rediagonalizing the Fockian in SOSCF/NRSCF***

               *****************************************************
               *                     SUCCESS                       *
               *           SCF CONVERGED AFTER  18 CYCLES          *
               *****************************************************

Setting up the final grid:

General Integration Accuracy     IntAcc      ...  5.010
Radial Grid Type                 RadialGrid  ... Gauss-Chebyshev
Angular Grid (max. acc.)         AngularGrid ... Lebedev-434
Angular grid pruning method      GridPruning ... 3 (G Style)
Weight generation scheme         WeightScheme... Becke
Basis function cutoff            BFCut       ...    1.0000e-11
Integration weight cutoff        WCut        ...    1.0000e-14
Grids for H and He will be reduced by one unit

# of grid points (after initial pruning)     ... 1108546 (   0.1 sec)
# of grid points (after weights+screening)   ... 943033 (  16.4 sec)
nearest neighbour list constructed           ...    0.0 sec
Grid point re-assignment to atoms done       ...    0.1 sec
Grid point division into batches done        ...    6.1 sec
Reduced shell lists constructed in    8.1 sec

Total number of grid points                  ...   943033
Total number of batches                      ...    14799
Average number of points per batch           ...       63
Average number of grid points per atom       ...     7925
Average number of shells per batch           ...    85.14 (14.29%)
Average number of basis functions per batch  ...   183.72 (14.09%)
Average number of large shells per batch     ...    53.03 (62.29%)
Average number of large basis fcns per batch ...   115.81 (63.04%)
Maximum spatial batch extension              ...  16.96, 18.51, 19.68 au
Average spatial batch extension              ...   0.27,  0.28,  0.30 au

Final grid set up in   25.3 sec
Final integration                            ... done (   4.0 sec)
Change in XC energy                          ...    -0.000010530
Integrated number of electrons               ...   557.999775254
Previous integrated no of electrons          ...   557.999599471
Old exchange energy                            =   -141.360060986 Eh
New exchange energy                            =   -141.357167380 Eh
Exchange energy change after final integration =      0.002893606 Eh
Total energy after final integration           =  -4639.812169013 Eh
Final COS-X integration done in                =    77.199 sec

----------------
TOTAL SCF ENERGY
----------------

Total Energy       :        -4639.81216901 Eh         -126255.70783 eV

Components:
Nuclear Repulsion  :        11332.54607772 Eh          308374.25622 eV
Electronic Energy  :       -15972.35824673 Eh         -434629.96405 eV
One Electron Energy:       -28908.05506509 Eh         -786628.16972 eV
Two Electron Energy:        12935.69681836 Eh          351998.20567 eV

Virial components:
Potential Energy   :        -9247.13925042 Eh         -251627.45150 eV
Kinetic Energy     :         4607.32708141 Eh          125371.74366 eV
Virial Ratio       :            2.00705074


DFT components:
N(Alpha)           :      278.999887627185 electrons
N(Beta)            :      278.999887627185 electrons
N(Total)           :      557.999775254371 electrons
E(XC)              :     -393.010787450684 Eh       
DFET-embed. en.    :        0.000000000000 Eh       

---------------
SCF CONVERGENCE
---------------

  Last Energy change         ...   -1.3279e-10  Tolerance :   1.0000e-08
  Last MAX-Density change    ...    6.6613e-15  Tolerance :   1.0000e-07
  Last RMS-Density change    ...    3.1892e-17  Tolerance :   5.0000e-09
  Last Orbital Gradient      ...    2.6041e-06  Tolerance :   1.0000e-05
  Last Orbital Rotation      ...    2.8073e-05  Tolerance :   1.0000e-05

             **** THE GBW FILE WAS UPDATED (xtbopt.gbw) ****
             **** DENSITY FILE WAS UPDATED (xtbopt.scfp) ****
             **** ENERGY FILE WAS UPDATED (xtbopt.en.tmp) ****
             **** THE GBW FILE WAS UPDATED (xtbopt.gbw) ****
             **** DENSITY FILE WAS UPDATED (xtbopt.scfp) ****
----------------
ORBITAL ENERGIES
----------------

  NO   OCC          E(Eh)            E(eV) 
   0   2.0000     -89.047898     -2423.1165 
   1   2.0000     -88.966451     -2420.9002 
   2   2.0000     -88.938681     -2420.1445 
   3   2.0000     -88.938171     -2420.1307 
   4   2.0000     -19.225062      -523.1405 
   5   2.0000     -19.214002      -522.8396 
   6   2.0000     -19.204625      -522.5844 
   7   2.0000     -14.463656      -393.5761 
   8   2.0000     -14.462614      -393.5477 
   9   2.0000     -14.456222      -393.3738 
  10   2.0000     -14.450599      -393.2208 
  11   2.0000     -14.430153      -392.6644 
  12   2.0000     -14.427619      -392.5955 
  13   2.0000     -14.413893      -392.2220 
  14   2.0000     -14.412202      -392.1760 
  15   2.0000     -10.385329      -282.5992 
  16   2.0000     -10.379735      -282.4469 
  17   2.0000     -10.365383      -282.0564 
  18   2.0000     -10.353471      -281.7323 
  19   2.0000     -10.350385      -281.6483 
  20   2.0000     -10.344561      -281.4898 
  21   2.0000     -10.343557      -281.4625 
  22   2.0000     -10.341395      -281.4037 
  23   2.0000     -10.338619      -281.3281 
  24   2.0000     -10.329927      -281.0916 
  25   2.0000     -10.322592      -280.8920 
  26   2.0000     -10.321275      -280.8562 
  27   2.0000     -10.320327      -280.8304 
  28   2.0000     -10.316691      -280.7314 
  29   2.0000     -10.316445      -280.7247 
  30   2.0000     -10.316341      -280.7219 
  31   2.0000     -10.314943      -280.6839 
  32   2.0000     -10.314601      -280.6746 
  33   2.0000     -10.314452      -280.6705 
  34   2.0000     -10.311474      -280.5895 
  35   2.0000     -10.309022      -280.5227 
  36   2.0000     -10.308028      -280.4957 
  37   2.0000     -10.307119      -280.4710 
  38   2.0000     -10.305530      -280.4277 
  39   2.0000     -10.303924      -280.3840 
  40   2.0000     -10.302798      -280.3534 
  41   2.0000     -10.302589      -280.3477 
  42   2.0000     -10.301800      -280.3262 
  43   2.0000     -10.300089      -280.2797 
  44   2.0000     -10.299743      -280.2702 
  45   2.0000     -10.298525      -280.2371 
  46   2.0000     -10.291978      -280.0590 
  47   2.0000     -10.289628      -279.9950 
  48   2.0000     -10.289368      -279.9879 
  49   2.0000     -10.285217      -279.8750 
  50   2.0000     -10.285116      -279.8722 
  51   2.0000     -10.283400      -279.8255 
  52   2.0000     -10.281354      -279.7699 
  53   2.0000     -10.280653      -279.7508 
  54   2.0000     -10.279869      -279.7294 
  55   2.0000     -10.279833      -279.7285 
  56   2.0000     -10.279398      -279.7166 
  57   2.0000     -10.277901      -279.6759 
  58   2.0000     -10.276412      -279.6354 
  59   2.0000     -10.275462      -279.6095 
  60   2.0000     -10.274142      -279.5736 
  61   2.0000     -10.273308      -279.5509 
  62   2.0000     -10.273206      -279.5481 
  63   2.0000     -10.271896      -279.5125 
  64   2.0000     -10.271775      -279.5092 
  65   2.0000     -10.271174      -279.4928 
  66   2.0000     -10.270816      -279.4831 
  67   2.0000     -10.270220      -279.4669 
  68   2.0000     -10.269085      -279.4360 
  69   2.0000     -10.268295      -279.4145 
  70   2.0000     -10.267159      -279.3836 
  71   2.0000     -10.265007      -279.3251 
  72   2.0000     -10.263930      -279.2957 
  73   2.0000     -10.261517      -279.2301 
  74   2.0000     -10.257258      -279.1142 
  75   2.0000     -10.253313      -279.0068 
  76   2.0000     -10.247276      -278.8426 
  77   2.0000      -8.139080      -221.4756 
  78   2.0000      -8.062729      -219.3980 
  79   2.0000      -8.034976      -218.6428 
  80   2.0000      -8.034566      -218.6317 
  81   2.0000      -6.110031      -166.2624 
  82   2.0000      -6.102240      -166.0504 
  83   2.0000      -6.102149      -166.0479 
  84   2.0000      -6.032238      -164.1455 
  85   2.0000      -6.027948      -164.0288 
  86   2.0000      -6.024386      -163.9319 
  87   2.0000      -6.004737      -163.3972 
  88   2.0000      -6.004377      -163.3874 
  89   2.0000      -6.000825      -163.2907 
  90   2.0000      -6.000476      -163.2813 
  91   2.0000      -5.995736      -163.1523 
  92   2.0000      -5.995180      -163.1371 
  93   2.0000      -1.144083       -31.1321 
  94   2.0000      -1.133519       -30.8446 
  95   2.0000      -1.128021       -30.6950 
  96   2.0000      -1.122199       -30.5366 
  97   2.0000      -1.103574       -30.0298 
  98   2.0000      -1.048750       -28.5379 
  99   2.0000      -1.018612       -27.7178 
 100   2.0000      -1.013584       -27.5810 
 101   2.0000      -1.007078       -27.4040 
 102   2.0000      -1.003452       -27.3053 
 103   2.0000      -0.998181       -27.1619 
 104   2.0000      -0.991582       -26.9823 
 105   2.0000      -0.990775       -26.9604 
 106   2.0000      -0.989517       -26.9261 
 107   2.0000      -0.984809       -26.7980 
 108   2.0000      -0.979499       -26.6535 
 109   2.0000      -0.967549       -26.3283 
 110   2.0000      -0.947580       -25.7850 
[...]
  19   3.707     334.5   0.183634   0.175965  -90.112934  -83.976903     0.16 ( 111-> 116)    0.14 ( 112-> 117)    0.13 ( 111-> 117)
  20   3.746     330.9   0.760409   0.712960  -306.415500  -311.735582     0.43 ( 111-> 115)    0.24 ( 112-> 119)    0.05 ( 109-> 114)
  21   3.783     327.7   0.084756   0.079424  242.902171  235.014289     0.17 (  91-> 113)    0.16 ( 107-> 113)    0.07 ( 108-> 113)
  22   3.790     327.2   0.218033   0.201028  181.786671  172.561196     0.27 ( 109-> 114)    0.22 ( 108-> 114)    0.06 ( 106-> 114)
  23   3.889     318.8   0.065884   0.061049  152.781122  147.969697     0.24 (  91-> 113)    0.15 ( 112-> 118)    0.07 ( 106-> 114)
  24   3.978     311.7   0.235352   0.223330  -138.348826  -133.391805     0.11 ( 111-> 117)    0.09 (  98-> 113)    0.09 ( 111-> 114)
  25   4.015     308.8   0.062194   0.054614   8.395797  12.828272     0.20 ( 101-> 114)    0.10 (  99-> 113)    0.10 (  91-> 113)
  26   4.043     306.6   0.083272   0.074046  217.694193  206.185080     0.22 ( 106-> 114)    0.16 ( 101-> 116)    0.06 (  98-> 113)
  27   4.101     302.3   0.011708   0.010382  50.136372  50.033074     0.20 ( 112-> 121)    0.11 ( 110-> 115)    0.07 ( 104-> 113)
  28   4.112     301.5   0.170474   0.160714  -192.964265  -189.580760     0.18 ( 106-> 114)    0.15 ( 101-> 116)    0.08 ( 101-> 114)
  29   4.147     299.0   0.027656   0.022524   7.130818  11.748485     0.20 ( 104-> 113)    0.18 ( 112-> 121)    0.13 ( 102-> 113)
  30   4.212     294.4   0.220894   0.197809  -146.137166  -137.140087     0.33 ( 101-> 114)    0.21 ( 110-> 114)    0.10 ( 111-> 114)
  31   4.239     292.5   0.201281   0.184180  255.272387  236.795627     0.21 ( 111-> 118)    0.12 (  97-> 113)    0.12 ( 111-> 117)
  32   4.257     291.2   0.034612   0.031666  48.993068  43.282911     0.41 ( 112-> 126)    0.33 ( 112-> 127)    0.05 ( 112-> 125)
  33   4.311     287.6   0.010648   0.012352  96.200116  94.614560     0.22 ( 110-> 115)    0.14 ( 109-> 115)    0.07 ( 112-> 121)
  34   4.394     282.2   0.486232   0.431326  -172.951040  -162.406322     0.26 ( 106-> 114)    0.24 ( 109-> 116)    0.19 ( 108-> 116)
  35   4.405     281.5   0.015840   0.010866  -22.001272  -19.011837     0.59 ( 112-> 122)    0.09 ( 112-> 124)    0.07 ( 105-> 115)
  36   4.439     279.3   0.002157   0.002141  -4.412743  -2.468066     0.74 ( 103-> 113)    0.05 ( 108-> 115)    0.04 ( 109-> 115)
  37   4.480     276.8   0.001675   0.001604  -7.143104  -1.874053     0.22 ( 108-> 115)    0.21 ( 103-> 113)    0.15 ( 109-> 115)
  38   4.543     272.9   0.018820   0.016805  -3.917736  -3.280831     0.15 ( 102-> 113)    0.12 (  99-> 113)    0.09 (  97-> 113)
  39   4.606     269.2   0.007606   0.007254  63.168013  60.150815     0.17 ( 110-> 115)    0.12 ( 100-> 113)    0.09 ( 104-> 115)
  40   4.650     266.6   0.050022   0.045111  -14.850686  -15.038881     0.12 ( 105-> 114)    0.11 ( 100-> 113)    0.08 (  95-> 114)
  41   4.684     264.7   0.044227   0.038187  -31.126889  -26.517888     0.53 ( 100-> 113)    0.06 ( 112-> 120)    0.04 ( 110-> 115)
  42   4.715     263.0   0.018858   0.018330   2.056089   3.186873     0.33 ( 112-> 120)    0.11 ( 110-> 117)    0.05 ( 111-> 117)
  43   4.728     262.3   0.089630   0.083224  69.247864  58.354030     0.23 ( 110-> 116)    0.14 ( 111-> 116)    0.06 ( 105-> 114)
  44   4.764     260.3   0.012552   0.010138  11.913961  15.104311     0.14 (  92-> 113)    0.10 (  83-> 113)    0.09 (  93-> 113)
  45   4.779     259.4   0.127234   0.109908  -8.688112  -8.448442     0.18 ( 110-> 117)    0.14 ( 112-> 120)    0.07 ( 107-> 117)
  46   4.830     256.7   0.035671   0.032544  22.971504  24.739582     0.11 (  92-> 113)    0.09 ( 106-> 116)    0.07 ( 105-> 115)
  47   4.833     256.5   0.029108   0.019910   7.286156   0.756390     0.34 ( 105-> 115)    0.12 ( 112-> 122)    0.09 ( 112-> 124)
  48   4.880     254.0   0.052987   0.043874  -15.744508  -12.777928     0.16 ( 109-> 114)    0.15 ( 110-> 114)    0.14 ( 107-> 114)
  49   4.947     250.6   0.043654   0.037506  30.632112  13.908559     0.23 ( 111-> 119)    0.07 ( 110-> 118)    0.06 (  82-> 113)
  50   4.969     249.5   0.165310   0.141542   7.527951   8.287695     0.26 ( 111-> 119)    0.09 (  81-> 113)    0.06 (  82-> 113)
  51   4.999     248.0   0.144206   0.115993  -58.575059  -52.570453     0.24 ( 106-> 116)    0.11 (  92-> 113)    0.04 (  98-> 114)

-----------------------------------------------------------------------------
         ABSORPTION SPECTRUM VIA TRANSITION ELECTRIC DIPOLE MOMENTS
-----------------------------------------------------------------------------
State   Energy  Wavelength   fosc         T2         TX        TY        TZ  
        (cm-1)    (nm)                  (au**2)     (au)      (au)      (au) 
-----------------------------------------------------------------------------
   0    8680.6   1152.0   0.473542424  17.95908  -1.21944   3.88704  -1.16748
   1   14538.5    687.8   0.401427106   9.08997  -1.80442   2.41535  -0.01010
   2   17800.6    561.8   1.349195124  24.95266   2.21233   2.74758  -3.53681
   3   20595.8    485.5   0.008039768   0.12851  -0.17341   0.22267  -0.22104
   4   20736.9    482.2   0.114778010   1.82218   1.15262  -0.60751  -0.35295
   5   22689.5    440.7   0.019435267   0.28199   0.41166   0.02799   0.33429
   6   23210.2    430.8   0.014966287   0.21228  -0.37226  -0.18263   0.20087
   7   23621.9    423.3   0.014970126   0.20863   0.42827   0.15591   0.03017
   8   24495.0    408.2   0.267623044   3.59684   1.62547  -0.90893  -0.35852
   9   25486.6    392.4   0.001223483   0.01580   0.03221  -0.05535   0.10818
  10   25521.6    391.8   0.100546080   1.29698   0.69266  -0.70114  -0.57062
  11   26163.5    382.2   0.050670837   0.63758   0.66174  -0.08836  -0.43804
  12   26577.1    376.3   0.063260436   0.78361  -0.85882  -0.05027   0.20857
  13   27095.4    369.1   0.084496842   1.02664   0.75337  -0.67514  -0.05717
  14   27474.7    364.0   0.040847317   0.48945  -0.43553  -0.46696   0.28584
  15   28467.9    351.3   0.041706025   0.48230   0.56378  -0.01731  -0.40517
  16   28574.0    350.0   0.010055701   0.11586  -0.11993   0.22654   0.22394
  17   28881.1    346.2   0.029258830   0.33352  -0.10206   0.40084  -0.40302
  18   29488.7    339.1   0.025280055   0.28223  -0.40682  -0.31106  -0.14129
  19   29899.8    334.5   0.183633753   2.02190   1.33337  -0.27427  -0.41084
  20   30216.8    330.9   0.760408956   8.28464   1.83737  -2.21476   0.05936
  21   30511.9    327.7   0.084755743   0.91448  -0.23561  -0.90041  -0.21963
  22   30566.3    327.2   0.218033486   2.34831   1.27887   0.82587   0.17528
  23   31368.5    318.8   0.065884274   0.69145  -0.62486  -0.45489  -0.30673
  24   32086.9    311.7   0.235351600   2.41471  -1.08340  -0.83815   0.73380
  25   32380.6    308.8   0.062194332   0.63233   0.77710  -0.04731  -0.16187
  26   32612.3    306.6   0.083271538   0.84060  -0.39409   0.19179   0.80530
  27   33074.8    302.3   0.011708137   0.11654  -0.02780  -0.03017   0.33890
  28   33162.4    301.5   0.170473636   1.69234   1.06062   0.68716  -0.30862
  29   33450.4    299.0   0.027655970   0.27218   0.19202   0.35407  -0.33157
  30   33972.7    294.4   0.220894189   2.14057   1.32932   0.29735  -0.53392
  31   34190.4    292.5   0.201280919   1.93809  -0.47244  -0.61092   1.15830
  32   34338.1    291.2   0.034612128   0.33184   0.28440   0.31098  -0.39274
  33   34766.9    287.6   0.010647859   0.10083  -0.19082  -0.25379  -0.00214
  34   35442.0    282.2   0.486232455   4.51649  -1.36715  -1.59979  -0.29676
  35   35528.7    281.5   0.015840131   0.14678   0.05585   0.37837  -0.02228
  36   35806.3    279.3   0.002156902   0.01983   0.03338   0.13146   0.03787
  37   36129.9    276.8   0.001674742   0.01526   0.07756   0.06205   0.07345
  38   36639.4    272.9   0.018820295   0.16910  -0.33106   0.20610  -0.13048
  39   37150.9    269.2   0.007606322   0.06740  -0.21345   0.04288  -0.14143
  40   37502.9    266.6   0.050021906   0.43911  -0.46392  -0.17583   0.43929
  41   37781.1    264.7   0.044227202   0.38538   0.47745   0.27779  -0.28330
  42   38028.9    263.0   0.018858121   0.16325   0.09606  -0.00564  -0.39242
  43   38129.9    262.3   0.089630004   0.77386  -0.52316  -0.41287   0.57419
  44   38421.4    260.3   0.012552202   0.10755  -0.22183  -0.23707   0.04627
  45   38544.5    259.4   0.127234428   1.08672  -0.83931  -0.04536   0.61663
  46   38957.6    256.7   0.035670634   0.30144  -0.39277   0.36313  -0.12370
  47   38983.7    256.5   0.029108219   0.24581   0.28815  -0.19431  -0.35359
  48   39362.8    254.0   0.052987400   0.44316  -0.63095  -0.02620   0.21067
  49   39896.7    250.6   0.043653789   0.36021   0.15910   0.52428  -0.24500
  50   40074.2    249.5   0.165309942   1.35803   0.58863  -1.00511  -0.03605
  51   40316.2    248.0   0.144205628   1.17755   0.40789  -1.00101  -0.09567

-----------------------------------------------------------------------------
         ABSORPTION SPECTRUM VIA TRANSITION VELOCITY DIPOLE MOMENTS
-----------------------------------------------------------------------------
State   Energy  Wavelength   fosc         P2         PX        PY        PZ  
        (cm-1)    (nm)                  (au**2)     (au)      (au)      (au) 
-----------------------------------------------------------------------------
   0    8680.6   1152.0   0.805782611   0.04781  -0.06242   0.20092  -0.05949
   1   14538.5    687.8   0.605107143   0.06013  -0.14299   0.19919  -0.00190
   2   17800.6    561.8   1.831080037   0.22277   0.21099   0.25829  -0.33397
   3   20595.8    485.5   0.008765890   0.00123  -0.01546   0.02244  -0.02217
   4   20736.9    482.2   0.121066469   0.01716   0.11263  -0.05641  -0.03595
   5   22689.5    440.7   0.020581391   0.00319   0.04482   0.00328   0.03423
   6   23210.2    430.8   0.013527930   0.00215  -0.03836  -0.01776   0.01895
   7   23621.9    423.3   0.017247676   0.00278   0.04903   0.01931   0.00276
   8   24495.0    408.2   0.276209094   0.04624   0.18466  -0.10237  -0.04078
   9   25486.6    392.4   0.000856751   0.00015   0.00437  -0.00573   0.00987
  10   25521.6    391.8   0.105009238   0.01832   0.08112  -0.08514  -0.06699
  11   26163.5    382.2   0.053083152   0.00949   0.08041  -0.01756  -0.05214
  12   26577.1    376.3   0.061310804   0.01114  -0.10332  -0.01051   0.01873
  13   27095.4    369.1   0.074086670   0.01372   0.08711  -0.07759  -0.01053
  14   27474.7    364.0   0.038752701   0.00728  -0.05009  -0.05674   0.03935
  15   28467.9    351.3   0.040896984   0.00796   0.07282  -0.00305  -0.05143
  16   28574.0    350.0   0.008745157   0.00171  -0.01355   0.02843   0.02676
  17   28881.1    346.2   0.023397945   0.00462  -0.01251   0.04636  -0.04810
  18   29488.7    339.1   0.024274002   0.00489  -0.05294  -0.04303  -0.01544
  19   29899.8    334.5   0.175965368   0.03596   0.17745  -0.04025  -0.05337
  20   30216.8    330.9   0.712960273   0.14724   0.24784  -0.29292   0.00342
  21   30511.9    327.7   0.079423824   0.01656  -0.03070  -0.12109  -0.03092
  22   30566.3    327.2   0.201027820   0.04200   0.16790   0.11484   0.02486
  23   31368.5    318.8   0.061048714   0.01309  -0.08663  -0.06281  -0.04049
  24   32086.9    311.7   0.223330247   0.04898  -0.15217  -0.12136   0.10532
  25   32380.6    308.8   0.054613705   0.01209   0.10667  -0.01075  -0.02432
  26   32612.3    306.6   0.074045966   0.01650  -0.05418   0.02511   0.11375
  27   33074.8    302.3   0.010382253   0.00235  -0.00355  -0.00283   0.04823
  28   33162.4    301.5   0.160714299   0.03643   0.15730   0.09864  -0.04420
  29   33450.4    299.0   0.022524488   0.00515   0.02814   0.04586  -0.04748
  30   33972.7    294.4   0.197808788   0.04593   0.19507   0.04225  -0.07804
  31   34190.4    292.5   0.184179678   0.04304  -0.07222  -0.09134   0.17169
  32   34338.1    291.2   0.031665684   0.00743   0.04336   0.04777  -0.05718
  33   34766.9    287.6   0.012352413   0.00294  -0.03184  -0.04330   0.00684
  34   35442.0    282.2   0.431326019   0.10448  -0.20523  -0.24566  -0.04485
  35   35528.7    281.5   0.010866238   0.00264   0.00792   0.05072  -0.00195
  36   35806.3    279.3   0.002141151   0.00052   0.00647   0.02171   0.00332
  37   36129.9    276.8   0.001604014   0.00040   0.01422   0.01192   0.00719
  38   36639.4    272.9   0.016804844   0.00421  -0.05106   0.03579  -0.01789
  39   37150.9    269.2   0.007253522   0.00184  -0.03620   0.00822  -0.02153
  40   37502.9    266.6   0.045111466   0.01156  -0.07613  -0.02772   0.07070
  41   37781.1    264.7   0.038186889   0.00986   0.07941   0.03916  -0.04496
  42   38028.9    263.0   0.018329521   0.00476   0.01890  -0.00337  -0.06630
  43   38129.9    262.3   0.083223827   0.02169  -0.08674  -0.07276   0.09418
  44   38421.4    260.3   0.010137656   0.00266  -0.03350  -0.03735   0.01203
  45   38544.5    259.4   0.109908273   0.02895  -0.13434  -0.01169   0.10378
  46   38957.6    256.7   0.032544299   0.00867  -0.07059   0.05810  -0.01747
  47   38983.7    256.5   0.019910415   0.00530   0.04587  -0.02957  -0.04824
  48   39362.8    254.0   0.043874112   0.01180  -0.10264  -0.00293   0.03548
  49   39896.7    250.6   0.037506034   0.01023   0.02103   0.09249  -0.03508
  50   40074.2    249.5   0.141542423   0.03877   0.10261  -0.16789  -0.00708
  51   40316.2    248.0   0.115992624   0.03196   0.06764  -0.16469  -0.01618

-------------------------------------------------------------------
                             CD SPECTRUM
-------------------------------------------------------------------
State   Energy Wavelength       R         MX        MY        MZ   
        (cm-1)   (nm)       (1e40*cgs)   (au)      (au)      (au)  
-------------------------------------------------------------------
   0    8680.6   1152.0     57.04869   1.67969   1.47946   3.37861
   1   14538.5    687.8    -15.28378   0.33722   0.28700   1.96986
   2   17800.6    561.8    -55.04210   9.29207   8.09780  12.03710
   3   20595.8    485.5     58.07221   1.02483   0.83893   1.15568
   4   20736.9    482.2    -59.73268   0.70923   0.66918   0.44634
   5   22689.5    440.7     53.23621  -0.41380  -0.51737  -0.12271
   6   23210.2    430.8    -37.76911  -0.28235  -0.34487  -0.03914
   7   23621.9    423.3     19.62889  -0.14926  -0.17545   0.26547
   8   24495.0    408.2    -68.78490   0.50102   0.56347   0.02911
   9   25486.6    392.4     22.46422  -1.02929  -0.79672  -0.98210
  10   25521.6    391.8    135.52313   1.48599   1.33807   1.16722
  11   26163.5    382.2    -31.20750   1.76181   1.54259   2.04812
  12   26577.1    376.3    -158.06439  -1.03121  -0.66052  -1.19038
  13   27095.4    369.1      3.86620   0.12793   0.19866  -0.37342
  14   27474.7    364.0    -41.63114  -0.28665  -0.55758  -0.72978
  15   28467.9    351.3     14.16430   0.37424   0.64065   0.64168
  16   28574.0    350.0     34.11332  -0.53611  -0.52070  -0.40658
  17   28881.1    346.2    -16.18373   0.05272   0.35267   0.16706
  18   29488.7    339.1     45.22127   0.35729   0.16946  -0.04405
  19   29899.8    334.5    -90.11293   0.82968   1.00559   1.09090
  20   30216.8    330.9    -306.41550   2.65404   1.63097   0.60047
  21   30511.9    327.7    242.90217   0.84512   0.77316   0.61548
  22   30566.3    327.2    181.78667  -0.49171  -0.34588   0.81753
  23   31368.5    318.8    152.78112   0.56195   0.66442  -0.01705
  24   32086.9    311.7    -138.34883  -0.93966  -1.52765  -2.33239
  25   32380.6    308.8      8.39580   0.10408   0.44632   0.58928
  26   32612.3    306.6    217.69419  -0.75081  -0.79893  -1.32395
  27   33074.8    302.3     50.13637  -0.79184  -0.94977  -0.77709
  28   33162.4    301.5    -192.96427   0.77041   0.54371   1.20573
  29   33450.4    299.0      7.13082   0.71405   0.76990   1.32691
  30   33972.7    294.4    -146.13717   0.88198   1.02677   1.60656
  31   34190.4    292.5    255.27239  -1.11543  -2.02071  -2.45567
  32   34338.1    291.2     48.99307  -0.01581   0.62601   1.01345
  33   34766.9    287.6     96.20012   1.45717   0.50657   0.69404
  34   35442.0    282.2    -172.95104  -0.20869  -0.17001  -0.59450
  35   35528.7    281.5    -22.00127   0.44521   0.20103   0.34065
  36   35806.3    279.3     -4.41274  -0.30826   0.11384   0.37089
  37   36129.9    276.8     -7.14310  -0.44068   0.21622   0.69531
  38   36639.4    272.9     -3.91774   0.05304   0.04591  -0.18943
  39   37150.9    269.2     63.16801   0.93870   0.63880   0.67174
  40   37502.9    266.6    -14.85069  -0.99335  -1.20346  -1.38732
  41   37781.1    264.7    -31.12689   0.77981   0.90082   1.73138
  42   38028.9    263.0      2.05609   0.06502   0.43173   0.03194
  43   38129.9    262.3     69.24786  -0.62284  -0.91024  -1.73361
  44   38421.4    260.3     11.91396  -0.05021   0.12919  -0.67109
  45   38544.5    259.4     -8.68811  -0.61551  -1.07449  -0.85706
  46   38957.6    256.7     22.97150   0.43750   0.25676   0.15240
  47   38983.7    256.5      7.28616   0.99076   0.93163   0.38285
  48   39362.8    254.0    -15.74451  -0.25805  -0.40104  -0.50567
  49   39896.7    250.6     30.63211   0.41943   0.49455   1.86105
  50   40074.2    249.5      7.52795  -0.48172  -0.21708  -0.92729
  51   40316.2    248.0    -58.57506  -0.42980  -0.35536  -0.71174

sTD-DFT done

Total run time:        4.999 sec

           *** ORCA-CIS/TD-DFT FINISHED WITHOUT ERROR ***

-------------------------   --------------------
FINAL SINGLE POINT ENERGY     -4639.812169013001
-------------------------   --------------------


                            ***************************************
                            *     ORCA property calculations      *
                            ***************************************

                                    ---------------------
                                    Active property flags
                                    ---------------------
   (+) Dipole Moment


------------------------------------------------------------------------------
                       ORCA ELECTRIC PROPERTIES CALCULATION
------------------------------------------------------------------------------

Dipole Moment Calculation                       ... on
Quadrupole Moment Calculation                   ... off
Polarizability Calculation                      ... off
GBWName                                         ... xtbopt.gbw
Electron density file                           ... xtbopt.scfp
The origin for moment calculation is the CENTER OF MASS  = (-10.335825, 14.290667 -4.566935)

-------------
DIPOLE MOMENT
-------------
                                X             Y             Z
Electronic contribution:     13.05889    -139.44202      86.76991
Nuclear contribution   :    -10.87444     144.79402     -88.74396
                        -----------------------------------------
Total Dipole Moment    :      2.18445       5.35200      -1.97405
                        -----------------------------------------
Magnitude (a.u.)       :      6.10841
Magnitude (Debye)      :     15.52634



--------------------
Rotational spectrum 
--------------------
 
Rotational constants in cm-1:     0.000798     0.000253     0.000203 
Rotational constants in MHz :    23.911085     7.574117     6.070975 

 Dipole components along the rotational axes: 
x,y,z [a.u.] :    -5.112895     2.556325    -2.153175 
x,y,z [Debye]:   -12.995946     6.497663    -5.472936 

 

Timings for individual modules:

Sum of individual times         ...      848.680 sec (=  14.145 min)
GTO integral calculation        ...        3.545 sec (=   0.059 min)   0.4 %
SCF iterations                  ...      839.402 sec (=  13.990 min)  98.9 %
CIS module                      ...        5.733 sec (=   0.096 min)   0.7 %
                             ****ORCA TERMINATED NORMALLY****
TOTAL RUN TIME: 0 days 0 hours 14 minutes 9 seconds 804 msec
