
                                 *****************
                                 * O   R   C   A *
                                 *****************

           --- An Ab Initio, DFT and Semiempirical electronic structure package ---

                  #######################################################
                  #                        -***-                        #
                  #          Department of theory and spectroscopy      #
                  #               Directorship: Frank Neese             #
                  #        Max Planck Institute fuer Kohlenforschung    #
                  #                Kaiser Wilhelm Platz 1               #
                  #                 D-45470 Muelheim/Ruhr               #
                  #                      Germany                        #
                  #                                                     #
                  #                  All rights reserved                #
                  #                        -***-                        #
                  #######################################################


                         Program Version 4.2.0 -  RELEASE  -


 With contributions from (in alphabetic order):
   Daniel Aravena         : Magnetic Suceptibility
   Michael Atanasov       : Ab Initio Ligand Field Theory (pilot matlab implementation)
   Alexander A. Auer      : GIAO ZORA, VPT2
   Ute Becker             : Parallelization
   Giovanni Bistoni       : ED, misc. LED, open-shell LED, HFLED
   Martin Brehm           : Molecular dynamics
   Dmytro Bykov           : SCF Hessian
   Vijay G. Chilkuri      : MRCI spin determinant printing, contributions to CSF-ICE
   Dipayan Datta          : RHF DLPNO-CCSD density
   Achintya Kumar Dutta   : EOM-CC, STEOM-CC
   Dmitry Ganyushin       : Spin-Orbit,Spin-Spin,Magnetic field MRCI
   Miquel Garcia          : C-PCM Hessian, Gaussian charge scheme
   Yang Guo               : DLPNO-NEVPT2, CIM, IAO-localization
   Andreas Hansen         : Spin unrestricted coupled pair/coupled cluster methods
   Benjamin Helmich-Paris : CASSCF linear response (MC-RPA)
   Lee Huntington         : MR-EOM, pCC
   Robert Izsak           : Overlap fitted RIJCOSX, COSX-SCS-MP3, EOM
   Christian Kollmar      : KDIIS, OOCD, Brueckner-CCSD(T), CCSD density
   Simone Kossmann        : Meta GGA functionals, TD-DFT gradient, OOMP2, MP2 Hessian
   Martin Krupicka        : AUTO-CI
   Lucas Lang             : DCDCAS
   Dagmar Lenk            : GEPOL surface, SMD
   Dimitrios Liakos       : Extrapolation schemes; Compound Job, initial MDCI parallelization
   Dimitrios Manganas     : Further ROCIS development; embedding schemes
   Dimitrios Pantazis     : SARC Basis sets
   Taras Petrenko         : DFT Hessian,TD-DFT gradient, ASA, ECA, R-Raman, ABS, FL, XAS/XES, NRVS
   Peter Pinski           : DLPNO-MP2, DLPNO-MP2 Gradient
   Christoph Reimann      : Effective Core Potentials
   Marius Retegan         : Local ZFS, SOC
   Christoph Riplinger    : Optimizer, TS searches, QM/MM, DLPNO-CCSD(T), (RO)-DLPNO pert. Triples
   Tobias Risthaus        : Range-separated hybrids, TD-DFT gradient, RPA, STAB
   Michael Roemelt        : Original ROCIS implementation
   Masaaki Saitow         : Open-shell DLPNO-CCSD energy and density
   Barbara Sandhoefer     : DKH picture change effects
   Avijit Sen             : IP-ROCIS
   Kantharuban Sivalingam : CASSCF convergence, NEVPT2, FIC-MRCI
   Bernardo de Souza      : ESD, SOC TD-DFT
   Georgi Stoychev        : AutoAux, RI-MP2 NMR
   Willem Van den Heuvel  : Paramagnetic NMR
   Boris Wezisla          : Elementary symmetry handling
   Frank Wennmohs         : Technical directorship


 We gratefully acknowledge several colleagues who have allowed us to
 interface, adapt or use parts of their codes:
   Stefan Grimme, W. Hujo, H. Kruse,             : VdW corrections, initial TS optimization,
                  C. Bannwarth                     DFT functionals, gCP, sTDA/sTD-DF
   Ed Valeev, F. Pavosevic, A. Kumar             : LibInt (2-el integral package), F12 methods
   Garnet Chan, S. Sharma, J. Yang, R. Olivares  : DMRG
   Ulf Ekstrom                                   : XCFun DFT Library
   Mihaly Kallay                                 : mrcc  (arbitrary order and MRCC methods)
   Andreas Klamt, Michael Diedenhofen            : otool_cosmo (COSMO solvation model)
   Jiri Pittner, Ondrej Demel                    : Mk-CCSD
   Frank Weinhold                                : gennbo (NPA and NBO analysis)
   Christopher J. Cramer and Donald G. Truhlar   : smd solvation model
   Lars Goerigk                                  : TD-DFT with DH, B97 family of functionals
   V. Asgeirsson, H. Jonsson                     : NEB implementation
   FAccTs GmbH                                   : IRC, NEB, NEB-TS, Multilevel, MM, QM/MM, CI optimization
   S Lehtola, MJT Oliveira, MAL Marques          : LibXC Library


 Your calculation uses the libint2 library for the computation of 2-el integrals
 For citations please refer to: http://libint.valeyev.net

 Your ORCA version has been built with support for libXC version: 4.2.3
 For citations please refer to: https://tddft.org/programs/libxc/

 This ORCA versions uses:
   CBLAS   interface :  Fast vector & matrix operations
   LAPACKE interface :  Fast linear algebra routines
   SCALAPACK package :  Parallel linear algebra routines


XCFun DFT library Copyright 2009-2010 Ulf Ekstrom and contributors.
See http://admol.org/xcfun for more information. This is free soft-
ware; see the source code for copying conditions. There is ABSOLUTELY
NO WARRANTY; not even for MERCHANTABILITY or FITNESS FOR A PARTICULAR
PURPOSE. For details see the documentation. Scientific users of this 
library should cite U. Ekstrom, L. Visscher, R. Bast, A. J. Thorvald-
sen and K. Ruud; J.Chem.Theor.Comp. 2010, DOI: 10.1021/ct100117s
XCFun Version 0.99 
----- Orbital basis set information -----
Your calculation utilizes the basis: def2-SVP
   F. Weigend and R. Ahlrichs, Phys. Chem. Chem. Phys. 7, 3297 (2005).

----- AuxJ basis set information -----
Your calculation utilizes the auxiliary basis: def2/J
   F. Weigend, Phys. Chem. Chem. Phys. 8, 1057 (2006).

================================================================================
                                        WARNINGS
                       Please study these warnings very carefully!
================================================================================

INFO   : Checking CIS options ...

WARNING: CIS/ROCIS methods need fully converged wavefunctions
  ===> : Setting SCFConvForced true
         You can overwrite this default with %scf ConvForced false 


INFO   : the flag for use of LIBINT has been found!

================================================================================
                                       INPUT FILE
================================================================================
NAME = xtbopt.inp
|  1> # ORCA input file
|  2> # SCF done       -205.122022163187          0.000690491380
|  3> ! CAM-B3LYP def2-SVP def2/J RIJCOSX Grid4 TightSCF
|  4> %maxcore 5000
|  5> %tddft
|  6>     Mode sTDDFT
|  7>     Ethresh 5.0
|  8>     maxcore 5000
|  9> end
| 10> 
| 11> %pal
| 12>   nprocs 6
| 13>   end
| 14> * xyz 0 1
| 15>    C       -3.22701         1.23960         8.70893
| 16>    C       -3.12779        -0.07551         8.33509
| 17>    C       -2.39085        -1.04496         9.04901
| 18>    N       -1.81897        -1.88548         9.58209
| 19>    C       -3.69343        -0.66077         7.18195
| 20>    N       -4.09832        -1.22366         6.26625
| 21>    C       -2.55018         1.83787         9.85151
| 22>    C       -2.75933         3.23846         9.81734
| 23>    C       -2.23466         4.09098        10.75906
| 24>    C       -1.47281         3.53450        11.79013
| 25>    C       -1.27530         2.13247        11.82197
| 26>    C       -1.80113         1.27144        10.86625
| 27>    S       -0.31119         1.66511        13.18687
| 28>    C       -0.18106         3.31451        13.69072
| 29>    C       -0.82761         4.18157        12.88120
| 30>    C       -3.59789         3.58754         8.65894
| 31>    O       -3.91465         4.71114         8.32981
| 32>    C       -3.95698         2.29557         8.01842
| 33>    C       -4.88046         2.05680         7.04021
| 34>    C       -5.68809         2.93169         6.28213
| 35>    C       -5.75292         4.30978         6.17131
| 36>    C       -6.73506         4.73916         5.28684
| 37>   Cl       -7.02925         6.39737         4.96740
| 38>    C       -7.46336         3.70711         4.68204
| 39>    S       -6.87087         2.17520         5.23784
| 40>    C       -8.54285         3.82187         3.78178
| 41>    C       -9.28355         2.79464         3.19449
| 42>   Cl       -8.95283         1.13322         3.44966
| 43>    C      -10.32606         3.23439         2.38943
| 44>    C      -10.41422         4.61536         2.33113
| 45>    S       -9.16773         5.37171         3.27613
| 46>    C      -11.38790         5.39534         1.65781
| 47>    C      -11.33072         6.80622         1.70828
| 48>    C      -12.34045         7.63981         1.11503
| 49>    N      -12.23347         8.96896         1.20236
| 50>    C      -11.21462         9.50764         1.82752
| 51>    C      -10.21280         8.67655         2.42674
| 52>    N      -10.30241         7.37082         2.34835
| 53>    C       -9.11366         9.24989         3.11320
| 54>    N       -8.23577         9.73781         3.66323
| 55>    C      -11.12304        10.91981         1.90070
| 56>    N      -11.02886        12.05870         1.97454
| 57>    C      -13.46863         7.10754         0.45183
| 58>    C      -13.50753         5.69676         0.35595
| 59>    C      -12.48354         4.85680         0.94291
| 60>    N      -12.73226         3.56445         0.73200
| 61>    S      -14.08985         3.41353        -0.10861
| 62>    N      -14.44688         4.97063        -0.24968
| 63>    C      -14.48352         7.96934        -0.03464
| 64>    C      -15.67294         7.61559        -0.64973
| 65>    C      -16.46953         8.71211        -0.95198
| 66>   Cl      -18.00134         8.56167        -1.70663
| 67>    C      -15.91219         9.93896        -0.59074
| 68>    S      -14.34949         9.69220         0.14588
| 69>    C      -16.46674        11.22464        -0.75526
| 70>    C      -15.88052        12.46159        -0.48020
| 71>   Cl      -14.29182        12.62564         0.14074
| 72>    C      -16.70633        13.55017        -0.74611
| 73>    C      -17.94408        13.19106        -1.24859
| 74>    S      -18.07799        11.45883        -1.35841
| 75>    C      -19.01543        14.07781        -1.51233
| 76>    C      -20.20918        13.84079        -2.11646
| 77>    C      -20.70622        12.73190        -2.90638
| 78>    C      -19.98462        12.00670        -3.81679
| 79>    C      -20.53211        10.98293        -4.61504
| 80>    N      -20.93010        10.12707        -5.26798
| 81>    C      -18.63407        12.28262        -4.11788
| 82>    N      -17.55503        12.52080        -4.42739
| 83>    C      -22.15762        12.73174        -2.77779
| 84>    C      -22.55775        13.95195        -2.17144
| 85>    C      -21.36259        14.74315        -1.82668
| 86>    O      -21.31033        15.85402        -1.35344
| 87>    C      -23.87855        14.26520        -1.95604
| 88>    C      -24.84352        13.33029        -2.34298
| 89>    C      -24.43149        12.11115        -2.93487
| 90>    C      -23.09695        11.79658        -3.16410
| 91>    S      -25.79306        11.10737        -3.31862
| 92>    C      -26.88019        12.30310        -2.70167
| 93>    C      -26.26037        13.40530        -2.22684
| 94>    H       -2.41028         5.15392        10.70028
| 95>    H       -1.62416         0.21153        10.93827
| 96>    H        0.38037         3.53621        14.57747
| 97>    H       -0.85650         5.24467        13.03747
| 98>    H       -5.06762         1.01490         6.80595
| 99>    H       -5.11347         4.97529         6.72198
|100>    H      -11.00368         2.58520         1.86739
|101>    H      -15.93980         6.59654        -0.85830
|102>    H      -16.40488        14.57016        -0.59372
|103>    H      -18.90962        15.06761        -1.07783
|104>    H      -24.15837        15.20299        -1.50186
|105>    H      -22.82468        10.85478        -3.61178
|106>    H      -27.93345        12.10234        -2.73284
|107>    H      -26.77363        14.25032        -1.80501
|108> *
|109> 
|110>                          ****END OF INPUT****
================================================================================

                       ****************************
                       * Single Point Calculation *
                       ****************************

---------------------------------
CARTESIAN COORDINATES (ANGSTROEM)
---------------------------------
  C     -3.227010    1.239600    8.708930
  C     -3.127790   -0.075510    8.335090
  C     -2.390850   -1.044960    9.049010
  N     -1.818970   -1.885480    9.582090
  C     -3.693430   -0.660770    7.181950
  N     -4.098320   -1.223660    6.266250
  C     -2.550180    1.837870    9.851510
  C     -2.759330    3.238460    9.817340
  C     -2.234660    4.090980   10.759060
  C     -1.472810    3.534500   11.790130
  C     -1.275300    2.132470   11.821970
  C     -1.801130    1.271440   10.866250
  S     -0.311190    1.665110   13.186870
  C     -0.181060    3.314510   13.690720
  C     -0.827610    4.181570   12.881200
  C     -3.597890    3.587540    8.658940
  O     -3.914650    4.711140    8.329810
  C     -3.956980    2.295570    8.018420
  C     -4.880460    2.056800    7.040210
  C     -5.688090    2.931690    6.282130
  C     -5.752920    4.309780    6.171310
  C     -6.735060    4.739160    5.286840
  Cl    -7.029250    6.397370    4.967400
  C     -7.463360    3.707110    4.682040
  S     -6.870870    2.175200    5.237840
  C     -8.542850    3.821870    3.781780
  C     -9.283550    2.794640    3.194490
  Cl    -8.952830    1.133220    3.449660
  C    -10.326060    3.234390    2.389430
  C    -10.414220    4.615360    2.331130
  S     -9.167730    5.371710    3.276130
  C    -11.387900    5.395340    1.657810
  C    -11.330720    6.806220    1.708280
  C    -12.340450    7.639810    1.115030
  N    -12.233470    8.968960    1.202360
  C    -11.214620    9.507640    1.827520
  C    -10.212800    8.676550    2.426740
  N    -10.302410    7.370820    2.348350
  C     -9.113660    9.249890    3.113200
  N     -8.235770    9.737810    3.663230
  C    -11.123040   10.919810    1.900700
  N    -11.028860   12.058700    1.974540
  C    -13.468630    7.107540    0.451830
  C    -13.507530    5.696760    0.355950
  C    -12.483540    4.856800    0.942910
  N    -12.732260    3.564450    0.732000
  S    -14.089850    3.413530   -0.108610
  N    -14.446880    4.970630   -0.249680
  C    -14.483520    7.969340   -0.034640
  C    -15.672940    7.615590   -0.649730
  C    -16.469530    8.712110   -0.951980
  Cl   -18.001340    8.561670   -1.706630
  C    -15.912190    9.938960   -0.590740
  S    -14.349490    9.692200    0.145880
  C    -16.466740   11.224640   -0.755260
  C    -15.880520   12.461590   -0.480200
  Cl   -14.291820   12.625640    0.140740
  C    -16.706330   13.550170   -0.746110
  C    -17.944080   13.191060   -1.248590
  S    -18.077990   11.458830   -1.358410
  C    -19.015430   14.077810   -1.512330
  C    -20.209180   13.840790   -2.116460
  C    -20.706220   12.731900   -2.906380
  C    -19.984620   12.006700   -3.816790
  C    -20.532110   10.982930   -4.615040
  N    -20.930100   10.127070   -5.267980
  C    -18.634070   12.282620   -4.117880
  N    -17.555030   12.520800   -4.427390
  C    -22.157620   12.731740   -2.777790
  C    -22.557750   13.951950   -2.171440
  C    -21.362590   14.743150   -1.826680
  O    -21.310330   15.854020   -1.353440
  C    -23.878550   14.265200   -1.956040
  C    -24.843520   13.330290   -2.342980
  C    -24.431490   12.111150   -2.934870
  C    -23.096950   11.796580   -3.164100
  S    -25.793060   11.107370   -3.318620
  C    -26.880190   12.303100   -2.701670
  C    -26.260370   13.405300   -2.226840
  H     -2.410280    5.153920   10.700280
  H     -1.624160    0.211530   10.938270
  H      0.380370    3.536210   14.577470
  H     -0.856500    5.244670   13.037470
  H     -5.067620    1.014900    6.805950
  H     -5.113470    4.975290    6.721980
  H    -11.003680    2.585200    1.867390
  H    -15.939800    6.596540   -0.858300
  H    -16.404880   14.570160   -0.593720
  H    -18.909620   15.067610   -1.077830
  H    -24.158370   15.202990   -1.501860
  H    -22.824680   10.854780   -3.611780
  H    -27.933450   12.102340   -2.732840
  H    -26.773630   14.250320   -1.805010

----------------------------
CARTESIAN COORDINATES (A.U.)
----------------------------
  NO LB      ZA    FRAG     MASS         X           Y           Z
   0 C     6.0000    0    12.011   -6.098165    2.342505   16.457493
   1 C     6.0000    0    12.011   -5.910667   -0.142693   15.751037
   2 C     6.0000    0    12.011   -4.518052   -1.974688   17.100151
   3 N     7.0000    0    14.007   -3.437355   -3.563041   18.107526
   4 C     6.0000    0    12.011   -6.979571   -1.248674   13.571919
   5 N     7.0000    0    14.007   -7.744702   -2.312382   11.841496
   6 C     6.0000    0    12.011   -4.819142    3.473071   18.616656
   7 C     6.0000    0    12.011   -5.214378    6.119802   18.552084
   8 C     6.0000    0    12.011   -4.222895    7.730832   20.331677
   9 C     6.0000    0    12.011   -2.783208    6.679237   22.280117
  10 C     6.0000    0    12.011   -2.409968    4.029784   22.340286
  11 C     6.0000    0    12.011   -3.403642    2.402673   20.534237
  12 S    16.0000    0    32.060   -0.588064    3.146602   24.919573
  13 C     6.0000    0    12.011   -0.342154    6.263516   25.871711
  14 C     6.0000    0    12.011   -1.563956    7.902022   24.341940
  15 C     6.0000    0    12.011   -6.799027    6.779468   16.363025
  16 O     8.0000    0    15.999   -7.397616    8.902764   15.741060
  17 C     6.0000    0    12.011   -7.477609    4.337999   15.152618
  18 C     6.0000    0    12.011   -9.222733    3.886789   13.304069
  19 C     6.0000    0    12.011  -10.748932    5.540091   11.871505
  20 C     6.0000    0    12.011  -10.871443    8.144304   11.662086
  21 C     6.0000    0    12.011  -12.727419    8.955715    9.990680
  22 Cl   17.0000    0    35.453  -13.283357   12.089277    9.387026
  23 C     6.0000    0    12.011  -14.103706    7.005423    8.847773
  24 S    16.0000    0    32.060  -12.984063    4.110532    9.898083
  25 C     6.0000    0    12.011  -16.143647    7.222288    7.146528
  26 C     6.0000    0    12.011  -17.543367    5.281104    6.036711
  27 Cl   17.0000    0    35.453  -16.918397    2.141475    6.518913
  28 C     6.0000    0    12.011  -19.513425    6.112111    4.515368
  29 C     6.0000    0    12.011  -19.680024    8.721766    4.405197
  30 S    16.0000    0    32.060  -17.324499   10.151061    6.190988
  31 C     6.0000    0    12.011  -21.520012   10.195715    3.132807
  32 C     6.0000    0    12.011  -21.411958   12.861892    3.228181
  33 C     6.0000    0    12.011  -23.320071   14.437149    2.107101
  34 N     7.0000    0    14.007  -23.117908   16.948878    2.272131
  35 C     6.0000    0    12.011  -21.192560   17.966836    3.453512
  36 C     6.0000    0    12.011  -19.299395   16.396303    4.585874
  37 N     7.0000    0    14.007  -19.468733   13.928831    4.437738
  38 C     6.0000    0    12.011  -17.222321   17.479759    5.883095
  39 N     7.0000    0    14.007  -15.563350   18.401794    6.922501
  40 C     6.0000    0    12.011  -21.019499   20.635450    3.591802
  41 N     7.0000    0    14.007  -20.841525   22.787641    3.731340
  42 C     6.0000    0    12.011  -25.452022   13.431304    0.853835
  43 C     6.0000    0    12.011  -25.525532   10.765316    0.672648
  44 C     6.0000    0    12.011  -23.590472    9.178022    1.781842
  45 N     7.0000    0    14.007  -24.060484    6.735834    1.383280
  46 S    16.0000    0    32.060  -26.625958    6.450637   -0.205243
  47 N     7.0000    0    14.007  -27.300647    9.393129   -0.471827
  48 C     6.0000    0    12.011  -27.369886   15.059870   -0.065460
  49 C     6.0000    0    12.011  -29.617564   14.391379   -1.227812
  50 C     6.0000    0    12.011  -31.122901   16.463502   -1.798981
  51 Cl   17.0000    0    35.453  -34.017603   16.179212   -3.225063
  52 C     6.0000    0    12.011  -30.069681   18.781912   -1.116337
  53 S    16.0000    0    32.060  -27.116606   18.315604    0.275673
  54 C     6.0000    0    12.011  -31.117629   21.211496   -1.427235
  55 C     6.0000    0    12.011  -30.009834   23.548992   -0.907446
  56 Cl   17.0000    0    35.453  -27.007626   23.859002    0.265960
  57 C     6.0000    0    12.011  -31.570388   25.606110   -1.409944
  58 C     6.0000    0    12.011  -33.909397   24.927491   -2.359493
  59 S    16.0000    0    32.060  -34.162450   21.654051   -2.567023
  60 C     6.0000    0    12.011  -35.933955   26.603205   -2.857890
  61 C     6.0000    0    12.011  -38.189816   26.155303   -3.999530
  62 C     6.0000    0    12.011  -39.129085   24.059804   -5.492262
  63 C     6.0000    0    12.011  -37.765459   22.689375   -7.212688
  64 C     6.0000    0    12.011  -38.800065   20.754730   -8.721162
  65 N     7.0000    0    14.007  -39.552157   19.137389   -9.955039
  66 C     6.0000    0    12.011  -35.213289   23.210788   -7.781665
  67 N     7.0000    0    14.007  -33.174199   23.660883   -8.366555
  68 C     6.0000    0    12.011  -41.871834   24.059502   -5.249262
  69 C     6.0000    0    12.011  -42.627970   26.365365   -4.103427
  70 C     6.0000    0    12.011  -40.369445   27.860516   -3.451925
  71 O     8.0000    0    15.999  -40.270688   29.959756   -2.557631
  72 C     6.0000    0    12.011  -45.123920   26.957321   -3.696380
  73 C     6.0000    0    12.011  -46.947449   25.190597   -4.427591
  74 C     6.0000    0    12.011  -46.168825   22.886757   -5.546101
  75 C     6.0000    0    12.011  -43.646910   22.292306   -5.979282
  76 S    16.0000    0    32.060  -48.741820   20.989887   -6.271283
  77 C     6.0000    0    12.011  -50.796198   23.249490   -5.105416
  78 C     6.0000    0    12.011  -49.624907   25.332346   -4.208118
  79 H     1.0000    0     1.008   -4.554769    9.739497   20.220599
  80 H     1.0000    0     1.008   -3.069218    0.399734   20.670335
  81 H     1.0000    0     1.008    0.718795    6.682468   27.547426
  82 H     1.0000    0     1.008   -1.618550    9.910990   24.637248
  83 H     1.0000    0     1.008   -9.576414    1.917883   12.861382
  84 H     1.0000    0     1.008   -9.663058    9.401936   12.702701
  85 H     1.0000    0     1.008  -20.793942    4.885320    3.528856
  86 H     1.0000    0     1.008  -30.121857   12.465654   -1.621952
  87 H     1.0000    0     1.008  -31.000730   27.533612   -1.121968
  88 H     1.0000    0     1.008  -35.734003   28.473656   -2.036804
  89 H     1.0000    0     1.008  -45.652703   28.729488   -2.838104
  90 H     1.0000    0     1.008  -43.132394   20.512561   -6.825275
  91 H     1.0000    0     1.008  -52.786570   22.870108   -5.164319
  92 H     1.0000    0     1.008  -50.594828   26.929202   -3.410975

--------------------------------
INTERNAL COORDINATES (ANGSTROEM)
--------------------------------
 C      0   0   0     0.000000000000     0.00000000     0.00000000
 C      1   0   0     1.370808252857     0.00000000     0.00000000
 C      2   1   0     1.411593295712   123.96818949     0.00000000
 N      3   2   1     1.147908921126   176.22234370   174.19649306
 C      2   1   3     1.411456601104   126.27060010   182.13052059
 N      5   2   1     1.148602435223   174.74530991   171.06621763
 C      1   2   3     1.456542103133   125.05439658     2.71163619
 C      7   1   2     1.416532265605   108.57775603   172.71959794
 C      8   7   1     1.374374591478   122.71234634   180.60319113
 C      9   8   7     1.397566011965   117.81561368   359.60082702
 C     10   9   8     1.416231657110   119.13019795     0.00000000
 C      7   1   2     1.382612062366   131.23906133   352.79962704
 S     11  10   9     1.735190327226   111.21162713   180.30926269
 C     13  11  10     1.729543003050    90.80762229   359.90527997
 C     14  13  11     1.350978377510   113.67149210     0.06302910
 C      8   7   1     1.472049686661   109.72837942     0.85980445
 O     16   8   7     1.212905773133   125.59040570   182.73591075
 C      1   2   3     1.457646356940   127.01742210   179.42946034
 C     18   1   2     1.366280069166   123.43897910    14.26138252
 C     19  18   1     1.411518336898   131.52427657   179.04773640
 C     20  19  18     1.384057820107   133.38935595     6.62972901
 C     21  20  19     1.389695414434   113.06065131   180.43907464
 Cl    22  21  20     1.714132455150   122.60157961   179.85383249
 C     22  21  20     1.400475323774   114.49961968   359.95314872
 S     24  22  21     1.733985665512   109.56838178   359.31953533
 C     24  22  21     1.410296630252   127.86199245   177.74988735
 C     26  24  22     1.395975467908   127.93834805   181.11365090
 Cl    27  26  24     1.713126925741   123.26728664   357.98854167
 C     27  26  24     1.388642778471   114.15548553   177.44668084
 C     29  27  26     1.385008742391   112.82657688     0.19720332
 S     30  29  27     1.737477379018   111.43747672     0.75348009
 C     30  29  27     1.417667579230   127.75537220   183.06765172
 C     32  30  29     1.412939895289   120.30636009   179.69245768
 C     33  32  30     1.437488268996   122.40361707   184.06170962
 N     34  33  32     1.336304969608   119.57642069   179.65838226
 C     35  34  33     1.311127945892   120.13394969   359.88197548
 C     36  35  34     1.432975404150   120.28966955   359.69491204
 N     37  36  35     1.311146741254   120.31787359     0.39286403
 C     37  36  35     1.417058512130   120.67605800   180.48705903
 N     39  37  36     1.145115618355   178.64437386     2.09757165
 C     36  35  34     1.417027281918   118.96592563   179.75267716
 N     41  36  35     1.145160534641   178.74572051   175.13743017
 C     34  33  32     1.412775886438   122.42414374     0.68404094
 C     43  34  33     1.414569331210   115.43732723   357.18873128
 C     32  30  29     1.414755933439   124.22640053     1.83750476
 N     45  32  30     1.332859028180   126.41045700   356.26873094
 S     46  45  32     1.603886724990   109.39759081   179.23998535
 N     44  43  34     1.332828157078   126.40752835   181.79479852
 C     43  34  33     1.417516847519   120.25067944   175.56601221
 C     49  43  34     1.384989063856   127.73371825   183.06881635
 C     50  49  43     1.388620466866   112.80703687   177.37638987
 Cl    51  50  49     1.714225974660   122.62463299   180.44021864
 C     51  50  49     1.395092518688   114.13465557     0.57450000
 S     49  43  34     1.737468874800   120.79489510     1.16165048
 C     53  51  50     1.409810482051   127.92386795   180.30835659
 C     55  53  51     1.396193824116   128.30100384   184.74853646
 Cl    56  55  53     1.713606307207   123.05660661     0.00000000
 C     56  55  53     1.392004561990   113.96049074   180.47297400
 C     58  56  55     1.383282763935   113.40383537   359.22210612
 S     55  53  51     1.736306839559   121.90819895     5.15720861
 C     59  58  56     1.415512335729   125.61146800   174.96024898
 C     61  59  58     1.358745965882   129.68156604   173.08830468
 C     62  61  59     1.449365171411   132.61582052   346.41522155
 C     63  62  61     1.369477260892   125.92778561   322.42086534
 C     64  63  62     1.408919222489   123.82648914   183.61877347
 N     65  64  63     1.147703369037   177.36274635   206.24192965
 C     64  63  62     1.410947319002   122.86541923   358.74231509
 N     67  64  63     1.147542362660   176.56118437   242.62759280
 C     63  62  61     1.457085232133   107.07266170   154.91724196
 C     69  63  62     1.420097455635   108.55712908    11.85241163
 C     70  69  63     1.474199553385   109.42537165   357.00170020
 O     71  70  69     1.208602234856   128.31067068   176.47191185
 C     70  69  63     1.374421828443   122.24356357   177.85269562
 C     73  70  69     1.398193968160   117.86965267     0.63760239
 C     74  73  70     1.416476202624   119.36601754     0.00000000
 C     69  63  62     1.380615982306   130.77545778   190.26576957
 S     75  74  73     1.734563696092   111.23448073   179.52935590
 C     77  75  74     1.729811889282    90.82494298     0.15510174
 C     78  77  75     1.350735059625   113.64369328   359.92362549
 H      9   8   7     1.078952694236   120.77211462   179.72744058
 H     12   7   1     1.076993254111   122.77105847   359.28612141
 H     14  13  11     1.072697579656   118.50907995   180.00827130
 H     15  14  13     1.074912347589   124.09028134   179.96549813
 H     19  18   1     1.084187356134   116.06059583     1.22153837
 H     21  20  19     1.074726621751   123.20738704   359.88892760
 H     29  27  26     1.073844626610   124.34165478   180.60805895
 H     50  49  43     1.073861539958   122.82344903   357.75892373
 H     58  56  55     1.074464710775   123.28748458   180.33017486
 H     61  59  58     1.086135371904   115.00004910   346.07237232
 H     73  70  69     1.078901658586   120.88498319   180.58336954
 H     76  69  63     1.077745598599   122.42921953     2.77160880
 H     78  77  75     1.072675521348   118.51280997   179.97307823
 H     79  78  77     1.074911706560   124.07838030   180.03443566

---------------------------
INTERNAL COORDINATES (A.U.)
---------------------------
 C      0   0   0     0.000000000000     0.00000000     0.00000000
 C      1   0   0     2.590452180018     0.00000000     0.00000000
 C      2   1   0     2.667524741376   123.96818949     0.00000000
 N      3   2   1     2.169233487613   176.22234370   174.19649306
 C      2   1   3     2.667266426002   126.27060010   182.13052059
 N      5   2   1     2.170544039326   174.74530991   171.06621763
 C      1   2   3     2.752465677448   125.05439658     2.71163619
 C      7   1   2     2.676858041856   108.57775603   172.71959794
 C      8   7   1     2.597191583313   122.71234634   180.60319113
 C      9   8   7     2.641017016691   117.81561368   359.60082702
 C     10   9   8     2.676289974127   119.13019795     0.00000000
 C      7   1   2     2.612758147328   131.23906133   352.79962704
 S     11  10   9     3.279034508687   111.21162713   180.30926269
 C     13  11  10     3.268362612605    90.80762229   359.90527997
 C     14  13  11     2.552979146343   113.67149210     0.06302910
 C      8   7   1     2.781770763315   109.72837942     0.85980445
 O     16   8   7     2.292059737474   125.59040570   182.73591075
 C      1   2   3     2.754552414724   127.01742210   179.42946034
 C     18   1   2     2.581895152959   123.43897910    14.26138252
 C     19  18   1     2.667383089746   131.52427657   179.04773640
 C     20  19  18     2.615490233515   133.38935595     6.62972901
 C     21  20  19     2.626143742847   113.06065131   180.43907464
 Cl    22  21  20     3.239240897500   122.60157961   179.85383249
 C     22  21  20     2.646514819248   114.49961968   359.95314872
 S     24  22  21     3.276758027962   109.56838178   359.31953533
 C     24  22  21     2.665074398768   127.86199245   177.74988735
 C     26  24  22     2.638011324018   127.93834805   181.11365090
 Cl    27  26  24     3.237340722298   123.26728664   357.98854167
 C     27  26  24     2.624154549158   114.15548553   177.44668084
 C     29  27  26     2.617287216206   112.82657688     0.19720332
 S     30  29  27     3.283356410228   111.43747672     0.75348009
 C     30  29  27     2.679003473684   127.75537220   183.06765172
 C     32  30  29     2.670069445788   120.30636009   179.69245768
 C     33  32  30     2.716459149126   122.40361707   184.06170962
 N     34  33  32     2.525250423958   119.57642069   179.65838226
 C     35  34  33     2.477672744267   120.13394969   359.88197548
 C     36  35  34     2.707931070489   120.28966955   359.69491204
 N     37  36  35     2.477708262353   120.31787359     0.39286403
 C     37  36  35     2.677852503668   120.67605800   180.48705903
 N     39  37  36     2.163954910366   178.64437386     2.09757165
 C     36  35  34     2.677793487120   118.96592563   179.75267716
 N     41  36  35     2.164039789847   178.74572051   175.13743017
 C     34  33  32     2.669759513975   122.42414374     0.68404094
 C     43  34  33     2.673148633431   115.43732723   357.18873128
 C     32  30  29     2.673501260539   124.22640053     1.83750476
 N     45  32  30     2.518738538384   126.41045700   356.26873094
 S     46  45  32     3.030906660063   109.39759081   179.23998535
 N     44  43  34     2.518680200456   126.40752835   181.79479852
 C     43  34  33     2.678718632030   120.25067944   175.56601221
 C     49  43  34     2.617250029163   127.73371825   183.06881635
 C     50  49  43     2.624112386335   112.80703687   177.37638987
 Cl    51  50  49     3.239417623762   122.62463299   180.44021864
 C     51  50  49     2.636342791803   114.13465557     0.57450000
 S     49  43  34     3.283340339585   120.79489510     1.16165048
 C     53  51  50     2.664155711807   127.92386795   180.30835659
 C     55  53  51     2.638423957452   128.30100384   184.74853646
 Cl    56  55  53     3.238246621982   123.05660661     0.00000000
 C     56  55  53     2.630507399329   113.96049074   180.47297400
 C     58  56  55     2.614025589611   113.40383537   359.22210612
 S     55  53  51     3.281144411221   121.90819895     5.15720861
 C     59  58  56     2.674930653714   125.61146800   174.96024898
 C     61  59  58     2.567657761087   129.68156604   173.08830468
 C     62  61  59     2.738903242011   132.61582052   346.41522155
 C     63  62  61     2.587936969718   125.92778561   322.42086534
 C     64  63  62     2.662471475322   123.82648914   183.61877347
 N     65  64  63     2.168845050460   177.36274635   206.24192965
 C     64  63  62     2.666304022305   122.86541923   358.74231509
 N     67  64  63     2.168540792501   176.56118437   242.62759280
 C     63  62  61     2.753492042512   107.07266170   154.91724196
 C     69  63  62     2.683595274628   108.55712908    11.85241163
 C     70  69  63     2.785833422646   109.42537165   357.00170020
 O     71  70  69     2.283927228724   128.31067068   176.47191185
 C     70  69  63     2.597280848240   122.24356357   177.85269562
 C     73  70  69     2.642203681924   117.86965267     0.63760239
 C     74  73  70     2.676752098176   119.36601754     0.00000000
 C     69  63  62     2.608986102674   130.77545778   190.26576957
 S     75  74  73     3.277850347456   111.23448073   179.52935590
 C     77  75  74     3.268870733943    90.82494298     0.15510174
 C     78  77  75     2.552519342177   113.64369328   359.92362549
 H      9   8   7     2.038925103563   120.77211462   179.72744058
 H     12   7   1     2.035222298350   122.77105847   359.28612141
 H     14  13  11     2.027104650070   118.50907995   180.00827130
 H     15  14  13     2.031289954914   124.09028134   179.96549813
 H     19  18   1     2.048817180953   116.06059583     1.22153837
 H     21  20  19     2.030938983943   123.20738704   359.88892760
 H     29  27  26     2.029272254677   124.34165478   180.60805895
 H     50  49  43     2.029304216271   122.82344903   357.75892373
 H     58  56  55     2.030444043927   123.28748458   180.33017486
 H     61  59  58     2.052498397262   115.00004910   346.07237232
 H     73  70  69     2.038828660161   120.88498319   180.58336954
 H     76  69  63     2.036644023392   122.42921953     2.77160880
 H     78  77  75     2.027062965910   118.51280997   179.97307823
 H     79  78  77     2.031288743545   124.07838030   180.03443566

---------------------
BASIS SET INFORMATION
---------------------
There are 6 groups of distinct atoms

 Group   1 Type C   : 7s4p1d contracted to 3s2p1d pattern {511/31/1}
 Group   2 Type N   : 7s4p1d contracted to 3s2p1d pattern {511/31/1}
 Group   3 Type S   : 10s7p1d contracted to 4s3p1d pattern {5311/511/1}
 Group   4 Type O   : 7s4p1d contracted to 3s2p1d pattern {511/31/1}
 Group   5 Type Cl  : 10s7p1d contracted to 4s3p1d pattern {5311/511/1}
 Group   6 Type H   : 4s1p contracted to 2s1p pattern {31/1}

Atom   0C    basis set group =>   1
Atom   1C    basis set group =>   1
Atom   2C    basis set group =>   1
Atom   3N    basis set group =>   2
Atom   4C    basis set group =>   1
Atom   5N    basis set group =>   2
Atom   6C    basis set group =>   1
Atom   7C    basis set group =>   1
Atom   8C    basis set group =>   1
Atom   9C    basis set group =>   1
Atom  10C    basis set group =>   1
Atom  11C    basis set group =>   1
Atom  12S    basis set group =>   3
Atom  13C    basis set group =>   1
Atom  14C    basis set group =>   1
Atom  15C    basis set group =>   1
Atom  16O    basis set group =>   4
Atom  17C    basis set group =>   1
Atom  18C    basis set group =>   1
Atom  19C    basis set group =>   1
Atom  20C    basis set group =>   1
Atom  21C    basis set group =>   1
Atom  22Cl   basis set group =>   5
Atom  23C    basis set group =>   1
Atom  24S    basis set group =>   3
Atom  25C    basis set group =>   1
Atom  26C    basis set group =>   1
Atom  27Cl   basis set group =>   5
Atom  28C    basis set group =>   1
Atom  29C    basis set group =>   1
Atom  30S    basis set group =>   3
Atom  31C    basis set group =>   1
Atom  32C    basis set group =>   1
Atom  33C    basis set group =>   1
Atom  34N    basis set group =>   2
Atom  35C    basis set group =>   1
Atom  36C    basis set group =>   1
Atom  37N    basis set group =>   2
Atom  38C    basis set group =>   1
Atom  39N    basis set group =>   2
Atom  40C    basis set group =>   1
Atom  41N    basis set group =>   2
Atom  42C    basis set group =>   1
Atom  43C    basis set group =>   1
Atom  44C    basis set group =>   1
Atom  45N    basis set group =>   2
Atom  46S    basis set group =>   3
Atom  47N    basis set group =>   2
Atom  48C    basis set group =>   1
Atom  49C    basis set group =>   1
Atom  50C    basis set group =>   1
Atom  51Cl   basis set group =>   5
Atom  52C    basis set group =>   1
Atom  53S    basis set group =>   3
Atom  54C    basis set group =>   1
Atom  55C    basis set group =>   1
Atom  56Cl   basis set group =>   5
Atom  57C    basis set group =>   1
Atom  58C    basis set group =>   1
Atom  59S    basis set group =>   3
Atom  60C    basis set group =>   1
Atom  61C    basis set group =>   1
Atom  62C    basis set group =>   1
Atom  63C    basis set group =>   1
Atom  64C    basis set group =>   1
Atom  65N    basis set group =>   2
Atom  66C    basis set group =>   1
Atom  67N    basis set group =>   2
Atom  68C    basis set group =>   1
Atom  69C    basis set group =>   1
Atom  70C    basis set group =>   1
Atom  71O    basis set group =>   4
Atom  72C    basis set group =>   1
Atom  73C    basis set group =>   1
Atom  74C    basis set group =>   1
Atom  75C    basis set group =>   1
Atom  76S    basis set group =>   3
Atom  77C    basis set group =>   1
Atom  78C    basis set group =>   1
Atom  79H    basis set group =>   6
Atom  80H    basis set group =>   6
Atom  81H    basis set group =>   6
Atom  82H    basis set group =>   6
Atom  83H    basis set group =>   6
Atom  84H    basis set group =>   6
Atom  85H    basis set group =>   6
Atom  86H    basis set group =>   6
Atom  87H    basis set group =>   6
Atom  88H    basis set group =>   6
Atom  89H    basis set group =>   6
Atom  90H    basis set group =>   6
Atom  91H    basis set group =>   6
Atom  92H    basis set group =>   6
---------------------------------
AUXILIARY/J BASIS SET INFORMATION
---------------------------------
There are 6 groups of distinct atoms

 Group   1 Type C   : 12s5p4d2f1g contracted to 6s4p3d1f1g pattern {711111/2111/211/2/1}
 Group   2 Type N   : 12s5p4d2f1g contracted to 6s4p3d1f1g pattern {711111/2111/211/2/1}
 Group   3 Type S   : 14s5p5d2f1g contracted to 8s4p3d1f1g pattern {71111111/2111/311/2/1}
 Group   4 Type O   : 12s5p4d2f1g contracted to 6s4p3d1f1g pattern {711111/2111/211/2/1}
 Group   5 Type Cl  : 14s5p5d2f1g contracted to 8s4p3d1f1g pattern {71111111/2111/311/2/1}
 Group   6 Type H   : 5s2p1d contracted to 3s1p1d pattern {311/2/1}

Atom   0C    basis set group =>   1
Atom   1C    basis set group =>   1
Atom   2C    basis set group =>   1
Atom   3N    basis set group =>   2
Atom   4C    basis set group =>   1
Atom   5N    basis set group =>   2
Atom   6C    basis set group =>   1
Atom   7C    basis set group =>   1
Atom   8C    basis set group =>   1
Atom   9C    basis set group =>   1
Atom  10C    basis set group =>   1
Atom  11C    basis set group =>   1
Atom  12S    basis set group =>   3
Atom  13C    basis set group =>   1
Atom  14C    basis set group =>   1
Atom  15C    basis set group =>   1
Atom  16O    basis set group =>   4
Atom  17C    basis set group =>   1
Atom  18C    basis set group =>   1
Atom  19C    basis set group =>   1
Atom  20C    basis set group =>   1
Atom  21C    basis set group =>   1
Atom  22Cl   basis set group =>   5
Atom  23C    basis set group =>   1
Atom  24S    basis set group =>   3
Atom  25C    basis set group =>   1
Atom  26C    basis set group =>   1
Atom  27Cl   basis set group =>   5
Atom  28C    basis set group =>   1
Atom  29C    basis set group =>   1
Atom  30S    basis set group =>   3
Atom  31C    basis set group =>   1
Atom  32C    basis set group =>   1
Atom  33C    basis set group =>   1
Atom  34N    basis set group =>   2
Atom  35C    basis set group =>   1
Atom  36C    basis set group =>   1
Atom  37N    basis set group =>   2
Atom  38C    basis set group =>   1
Atom  39N    basis set group =>   2
Atom  40C    basis set group =>   1
Atom  41N    basis set group =>   2
Atom  42C    basis set group =>   1
Atom  43C    basis set group =>   1
Atom  44C    basis set group =>   1
Atom  45N    basis set group =>   2
Atom  46S    basis set group =>   3
Atom  47N    basis set group =>   2
Atom  48C    basis set group =>   1
Atom  49C    basis set group =>   1
Atom  50C    basis set group =>   1
Atom  51Cl   basis set group =>   5
Atom  52C    basis set group =>   1
Atom  53S    basis set group =>   3
Atom  54C    basis set group =>   1
Atom  55C    basis set group =>   1
Atom  56Cl   basis set group =>   5
Atom  57C    basis set group =>   1
Atom  58C    basis set group =>   1
Atom  59S    basis set group =>   3
Atom  60C    basis set group =>   1
Atom  61C    basis set group =>   1
Atom  62C    basis set group =>   1
Atom  63C    basis set group =>   1
Atom  64C    basis set group =>   1
Atom  65N    basis set group =>   2
Atom  66C    basis set group =>   1
Atom  67N    basis set group =>   2
Atom  68C    basis set group =>   1
Atom  69C    basis set group =>   1
Atom  70C    basis set group =>   1
Atom  71O    basis set group =>   4
Atom  72C    basis set group =>   1
Atom  73C    basis set group =>   1
Atom  74C    basis set group =>   1
Atom  75C    basis set group =>   1
Atom  76S    basis set group =>   3
Atom  77C    basis set group =>   1
Atom  78C    basis set group =>   1
Atom  79H    basis set group =>   6
Atom  80H    basis set group =>   6
Atom  81H    basis set group =>   6
Atom  82H    basis set group =>   6
Atom  83H    basis set group =>   6
Atom  84H    basis set group =>   6
Atom  85H    basis set group =>   6
Atom  86H    basis set group =>   6
Atom  87H    basis set group =>   6
Atom  88H    basis set group =>   6
Atom  89H    basis set group =>   6
Atom  90H    basis set group =>   6
Atom  91H    basis set group =>   6
Atom  92H    basis set group =>   6


           ************************************************************
           *        Program running with 6 parallel MPI-processes     *
           *              working on a common directory               *
           ************************************************************
------------------------------------------------------------------------------
                           ORCA GTO INTEGRAL CALCULATION
                           -- RI-GTO INTEGRALS CHOSEN --
------------------------------------------------------------------------------

                         BASIS SET STATISTICS AND STARTUP INFO

Gaussian basis set:
 # of primitive gaussian shells          ... 1084
 # of primitive gaussian functions       ... 2126
 # of contracted shells                  ...  538
 # of contracted basis functions         ... 1220
 Highest angular momentum                ...    2
 Maximum contraction depth               ...    5
Auxiliary gaussian basis set:
 # of primitive gaussian shells          ... 2041
 # of primitive gaussian functions       ... 5831
 # of contracted shells                  ... 1277
 # of contracted aux-basis functions     ... 4047
 Highest angular momentum                ...    4
 Maximum contraction depth               ...    7
Ratio of auxiliary to basis functions    ...  3.32
Integral package used                  ... LIBINT
 One Electron integrals                  ... done
 Ordering auxiliary basis shells         ... done
 Integral threshhold             Thresh  ...  2.500e-11
 Primitive cut-off               TCut    ...  2.500e-12
 Pre-screening matrix                    ... done
 Shell pair data                         ... 
 Ordering of the shell pairs             ... done (   0.009 sec) 41372 of 144991 pairs
 Determination of significant pairs      ... done (   0.000 sec)
 Creation of shell pair data             ... done (   0.005 sec)
 Storage of shell pair data              ... done (   0.062 sec)
 Shell pair data done in (   0.076 sec)
 Computing two index integrals           ... done
 Cholesky decomposition of the V-matrix  ... done


Timings:
 Total evaluation time                   ...   3.166 sec (  0.053 min)
 One electron matrix time                ...   1.029 sec (  0.017 min) = 32.5%
 Schwartz matrix evaluation time         ...   0.782 sec (  0.013 min) = 24.7%
 Two index repulsion integral time       ...   0.435 sec (  0.007 min) = 13.7%
 Cholesky decomposition of V             ...   0.828 sec (  0.014 min) = 26.1%
 Three index repulsion integral time     ...   0.000 sec (  0.000 min) =  0.0%



           ************************************************************
           *        Program running with 6 parallel MPI-processes     *
           *              working on a common directory               *
           ************************************************************
-------------------------------------------------------------------------------
                                 ORCA SCF
-------------------------------------------------------------------------------

------------
SCF SETTINGS
------------
Hamiltonian:
 Density Functional     Method          .... DFT(GTOs)
 Exchange Functional    Exchange        .... WB88
 Correlation Functional Correlation     .... LYP
 LDA part of GGA corr.  LDAOpt          .... VWN-5
 Gradients option       PostSCFGGA      .... off
 Hybrid DFT is turned on
   Fraction HF Exchange ScalHFX         ....  0.190000
   Scaling of DF-GGA-X  ScalDFX         ....  0.350000
   Scaling of DF-GGA-C  ScalDFC         ....  0.810000
   Scaling of DF-LDA-C  ScalLDAC        ....  1.000000
   Perturbative correction              ....  0.000000
   Density functional embedding theory  .... OFF
 Long-range corrected/Screened/Range-Separated Hybrid DFT is turned on
   Amount of maximum screened exact exchange              ....  0.460000
   Range separation parameter mu (erf(mu*r12)/r12)        ....  0.330000
 RI-approximation to the Coulomb term is turned on
   Number of auxiliary basis functions  .... 4047
   RIJ-COSX (HFX calculated with COS-X)).... on


General Settings:
 Integral files         IntName         .... xtbopt
 Hartree-Fock type      HFTyp           .... RHF
 Total Charge           Charge          ....    0
 Multiplicity           Mult            ....    1
 Number of Electrons    NEL             ....  616
 Basis Dimension        Dim             .... 1220
 Nuclear Repulsion      ENuc            ....  13525.9281844917 Eh

Convergence Acceleration:
 DIIS                   CNVDIIS         .... on
   Start iteration      DIISMaxIt       ....    12
   Startup error        DIISStart       ....  0.200000
   # of expansion vecs  DIISMaxEq       ....     5
   Bias factor          DIISBfac        ....   1.050
   Max. coefficient     DIISMaxC        ....  10.000
 Newton-Raphson         CNVNR           .... off
 SOSCF                  CNVSOSCF        .... on
   Start iteration      SOSCFMaxIt      ....   150
   Startup grad/error   SOSCFStart      ....  0.003300
 Level Shifting         CNVShift        .... on
   Level shift para.    LevelShift      ....    0.2500
   Turn off err/grad.   ShiftErr        ....    0.0010
 Zerner damping         CNVZerner       .... off
 Static damping         CNVDamp         .... on
   Fraction old density DampFac         ....    0.7000
   Max. Damping (<1)    DampMax         ....    0.9800
   Min. Damping (>=0)   DampMin         ....    0.0000
   Turn off err/grad.   DampErr         ....    0.1000
 Fernandez-Rico         CNVRico         .... off

SCF Procedure:
 Maximum # iterations   MaxIter         ....   125
 SCF integral mode      SCFMode         .... Direct
   Integral package                     .... LIBINT
 Reset frequency        DirectResetFreq ....    20
 Integral Threshold     Thresh          ....  2.500e-11 Eh
 Primitive CutOff       TCut            ....  2.500e-12 Eh

Convergence Tolerance:
 Convergence Check Mode ConvCheckMode   .... Total+1el-Energy
 Convergence forced     ConvForced      .... 1
 Energy Change          TolE            ....  1.000e-08 Eh
 1-El. energy change                    ....  1.000e-05 Eh
 Orbital Gradient       TolG            ....  1.000e-05
 Orbital Rotation angle TolX            ....  1.000e-05
 DIIS Error             TolErr          ....  5.000e-07


Diagonalization of the overlap matrix:
Smallest eigenvalue                        ... 1.063e-04
Time for diagonalization                   ...    0.756 sec
Threshold for overlap eigenvalues          ... 1.000e-08
Number of eigenvalues below threshold      ... 0
Time for construction of square roots      ...    0.156 sec
Total time needed                          ...    0.916 sec

-------------------
DFT GRID GENERATION
-------------------

General Integration Accuracy     IntAcc      ...  4.670
Radial Grid Type                 RadialGrid  ... Gauss-Chebyshev
Angular Grid (max. acc.)         AngularGrid ... Lebedev-302
Angular grid pruning method      GridPruning ... 3 (G Style)
Weight generation scheme         WeightScheme... Becke
Basis function cutoff            BFCut       ...    1.0000e-11
Integration weight cutoff        WCut        ...    1.0000e-14
Grids for H and He will be reduced by one unit

# of grid points (after initial pruning)     ... 544806 (   0.0 sec)
# of grid points (after weights+screening)   ... 472479 (   7.4 sec)
nearest neighbour list constructed           ...    0.0 sec
Grid point re-assignment to atoms done       ...    0.1 sec
Grid point division into batches done        ...    1.8 sec
Reduced shell lists constructed in    2.6 sec

Total number of grid points                  ...   472479
Total number of batches                      ...     7432
Average number of points per batch           ...       63
Average number of grid points per atom       ...     5080
Average number of shells per batch           ...    77.20 (14.35%)
Average number of basis functions per batch  ...   167.50 (13.73%)
Average number of large shells per batch     ...    51.15 (66.26%)
Average number of large basis fcns per batch ...   111.86 (66.78%)
Maximum spatial batch extension              ...  20.38, 17.86, 18.16 au
Average spatial batch extension              ...   0.39,  0.33,  0.36 au

Time for grid setup =   11.064 sec

------------------------------
INITIAL GUESS: MODEL POTENTIAL
------------------------------
Loading Hartree-Fock densities                     ... done
Calculating cut-offs                               ... done
Setting up the integral package                    ... done
Initializing the effective Hamiltonian             ... done
Starting the Coulomb interaction                   ... done (   1.2 sec)
Reading the grid                                   ... done
Mapping shells                                     ... done
Starting the XC term evaluation                    ... done (   1.9 sec)
  promolecular density results
     # of electrons  =    615.993175211
     EX              =   -656.336807094
     EC              =    -21.977911856
     EX+EC           =   -678.314718950
Transforming the Hamiltonian                       ... done (   0.1 sec)
Diagonalizing the Hamiltonian                      ... done (   0.8 sec)
Back transforming the eigenvectors                 ... done (   0.1 sec)
Now organizing SCF variables                       ... done
                      ------------------
                      INITIAL GUESS DONE (  15.3 sec)
                      ------------------
--------------------
COSX GRID GENERATION
--------------------

General Integration Accuracy     IntAcc      ...  3.340
Radial Grid Type                 RadialGrid  ... Gauss-Chebyshev
Angular Grid (max. acc.)         AngularGrid ... Lebedev-50
Angular grid pruning method      GridPruning ... 3 (G Style)
Weight generation scheme         WeightScheme... Becke
Basis function cutoff            BFCut       ...    1.0000e-11
Integration weight cutoff        WCut        ...    1.0000e-14
Grids for H and He will be reduced by one unit

# of grid points (after initial pruning)     ...  51546 (   0.0 sec)
# of grid points (after weights+screening)   ...  46764 (   0.6 sec)
nearest neighbour list constructed           ...    0.0 sec
Grid point re-assignment to atoms done       ...    0.0 sec
Grid point division into batches done        ...    0.0 sec
Reduced shell lists constructed in    0.1 sec

Total number of grid points                  ...    46764
Total number of batches                      ...      780
Average number of points per batch           ...       59
Average number of grid points per atom       ...      503
Average number of shells per batch           ...    90.99 (16.91%)
Average number of basis functions per batch  ...   199.79 (16.38%)
Average number of large shells per batch     ...    60.50 (66.49%)
Average number of large basis fcns per batch ...   134.46 (67.30%)
Maximum spatial batch extension              ...  21.60, 16.02, 19.80 au
Average spatial batch extension              ...   0.95,  0.62,  0.83 au

Overlap Fitting                  UseSFitting ... on
Constructing numerical overlap ... done (      0.2 sec)
Inverting numerical overlap    ... done (      0.1 sec)
Obtaining analytic overlap     ... done (      0.0 sec)
Final contraction and storage  ... done (      0.1 sec)


General Integration Accuracy     IntAcc      ...  3.670
Radial Grid Type                 RadialGrid  ... Gauss-Chebyshev
Angular Grid (max. acc.)         AngularGrid ... Lebedev-50
Angular grid pruning method      GridPruning ... 3 (G Style)
Weight generation scheme         WeightScheme... Becke
Basis function cutoff            BFCut       ...    1.0000e-11
Integration weight cutoff        WCut        ...    1.0000e-14
Grids for H and He will be reduced by one unit

# of grid points (after initial pruning)     ...  63634 (   0.0 sec)
# of grid points (after weights+screening)   ...  57530 (   0.8 sec)
nearest neighbour list constructed           ...    0.0 sec
Grid point re-assignment to atoms done       ...    0.0 sec
Grid point division into batches done        ...    0.0 sec
Reduced shell lists constructed in    0.1 sec

Total number of grid points                  ...    57530
Total number of batches                      ...      960
Average number of points per batch           ...       59
Average number of grid points per atom       ...      619
Average number of shells per batch           ...    90.23 (16.77%)
Average number of basis functions per batch  ...   197.75 (16.21%)
Average number of large shells per batch     ...    59.98 (66.48%)
Average number of large basis fcns per batch ...   133.05 (67.28%)
Maximum spatial batch extension              ...  20.77, 17.00, 21.58 au
Average spatial batch extension              ...   0.90,  0.60,  0.79 au

Overlap Fitting                  UseSFitting ... on
Constructing numerical overlap ... done (      0.2 sec)
Inverting numerical overlap    ... done (      0.1 sec)
Obtaining analytic overlap     ... done (      0.0 sec)
Final contraction and storage  ... done (      0.1 sec)


General Integration Accuracy     IntAcc      ...  4.010
Radial Grid Type                 RadialGrid  ... Gauss-Chebyshev
Angular Grid (max. acc.)         AngularGrid ... Lebedev-110
Angular grid pruning method      GridPruning ... 3 (G Style)
Weight generation scheme         WeightScheme... Becke
Basis function cutoff            BFCut       ...    1.0000e-11
Integration weight cutoff        WCut        ...    1.0000e-14
Grids for H and He will be reduced by one unit

# of grid points (after initial pruning)     ... 127132 (   0.0 sec)
# of grid points (after weights+screening)   ... 113442 (   1.4 sec)
nearest neighbour list constructed           ...    0.0 sec
Grid point re-assignment to atoms done       ...    0.0 sec
Grid point division into batches done        ...    0.1 sec
Reduced shell lists constructed in    0.3 sec

Total number of grid points                  ...   113442
Total number of batches                      ...     1817
Average number of points per batch           ...       62
Average number of grid points per atom       ...     1220
Average number of shells per batch           ...    85.46 (15.88%)
Average number of basis functions per batch  ...   186.90 (15.32%)
Average number of large shells per batch     ...    57.06 (66.77%)
Average number of large basis fcns per batch ...   125.98 (67.41%)
Maximum spatial batch extension              ...  23.91, 15.58, 19.94 au
Average spatial batch extension              ...   0.70,  0.49,  0.61 au

Overlap Fitting                  UseSFitting ... on
Constructing numerical overlap ... done (      0.4 sec)
Inverting numerical overlap    ... done (      0.1 sec)
Obtaining analytic overlap     ... done (      0.0 sec)
Final contraction and storage  ... done (      0.1 sec)

Time for X-Grid setup             =    6.433 sec
--------------
SCF ITERATIONS
--------------
ITER       Energy         Delta-E        Max-DP      RMS-DP      [F,P]     Damp
               ***  Starting incremental Fock matrix formation  ***
  0  -7461.8607315568   0.000000000000 0.09390371  0.00105181  0.2427217 0.7000
  1  -7462.5425876060  -0.681856049172 0.04696836  0.00072265  0.0991489 0.7000
                               ***Turning on DIIS***
  2  -7462.8153907509  -0.272803144901 0.10162077  0.00127517  0.0328867 0.0000
  3  -7463.2755485964  -0.460157845500 0.07955535  0.00053650  0.0708476 0.0000
  4  -7463.3636169865  -0.088068390127 0.01663439  0.00018366  0.0216683 0.0000
  5  -7463.3721895316  -0.008572545030 0.00771864  0.00008194  0.0070929 0.0000
  6  -7463.3739263652  -0.001736833645 0.00331460  0.00004751  0.0032749 0.0000
  7  -7463.3747463075  -0.000819942281 0.00203460  0.00003247  0.0011314 0.0000
                      *** Initiating the SOSCF procedure ***
                           *** Shutting down DIIS ***
                      *** Re-Reading the Fockian *** 
                      *** Removing any level shift *** 
ITER      Energy       Delta-E        Grad      Rot      Max-DP    RMS-DP
  8  -7463.37515762  -0.0004113109  0.002973  0.002973  0.002798  0.000047
               *** Restarting incremental Fock matrix formation ***
  9  -7463.37549118  -0.0003335574  0.000684  0.004559  0.001569  0.000020
 10  -7463.37551788  -0.0000267076  0.000604  0.004185  0.001079  0.000014
 11  -7463.37555722  -0.0000393360  0.000131  0.001548  0.000777  0.000008
 12  -7463.37555601   0.0000012067  0.000142  0.000614  0.000404  0.000004
 13  -7463.37556115  -0.0000051373  0.000023  0.000073  0.000158  0.000001
 14  -7463.37556106   0.0000000919  0.000029  0.000047  0.000117  0.000001
 15  -7463.37556129  -0.0000002316  0.000005  0.000044  0.000036  0.000000
 16  -7463.37556131  -0.0000000223  0.000008  0.000016  0.000021  0.000000
                  ***Gradient check signals convergence***
              ***Rediagonalizing the Fockian in SOSCF/NRSCF***

               *****************************************************
               *                     SUCCESS                       *
               *           SCF CONVERGED AFTER  17 CYCLES          *
               *****************************************************

Setting up the final grid:

General Integration Accuracy     IntAcc      ...  5.010
Radial Grid Type                 RadialGrid  ... Gauss-Chebyshev
Angular Grid (max. acc.)         AngularGrid ... Lebedev-434
Angular grid pruning method      GridPruning ... 3 (G Style)
Weight generation scheme         WeightScheme... Becke
Basis function cutoff            BFCut       ...    1.0000e-11
Integration weight cutoff        WCut        ...    1.0000e-14
Grids for H and He will be reduced by one unit

# of grid points (after initial pruning)     ... 950076 (   0.0 sec)
# of grid points (after weights+screening)   ... 821496 (  10.1 sec)
nearest neighbour list constructed           ...    0.0 sec
Grid point re-assignment to atoms done       ...    0.1 sec
Grid point division into batches done        ...    5.8 sec
Reduced shell lists constructed in    7.1 sec

Total number of grid points                  ...   821496
Total number of batches                      ...    12882
Average number of points per batch           ...       63
Average number of grid points per atom       ...     8833
Average number of shells per batch           ...    74.45 (13.84%)
Average number of basis functions per batch  ...   161.18 (13.21%)
Average number of large shells per batch     ...    49.34 (66.28%)
Average number of large basis fcns per batch ...   107.78 (66.87%)
Maximum spatial batch extension              ...  20.12, 18.44, 19.29 au
Average spatial batch extension              ...   0.31,  0.28,  0.30 au

Final grid set up in   17.9 sec
Final integration                            ... done (   2.9 sec)
Change in XC energy                          ...    -0.000085311
Integrated number of electrons               ...   615.999983940
Previous integrated no of electrons          ...   615.999979837
Old exchange energy                            =   -174.556470166 Eh
New exchange energy                            =   -174.553093796 Eh
Exchange energy change after final integration =      0.003376371 Eh
Total energy after final integration           =  -7463.372270227 Eh
Final COS-X integration done in                =    61.431 sec

----------------
TOTAL SCF ENERGY
----------------

Total Energy       :        -7463.37227023 Eh         -203088.68430 eV

Components:
Nuclear Repulsion  :        13525.92818449 Eh          368059.21767 eV
Electronic Energy  :       -20989.30045472 Eh         -571147.90197 eV
One Electron Energy:       -37198.12637442 Eh        -1012212.47854 eV
Two Electron Energy:        16208.82591970 Eh          441064.57656 eV

Virial components:
Potential Energy   :       -14891.26415443 Eh         -405211.89822 eV
Kinetic Energy     :         7427.89188420 Eh          202123.21391 eV
Virial Ratio       :            2.00477664


DFT components:
N(Alpha)           :      307.999991970215 electrons
N(Beta)            :      307.999991970215 electrons
N(Total)           :      615.999983940431 electrons
E(XC)              :     -512.281375461645 Eh       
DFET-embed. en.    :        0.000000000000 Eh       

---------------
SCF CONVERGENCE
---------------

  Last Energy change         ...    2.5497e-08  Tolerance :   1.0000e-08
  Last MAX-Density change    ...    1.0214e-14  Tolerance :   1.0000e-07
  Last RMS-Density change    ...    4.1014e-17  Tolerance :   5.0000e-09
  Last Orbital Gradient      ...    1.9971e-06  Tolerance :   1.0000e-05
  Last Orbital Rotation      ...    2.2837e-05  Tolerance :   1.0000e-05

             **** THE GBW FILE WAS UPDATED (xtbopt.gbw) ****
             **** DENSITY FILE WAS UPDATED (xtbopt.scfp) ****
             **** ENERGY FILE WAS UPDATED (xtbopt.en.tmp) ****
             **** THE GBW FILE WAS UPDATED (xtbopt.gbw) ****
             **** DENSITY FILE WAS UPDATED (xtbopt.scfp) ****
----------------
ORBITAL ENERGIES
----------------

  NO   OCC          E(Eh)            E(eV) 
   0   2.0000    -101.604848     -2764.8085 
   1   2.0000    -101.604795     -2764.8070 
   2   2.0000    -101.602912     -2764.7558 
   3   2.0000    -101.600705     -2764.6957 
   4   2.0000     -89.060269     -2423.4531 
   5   2.0000     -88.975903     -2421.1574 
   6   2.0000     -88.975244     -2421.1395 
   7   2.0000     -88.971876     -2421.0478 
   8   2.0000     -88.971789     -2421.0455 
   9   2.0000     -88.967479     -2420.9282 
  10   2.0000     -88.966445     -2420.9001 
  11   2.0000     -19.219553      -522.9906 
  12   2.0000     -19.214671      -522.8578 
  13   2.0000     -14.479799      -394.0154 
  14   2.0000     -14.479598      -394.0099 
  15   2.0000     -14.469363      -393.7314 
  16   2.0000     -14.469190      -393.7267 
  17   2.0000     -14.442241      -392.9934 
  18   2.0000     -14.442157      -392.9911 
  19   2.0000     -14.416799      -392.3010 
  20   2.0000     -14.415775      -392.2732 
  21   2.0000     -14.413502      -392.2113 
  22   2.0000     -14.411988      -392.1701 
  23   2.0000     -10.398887      -282.9681 
  24   2.0000     -10.398626      -282.9610 
  25   2.0000     -10.370420      -282.1935 
  26   2.0000     -10.366590      -282.0893 
  27   2.0000     -10.361716      -281.9566 
  28   2.0000     -10.361446      -281.9493 
  29   2.0000     -10.359968      -281.9091 
  30   2.0000     -10.359729      -281.9026 
  31   2.0000     -10.344170      -281.4792 
  32   2.0000     -10.342917      -281.4451 
  33   2.0000     -10.342291      -281.4281 
  34   2.0000     -10.341671      -281.4112 
  35   2.0000     -10.341609      -281.4095 
  36   2.0000     -10.341393      -281.4036 
  37   2.0000     -10.341039      -281.3940 
  38   2.0000     -10.340879      -281.3896 
  39   2.0000     -10.337236      -281.2905 
  40   2.0000     -10.336178      -281.2617 
  41   2.0000     -10.335508      -281.2435 
  42   2.0000     -10.335318      -281.2383 
  43   2.0000     -10.334537      -281.2171 
  44   2.0000     -10.334090      -281.2049 
  45   2.0000     -10.325821      -280.9799 
  46   2.0000     -10.325789      -280.9790 
  47   2.0000     -10.324648      -280.9479 
  48   2.0000     -10.324299      -280.9385 
  49   2.0000     -10.324145      -280.9343 
  50   2.0000     -10.322129      -280.8794 
  51   2.0000     -10.321940      -280.8743 
  52   2.0000     -10.320837      -280.8442 
  53   2.0000     -10.320447      -280.8336 
  54   2.0000     -10.319078      -280.7964 
  55   2.0000     -10.318919      -280.7921 
  56   2.0000     -10.318650      -280.7848 
  57   2.0000     -10.316591      -280.7287 
  58   2.0000     -10.314849      -280.6813 
  59   2.0000     -10.314164      -280.6627 
  60   2.0000     -10.314015      -280.6586 
  61   2.0000     -10.308341      -280.5042 
  62   2.0000     -10.306066      -280.4423 
  63   2.0000     -10.304565      -280.4015 
  64   2.0000     -10.303015      -280.3593 
  65   2.0000     -10.302974      -280.3582 
  66   2.0000     -10.302576      -280.3473 
  67   2.0000     -10.302053      -280.3331 
  68   2.0000     -10.301778      -280.3256 
  69   2.0000     -10.300261      -280.2844 
  70   2.0000     -10.299000      -280.2500 
  71   2.0000     -10.298726      -280.2426 
  72   2.0000     -10.295799      -280.1629 
  73   2.0000     -10.295459      -280.1537 
  74   2.0000     -10.292203      -280.0651 
  75   2.0000     -10.291980      -280.0590 
  76   2.0000     -10.290031      -280.0060 
  77   2.0000     -10.289999      -280.0051 
  78   2.0000     -10.289017      -279.9784 
  79   2.0000      -9.559585      -260.1295 
  80   2.0000      -9.559567      -260.1290 
  81   2.0000      -9.557497      -260.0727 
  82   2.0000      -9.555312      -260.0133 
  83   2.0000      -8.151481      -221.8131 
  84   2.0000      -8.070240      -219.6024 
  85   2.0000      -8.070121      -219.5991 
  86   2.0000      -8.065008      -219.4600 
  87   2.0000      -8.064927      -219.4578 
  88   2.0000      -8.063861      -219.4288 
  89   2.0000      -8.062757      -219.3988 
  90   2.0000      -7.329662      -199.4503 
  91   2.0000      -7.329628      -199.4493 
  92   2.0000      -7.327682      -199.3964 
  93   2.0000      -7.325461      -199.3359 
  94   2.0000      -7.319676      -199.1785 
  95   2.0000      -7.319676      -199.1785 
  96   2.0000      -7.319605      -199.1766 
  97   2.0000      -7.319569      -199.1756 
  98   2.0000      -7.317585      -199.1216 
  99   2.0000      -7.317407      -199.1168 
 100   2.0000      -7.315428      -199.0629 
 101   2.0000      -7.315211      -199.0570 
 102   2.0000      -6.122585      -166.6040 
 103   2.0000      -6.114645      -166.3879 
 104   2.0000      -6.114350      -166.3799 
 105   2.0000      -6.039755      -164.3501 
 106   2.0000      -6.039432      -164.3413 
 107   2.0000      -6.035333      -164.2298 
 108   2.0000      -6.035212      -164.2265 
 109   2.0000      -6.034805      -164.2154 
 110   2.0000      -6.034659      -164.2114 
 111   2.0000      -6.033376      -164.1765 
 112   2.0000      -6.032270      -164.1464 
 113   2.0000      -6.032143      -164.1429 
 114   2.0000      -6.032087      -164.1414 
 115   2.0000      -6.029900      -164.0819 
 116   2.0000      -6.029851      -164.0806 
 117   2.0000      -6.029072      -164.0594 
 118   2.0000      -6.027961      -164.0291 
 119   2.0000      -6.026694      -163.9947 
 120   2.0000      -6.026637      -163.9931 
 121   2.0000      -6.025489      -163.9619 
 122   2.0000      -6.024408      -163.9325 
 123   2.0000      -1.157792       -31.5051 
 124   2.0000      -1.140229       -31.0272 
 125   2.0000      -1.134667       -30.8759 
 126   2.0000      -1.130392       -30.7595 
 127   2.0000      -1.068657       -29.0796 
 128   2.0000      -1.033863       -28.1328 
 129   2.0000      -1.032216       -28.0880 
 130   2.0000      -1.026826       -27.9414 
 131   2.0000      -1.021041       -27.7839 
 132   2.0000      -1.020143       -27.7595 
 133   2.0000      -1.017809       -27.6960 
 134   2.0000      -1.013420       -27.5766 
 135   2.0000      -1.010462       -27.4961 
 136   2.0000      -1.008236       -27.4355 
 137   2.0000      -1.007998       -27.4290 
 138   2.0000      -1.004971       -27.3467 
 139   2.0000      -0.993286       -27.0287 
 140   2.0000      -0.993143       -27.0248 
 141   2.0000      -0.992484       -27.0069 
 142   2.0000      -0.985638       -26.8206 
 143   2.0000      -0.985164       -26.8077 
 144   2.0000      -0.967004       -26.3135 
 145   2.0000      -0.963875       -26.2284 
 146   2.0000      -0.957632       -26.0585 
 147   2.0000      -0.952769       -25.9262 
 148   2.0000      -0.930842       -25.3295 
 149   2.0000      -0.930596       -25.3228 
 150   2.0000      -0.924228       -25.1495 
 151   2.0000      -0.915088       -24.9008 
 152   2.0000      -0.906998       -24.6807 
 153   2.0000      -0.902661       -24.5627 
 154   2.0000      -0.888000       -24.1637 
 155   2.0000      -0.882926       -24.0256 
 156   2.0000      -0.881763       -23.9940 
 157   2.0000      -0.880636       -23.9633 
 158   2.0000      -0.863550       -23.4984 
 159   2.0000      -0.858551       -23.3624 
 160   2.0000      -0.850573       -23.1453 
 161   2.0000      -0.836243       -22.7553 
 162   2.0000      -0.832441       -22.6519 
 163   2.0000      -0.831391       -22.6233 
 164   2.0000      -0.824259       -22.4292 
 165   2.0000      -0.823513       -22.4089 
 166   2.0000      -0.822488       -22.3810 
 167   2.0000      -0.818331       -22.2679 
 168   2.0000      -0.813364       -22.1328 
 169   2.0000      -0.797481       -21.7006 
 170   2.0000      -0.779954       -21.2236 
 171   2.0000      -0.767905       -20.8958 
 172   2.0000      -0.758550       -20.6412 
 173   2.0000      -0.756830       -20.5944 
 174   2.0000      -0.753689       -20.5089 
 175   2.0000      -0.739071       -20.1111 
 176   2.0000      -0.722402       -19.6576 
 177   2.0000      -0.721239       -19.6259 
 178   2.0000      -0.718906       -19.5624 
 179   2.0000      -0.709539       -19.3075 
 180   2.0000      -0.698103       -18.9964 
 181   2.0000      -0.694458       -18.8972 
 182   2.0000      -0.690123       -18.7792 
 183   2.0000      -0.686958       -18.6931 
 184   2.0000      -0.685079       -18.6420 
 185   2.0000      -0.676263       -18.4021 
 186   2.0000      -0.668063       -18.1789 
 187   2.0000      -0.663116       -18.0443 
 188   2.0000      -0.662676       -18.0323 
 189   2.0000      -0.660777       -17.9807 
 190   2.0000      -0.656491       -17.8640 
 191   2.0000      -0.648031       -17.6338 
 192   2.0000      -0.639967       -17.4144 
 193   2.0000      -0.637450       -17.3459 
 194   2.0000      -0.631756       -17.1910 
 195   2.0000      -0.627224       -17.0676 
 196   2.0000      -0.620985       -16.8979 
 197   2.0000      -0.619767       -16.8647 
 198   2.0000      -0.615235       -16.7414 
 199   2.0000      -0.610909       -16.6237 
 200   2.0000      -0.606412       -16.5013 
 201   2.0000      -0.597304       -16.2535 
 202   2.0000      -0.596115       -16.2211 
 203   2.0000      -0.594818       -16.1858 
 204   2.0000      -0.586647       -15.9635 
 205   2.0000      -0.585161       -15.9230 
 206   2.0000      -0.578733       -15.7481 
 207   2.0000      -0.572884       -15.5890 
 208   2.0000      -0.570929       -15.5358 
 209   2.0000      -0.560714       -15.2578 
 210   2.0000      -0.557864       -15.1803 
 211   2.0000      -0.549995       -14.9661 
 212   2.0000      -0.547966       -14.9109 
 213   2.0000      -0.543419       -14.7872 
 214   2.0000      -0.541475       -14.7343 
 215   2.0000      -0.540285       -14.7019 
 216   2.0000      -0.538659       -14.6577 
 217   2.0000      -0.536966       -14.6116 
 218   2.0000      -0.534181       -14.5358 
 219   2.0000      -0.533236       -14.5101 
 220   2.0000      -0.531558       -14.4644 
 221   2.0000      -0.529905       -14.4194 
 222   2.0000      -0.529495       -14.4083 
 223   2.0000      -0.524930       -14.2841 
 224   2.0000      -0.519128       -14.1262 
 225   2.0000      -0.517828       -14.0908 
 226   2.0000      -0.513470       -13.9722 
 227   2.0000      -0.511725       -13.9247 
 228   2.0000      -0.509879       -13.8745 
 229   2.0000      -0.507117       -13.7993 
 230   2.0000      -0.505255       -13.7487 
 231   2.0000      -0.502743       -13.6803 
 232   2.0000      -0.502602       -13.6765 
 233   2.0000      -0.502166       -13.6646 
 234   2.0000      -0.501231       -13.6392 
 235   2.0000      -0.499841       -13.6014 
 236   2.0000      -0.494899       -13.4669 
 237   2.0000      -0.493540       -13.4299 
 238   2.0000      -0.492469       -13.4008 
 239   2.0000      -0.491231       -13.3671 
 240   2.0000      -0.490131       -13.3371 
 241   2.0000      -0.487877       -13.2758 
 242   2.0000      -0.484414       -13.1816 
 243   2.0000      -0.482613       -13.1326 
 244   2.0000      -0.476529       -12.9670 
 245   2.0000      -0.471858       -12.8399 
 246   2.0000      -0.471019       -12.8171 
 247   2.0000      -0.467246       -12.7144 
 248   2.0000      -0.465202       -12.6588 
 249   2.0000      -0.463678       -12.6173 
 250   2.0000      -0.462223       -12.5777 
 251   2.0000      -0.461293       -12.5524 
 252   2.0000      -0.456359       -12.4182 
 253   2.0000      -0.454829       -12.3765 
 254   2.0000      -0.452714       -12.3190 
 255   2.0000      -0.451124       -12.2757 
 256   2.0000      -0.449493       -12.2313 
 257   2.0000      -0.448785       -12.2121 
 258   2.0000      -0.447789       -12.1850 
 259   2.0000      -0.444419       -12.0932 
 260   2.0000      -0.442485       -12.0406 
 261   2.0000      -0.441643       -12.0177 
 262   2.0000      -0.440877       -11.9969 
 263   2.0000      -0.439711       -11.9651 
 264   2.0000      -0.438382       -11.9290 
 265   2.0000      -0.435450       -11.8492 
 266   2.0000      -0.432702       -11.7744 
 267   2.0000      -0.432623       -11.7723 
 268   2.0000      -0.432440       -11.7673 
 269   2.0000      -0.431184       -11.7331 
 270   2.0000      -0.428000       -11.6465 
 271   2.0000      -0.425740       -11.5850 
 272   2.0000      -0.425653       -11.5826 
 273   2.0000      -0.421516       -11.4700 
 274   2.0000      -0.421205       -11.4616 
 275   2.0000      -0.419593       -11.4177 
 276   2.0000      -0.417586       -11.3631 
 277   2.0000      -0.412956       -11.2371 
 278   2.0000      -0.409372       -11.1396 
 279   2.0000      -0.407895       -11.0994 
 280   2.0000      -0.405058       -11.0222 
 281   2.0000      -0.400728       -10.9044 
 282   2.0000      -0.397306       -10.8112 
 283   2.0000      -0.392553       -10.6819 
 284   2.0000      -0.387646       -10.5484 
 285   2.0000      -0.385402       -10.4873 
 286   2.0000      -0.384784       -10.4705 
 287   2.0000      -0.382358       -10.4045 
 288   2.0000      -0.374558       -10.1922 
 289   2.0000      -0.371270       -10.1028 
 290   2.0000      -0.364008        -9.9052 
 291   2.0000      -0.361015        -9.8237 
 292   2.0000      -0.352874        -9.6022 
 293   2.0000      -0.345577        -9.4036 
 294   2.0000      -0.341836        -9.3018 
 295   2.0000      -0.339379        -9.2350 
 296   2.0000      -0.333466        -9.0741 
 297   2.0000      -0.330800        -9.0015 
 298   2.0000      -0.328758        -8.9460 
 299   2.0000      -0.322002        -8.7621 
 300   2.0000      -0.321552        -8.7499 
 301   2.0000      -0.314349        -8.5539 
 302   2.0000      -0.313919        -8.5422 
 303   2.0000      -0.306218        -8.3326 
 304   2.0000      -0.295858        -8.0507 
 305   2.0000      -0.293857        -7.9963 
 306   2.0000      -0.274524        -7.4702 
 307   2.0000      -0.245185        -6.6718 
 308   0.0000      -0.143156        -3.8955 
 309   0.0000      -0.094752        -2.5783 
 310   0.0000      -0.092455        -2.5158 
 311   0.0000      -0.068157        -1.8546 
 312   0.0000      -0.060861        -1.6561 
 313   0.0000      -0.056769        -1.5448 
 314   0.0000      -0.051753        -1.4083 
 315   0.0000      -0.034620        -0.9421 
 316   0.0000      -0.022895        -0.6230 
 317   0.0000      -0.006376        -0.1735 
 318   0.0000       0.002216         0.0603 
 319   0.0000       0.017565         0.4780 
 320   0.0000       0.028464         0.7746 
 321   0.0000       0.036432         0.9914 
 322   0.0000       0.037429         1.0185 
 323   0.0000       0.037466         1.0195 
 324   0.0000       0.039698         1.0802 
 325   0.0000       0.043415         1.1814 
 326   0.0000       0.048029         1.3069 
 327   0.0000       0.053987         1.4691 
 328   0.0000       0.057467         1.5638 
[...]
  59   4.825     256.9   0.248141   0.216275  65.314485  88.823138     0.19 ( 104-> 115)    0.14 ( 107-> 115)    0.05 ( 104-> 113)
  60   4.870     254.6   0.309143   0.255150  -178.144562  -198.405478     0.23 ( 105-> 116)    0.09 ( 106-> 116)    0.05 (  89-> 112)
  61   4.879     254.1   0.053751   0.044079  -73.717703  -67.313441     0.19 (  97-> 114)    0.08 (  95-> 113)    0.08 ( 106-> 117)
  62   4.923     251.8   0.070611   0.057990  157.666214  147.961442     0.12 (  97-> 114)    0.08 ( 110-> 119)    0.07 ( 111-> 121)
  63   4.935     251.2   0.052766   0.039919  10.063420  -6.985923     0.33 ( 110-> 119)    0.08 ( 111-> 120)    0.07 ( 107-> 117)
  64   4.950     250.5   0.020519   0.016132   6.480626   8.702883     0.40 (  81-> 112)    0.07 (  97-> 114)    0.06 (  95-> 114)
  65   4.960     250.0   0.036261   0.031835  -3.631090  -4.334966     0.32 ( 107-> 118)    0.09 ( 110-> 119)    0.06 ( 109-> 118)
  66   4.986     248.7   0.058079   0.048270  -41.394809  -47.258115     0.31 ( 111-> 121)    0.10 (  88-> 112)    0.09 (  92-> 112)

-----------------------------------------------------------------------------
         ABSORPTION SPECTRUM VIA TRANSITION ELECTRIC DIPOLE MOMENTS
-----------------------------------------------------------------------------
State   Energy  Wavelength   fosc         T2         TX        TY        TZ  
        (cm-1)    (nm)                  (au**2)     (au)      (au)      (au) 
-----------------------------------------------------------------------------
   0    7230.1   1383.1   0.665898929  30.32072  -3.97930   2.87839  -2.49014
   1   15007.2    666.3   0.023290763   0.51093   0.05532   0.38101   0.60224
   2   18923.0    528.5   0.849545131  14.77994   2.99967  -1.58972   1.80409
   3   19746.3    506.4   0.789930670  13.16977  -2.43595   1.47253  -2.25112
   4   21311.2    469.2   0.025623350   0.39583  -0.42498   0.30794  -0.34698
   5   22011.7    454.3   0.012016882   0.17973   0.24354  -0.30859   0.15871
   6   22085.4    452.8   0.001237573   0.01845   0.12958  -0.01255  -0.03871
   7   22523.2    444.0   0.002035972   0.02976  -0.03206   0.03721  -0.16537
   8   23188.8    431.2   0.055341669   0.78569   0.71199   0.02880   0.52719
   9   23915.3    418.1   0.036014019   0.49576  -0.68835   0.07025   0.13037
  10   24358.9    410.5   0.016554896   0.22374  -0.28522   0.36239  -0.10518
  11   24458.0    408.9   0.018304628   0.24639  -0.12155  -0.32187  -0.35778
  12   26142.6    382.5   0.036631715   0.46130  -0.60895  -0.23274  -0.19057
  13   26667.5    375.0   0.019689956   0.24307   0.33792   0.02966   0.35778
  14   26697.8    374.6   0.157256014   1.93914  -1.02787   0.84007  -0.42059
  15   27103.7    369.0   0.038058103   0.46227   0.04290   0.59902   0.31875
  16   27361.1    365.5   0.038115069   0.45861  -0.38071  -0.33822  -0.44640
  17   27577.9    362.6   0.082024846   0.97917   0.47490  -0.60742   0.62023
  18   27912.4    358.3   0.005031295   0.05934   0.18168  -0.14386  -0.07507
  19   27968.8    357.5   0.018187398   0.21408  -0.39400   0.13355  -0.20250
  20   28293.0    353.4   0.001445623   0.01682   0.11254  -0.02637   0.05882
  21   28849.3    346.6   0.052418184   0.59817  -0.63851   0.43627   0.01199
  22   28852.3    346.6   0.253614101   2.89380   1.62632  -0.40769   0.28752
  23   29117.7    343.4   0.132689234   1.50022  -0.71304   0.56053   0.82317
  24   29358.8    340.6   0.311151681   3.48907  -0.96839  -0.74230  -1.41431
  25   29691.6    336.8   0.026387892   0.29258  -0.39817  -0.36561   0.01921
  26   30748.9    325.2   0.042065796   0.45038  -0.17574   0.64767   0.00429
  27   30901.8    323.6   0.444467319   4.73512  -1.07906  -1.71329  -0.79711
  28   31056.0    322.0   0.069210635   0.73367  -0.09336  -0.84631  -0.09335
  29   31356.6    318.9   0.067706237   0.71085   0.47697   0.11902   0.68497
  30   31501.1    317.4   0.039590970   0.41376  -0.27772   0.52082  -0.25569
  31   31557.4    316.9   0.019545415   0.20390   0.21102  -0.35885   0.17492
  32   32330.0    309.3   0.048850764   0.49744   0.03420   0.68426   0.16750
  33   32354.1    309.1   0.080240602   0.81647  -0.82605   0.08121  -0.35710
  34   33167.3    301.5   0.100711281   0.99964  -0.01603   0.85658   0.51542
  35   33570.7    297.9   0.157699765   1.54649  -1.17976  -0.39029  -0.04821
  36   33594.4    297.7   0.047695852   0.46740   0.23870  -0.08171   0.63541
  37   33900.3    295.0   0.095739868   0.92975   0.64385   0.35505   0.62382
  38   33937.6    294.7   0.174188028   1.68971  -0.68724   0.87496   0.67220
  39   34175.1    292.6   0.323195595   3.11337  -0.57944  -1.27491  -1.07341
  40   34490.6    289.9   0.118907891   1.13497   0.74800   0.54520   0.52747
  41   34639.3    288.7   0.238565912   2.26733   0.96854  -0.82404  -0.80636
  42   34731.6    287.9   0.142340091   1.34921   1.10394  -0.10190  -0.34660
  43   34887.7    286.6   0.063894884   0.60293   0.41485   0.11073   0.64697
  44   35022.9    285.5   0.158063986   1.48579  -1.08149  -0.52269  -0.20729
  45   35269.7    283.5   0.008357241   0.07801   0.06450   0.11899   0.24431
  46   35623.2    280.7   0.028649565   0.26476  -0.40384  -0.31225   0.06464
  47   36028.1    277.6   0.149403774   1.36520   0.82874   0.65404   0.50062
  48   36266.7    275.7   0.254322649   2.30862  -0.53136  -1.39416  -0.28740
  49   36309.1    275.4   0.072920930   0.66117  -0.71461   0.25223  -0.29476
  50   36732.1    272.2   0.013838080   0.12402   0.19340   0.28136   0.08635
  51   37287.9    268.2   0.001527812   0.01349  -0.01958  -0.10063  -0.05459
  52   37727.2    265.1   0.003569741   0.03115   0.12210   0.11394  -0.05710
  53   37821.2    264.4   0.086531297   0.75321  -0.56945  -0.57264  -0.31783
  54   38219.3    261.6   0.028888165   0.24884  -0.12949   0.45125  -0.16866
  55   38359.3    260.7   0.022608454   0.19403   0.18962  -0.36769   0.15126
  56   38601.5    259.1   0.017683153   0.15081  -0.29936   0.07882  -0.23448
  57   38743.9    258.1   0.016793472   0.14270   0.18554   0.29641   0.14286
  58   38884.9    257.2   0.077689081   0.65774  -0.28613  -0.73269  -0.19758
  59   38918.4    256.9   0.248141054   2.09903   1.06768   0.81139   0.54839
  60   39276.4    254.6   0.309143086   2.59122  -0.07731  -1.60537   0.08968
  61   39348.3    254.1   0.053750884   0.44971  -0.17418   0.54320   0.35257
  62   39706.5    251.8   0.070611117   0.58545  -0.03549  -0.72969  -0.22747
  63   39801.7    251.2   0.052766370   0.43645   0.11082  -0.49500  -0.42325
  64   39922.8    250.5   0.020519209   0.16921   0.01127   0.39829   0.10219
  65   40002.0    250.0   0.036260800   0.29842   0.42328  -0.20395   0.27869
  66   40213.9    248.7   0.058078577   0.47546   0.46614   0.40494   0.30692

-----------------------------------------------------------------------------
         ABSORPTION SPECTRUM VIA TRANSITION VELOCITY DIPOLE MOMENTS
-----------------------------------------------------------------------------
State   Energy  Wavelength   fosc         P2         PX        PY        PZ  
        (cm-1)    (nm)                  (au**2)     (au)      (au)      (au) 
-----------------------------------------------------------------------------
   0    7230.1   1383.1   1.861713504   0.09199  -0.21766   0.16238  -0.13511
   1   15007.2    666.3   0.027258729   0.00280   0.00219   0.02740   0.04517
   2   18923.0    528.5   0.876766689   0.11339   0.26431  -0.13484   0.15921
   3   19746.3    506.4   0.800857053   0.10808  -0.21835   0.13578  -0.20487
   4   21311.2    469.2   0.017040000   0.00248  -0.03321   0.02378  -0.02852
   5   22011.7    454.3   0.012264603   0.00185   0.03013  -0.02488   0.01785
   6   22085.4    452.8   0.001719253   0.00026   0.01348  -0.00801  -0.00372
   7   22523.2    444.0   0.003482375   0.00054  -0.00364   0.00225  -0.02275
   8   23188.8    431.2   0.057105362   0.00905   0.07682   0.00553   0.05584
   9   23915.3    418.1   0.034582924   0.00565  -0.07343   0.00796   0.01405
  10   24358.9    410.5   0.020583399   0.00343  -0.03557   0.04429  -0.01414
  11   24458.0    408.9   0.018445764   0.00308  -0.01159  -0.03871  -0.03809
  12   26142.6    382.5   0.032214205   0.00576  -0.06751  -0.02703  -0.02162
  13   26667.5    375.0   0.018974908   0.00346   0.03984   0.00501   0.04296
  14   26697.8    374.6   0.130687416   0.02385  -0.11267   0.09587  -0.04428
  15   27103.7    369.0   0.038194776   0.00708   0.00914   0.07347   0.03992
  16   27361.1    365.5   0.036383156   0.00680  -0.04488  -0.04275  -0.05443
  17   27577.9    362.6   0.081898320   0.01544   0.06166  -0.07536   0.07717
  18   27912.4    358.3   0.004510162   0.00086   0.01995  -0.01861  -0.01078
  19   27968.8    357.5   0.021994069   0.00420  -0.05328   0.02280  -0.02908
  20   28293.0    353.4   0.001256803   0.00024   0.01335  -0.00378   0.00712
  21   28849.3    346.6   0.049545349   0.00977  -0.08091   0.05677   0.00050
  22   28852.3    346.6   0.240679170   0.04746   0.20814  -0.05394   0.03502
  23   29117.7    343.4   0.124055344   0.02469  -0.09143   0.07326   0.10470
  24   29358.8    340.6   0.286024393   0.05739  -0.12293  -0.09798  -0.18078
  25   29691.6    336.8   0.026967293   0.00547  -0.05325  -0.05129   0.00245
  26   30748.9    325.2   0.040561105   0.00852  -0.02467   0.08897  -0.00016
  27   30901.8    323.6   0.416034973   0.08787  -0.14637  -0.23454  -0.10692
  28   31056.0    322.0   0.061410448   0.01303  -0.01328  -0.11257  -0.01363
  29   31356.6    318.9   0.060038384   0.01287   0.06448   0.01532   0.09205
  30   31501.1    317.4   0.035485840   0.00764  -0.03791   0.07078  -0.03453
  31   31557.4    316.9   0.018679070   0.00403   0.03031  -0.05027   0.02415
  32   32330.0    309.3   0.046216493   0.01021  -0.00281   0.09917   0.01919
  33   32354.1    309.1   0.071175798   0.01574  -0.11276   0.01801  -0.05196
  34   33167.3    301.5   0.092085040   0.02087  -0.00315   0.12446   0.07330
  35   33570.7    297.9   0.139087761   0.03191  -0.16970  -0.05556  -0.00519
  36   33594.4    297.7   0.047723677   0.01096   0.03971  -0.00774   0.09654
  37   33900.3    295.0   0.082517832   0.01912   0.09235   0.05236   0.08859
  38   33937.6    294.7   0.160428892   0.03721  -0.10011   0.13085   0.10033
  39   34175.1    292.6   0.281473267   0.06574  -0.08295  -0.18666  -0.15499
  40   34490.6    289.9   0.101368491   0.02390   0.10845   0.07957   0.07618
  41   34639.3    288.7   0.211031364   0.04996   0.14433  -0.12113  -0.12024
  42   34731.6    287.9   0.119449695   0.02835   0.15987  -0.01225  -0.05145
  43   34887.7    286.6   0.056479048   0.01347   0.06220   0.01829   0.09625
  44   35022.9    285.5   0.137992299   0.03303  -0.16178  -0.07706  -0.03032
  45   35269.7    283.5   0.008531016   0.00206   0.00821   0.01781   0.04089
  46   35623.2    280.7   0.026230802   0.00639  -0.06210  -0.04942   0.00939
  47   36028.1    277.6   0.135185455   0.03329   0.12645   0.10610   0.07772
  48   36266.7    275.7   0.229272380   0.05683  -0.08488  -0.21759  -0.04772
  49   36309.1    275.4   0.064447836   0.01599  -0.11062   0.04095  -0.04560
  50   36732.1    272.2   0.012860276   0.00323   0.03075   0.04469   0.01691
  51   37287.9    268.2   0.001348904   0.00034  -0.00569  -0.01614  -0.00713
  52   37727.2    265.1   0.003340684   0.00086   0.01921   0.01978  -0.01005
  53   37821.2    264.4   0.084670461   0.02189  -0.09365  -0.10250  -0.05108
  54   38219.3    261.6   0.021488811   0.00561  -0.01473   0.06932  -0.02430
  55   38359.3    260.7   0.016889513   0.00443   0.03132  -0.05386   0.02338
  56   38601.5    259.1   0.012366961   0.00326  -0.04315   0.01093  -0.03580
  57   38743.9    258.1   0.015667687   0.00415   0.03143   0.05099   0.02367
  58   38884.9    257.2   0.066621549   0.01771  -0.04741  -0.11964  -0.03382
  59   38918.4    256.9   0.216274664   0.05753   0.17420   0.13902   0.08863
  60   39276.4    254.6   0.255149826   0.06849  -0.01604  -0.26101   0.01032
  61   39348.3    254.1   0.044078643   0.01185  -0.02851   0.08815   0.05719
  62   39706.5    251.8   0.057990052   0.01574  -0.00600  -0.11984  -0.03661
  63   39801.7    251.2   0.039918829   0.01086   0.01795  -0.07585  -0.06916
  64   39922.8    250.5   0.016131654   0.00440   0.00181   0.06446   0.01559
  65   40002.0    250.0   0.031835148   0.00870   0.07213  -0.03624   0.04677
  66   40213.9    248.7   0.048270090   0.01327   0.07912   0.06520   0.05250

-------------------------------------------------------------------
                             CD SPECTRUM
-------------------------------------------------------------------
State   Energy Wavelength       R         MX        MY        MZ   
        (cm-1)   (nm)       (1e40*cgs)   (au)      (au)      (au)  
-------------------------------------------------------------------
   0    7230.1   1383.1     49.53257   1.87136   3.49512   1.13397
   1   15007.2    666.3     51.48380  -0.10543  -0.88631   0.20776
   2   18923.0    528.5    -193.00753  -3.16197  -4.55663   1.69610
   3   19746.3    506.4    127.31308   2.25397   4.75591   0.91189
   4   21311.2    469.2     -2.63379   0.56178   0.84426   0.02901
   5   22011.7    454.3     -1.77569  -0.40794  -0.30896   0.07273
   6   22085.4    452.8     27.61533  -0.58802  -0.01851   1.06409
   7   22523.2    444.0     -3.26096   0.37211   0.49809  -0.04370
   8   23188.8    431.2     -8.46938  -0.18182  -1.17182   0.37772
   9   23915.3    418.1    -39.92620  -0.59049  -0.87372  -1.34776
  10   24358.9    410.5     -4.97038  -0.23667   0.22148   1.20437
  11   24458.0    408.9    -27.14079  -0.20875   0.47453  -0.67779
  12   26142.6    382.5    -38.07132   0.01687   0.53051  -1.54928
  13   26667.5    375.0    -58.05789  -1.46186  -1.18519   2.16734
  14   26697.8    374.6    -63.67227  -0.78326   0.41891   2.10867
  15   27103.7    369.0     29.43111  -0.76706  -1.35461   2.25725
  16   27361.1    365.5    -22.60537   0.09545   0.95134  -1.01704
  17   27577.9    362.6    -30.48072  -1.60751  -2.46548  -0.97521
  18   27912.4    358.3    -14.50481   0.36433   0.19616  -0.31385
  19   27968.8    357.5     12.65442   0.48760   0.64460  -0.25847
  20   28293.0    353.4      0.69653  -0.04486  -0.23674  -0.07054
  21   28849.3    346.6     56.32395   0.38108   0.02976  -0.71788
  22   28852.3    346.6    -427.49561   0.77905   0.20939   2.19790
  23   29117.7    343.4    783.40422  -0.31712  -2.96667  -2.29194
  24   29358.8    340.6    -186.87701  -0.50548   2.79462  -1.68119
  25   29691.6    336.8    -31.92265  -0.00817  -0.51196  -2.86314
  26   30748.9    325.2    -67.60443  -0.19767   0.36781   3.22921
  27   30901.8    323.6    -90.51318   0.71267   2.57487  -6.98087
  28   31056.0    322.0     76.65704  -0.04048   0.64716  -2.34307
  29   31356.6    318.9     16.92754  -2.04886  -3.09951   1.86043
  30   31501.1    317.4     15.35503   0.77576   0.89936   1.24405
  31   31557.4    316.9     25.25318  -0.15540  -0.10934  -0.64929
  32   32330.0    309.3    -119.89123  -0.20370  -0.13638   3.63532
  33   32354.1    309.1     38.35745   1.24810   1.47420  -2.09614
  34   33167.3    301.5    169.92848  -1.93552  -2.98226   3.49737
  35   33570.7    297.9    -722.67266  -1.81896  -1.89714  -3.72144
  36   33594.4    297.7     40.27697  -0.01338  -1.74390  -0.48812
  37   33900.3    295.0    -350.87975   1.83312  -0.03845   0.51606
  38   33937.6    294.7    826.91535   0.15893  -2.86114  -1.33204
  39   34175.1    292.6    -191.96344  -2.64002   2.19988  -1.94640
  40   34490.6    289.9    -437.13945   1.69733  -0.32431   1.44403
  41   34639.3    288.7    835.85442   1.09264   4.27147   1.34472
  42   34731.6    287.9    167.90852   0.89117   2.80411   4.06924
  43   34887.7    286.6     62.27741  -0.49773  -2.09736   0.26975
  44   35022.9    285.5    -136.08374   0.23273   0.53710  -5.35368
  45   35269.7    283.5     -0.44142  -0.53820  -1.05820   0.66516
  46   35623.2    280.7    -74.41112  -0.67975  -0.43579  -1.46832
  47   36028.1    277.6    -78.72265  -0.87924  -1.86910   4.56448
  48   36266.7    275.7      4.95431   0.42058   1.25533  -6.79405
  49   36309.1    275.4    -65.49895   0.40790   0.87060  -1.18658
  50   36732.1    272.2    -10.17439  -0.07734  -0.26436   1.53442
  51   37287.9    268.2     -9.71735  -0.07012  -0.12945  -0.49141
  52   37727.2    265.1     -5.73628   0.23880   0.42854   0.93961
  53   37821.2    264.4     41.30871   1.58726   1.55197  -5.08866
  54   38219.3    261.6    -14.95286   1.29622   0.55955   0.12580
  55   38359.3    260.7     55.40550  -0.55850  -0.17335  -1.27518
  56   38601.5    259.1    -23.64632   1.29369   1.27778  -1.64998
  57   38743.9    258.1     33.18777  -0.47487  -0.84669   1.38797
  58   38884.9    257.2    -29.12403  -0.26379   0.82552  -3.30465
  59   38918.4    256.9     65.31448  -2.14716  -2.34616   7.14650
  60   39276.4    254.6    -178.14456  -3.38266  -0.51775  -3.75727
  61   39348.3    254.1    -73.71770  -2.13519  -2.43119   3.57789
  62   39706.5    251.8    157.66621   1.49528   2.29426  -4.65256
  63   39801.7    251.2     10.06342   1.66072   2.50746  -2.39680
  64   39922.8    250.5      6.48063  -0.34897  -0.67463   2.39879
  65   40002.0    250.0     -3.63109  -1.61618  -1.25846   1.58902
  66   40213.9    248.7    -41.39481  -1.05216  -1.48502   4.12944

sTD-DFT done

Total run time:        3.997 sec

           *** ORCA-CIS/TD-DFT FINISHED WITHOUT ERROR ***

-------------------------   --------------------
FINAL SINGLE POINT ENERGY     -7463.372270226856
-------------------------   --------------------


                            ***************************************
                            *     ORCA property calculations      *
                            ***************************************

                                    ---------------------
                                    Active property flags
                                    ---------------------
   (+) Dipole Moment


------------------------------------------------------------------------------
                       ORCA ELECTRIC PROPERTIES CALCULATION
------------------------------------------------------------------------------

Dipole Moment Calculation                       ... on
Quadrupole Moment Calculation                   ... off
Polarizability Calculation                      ... off
GBWName                                         ... xtbopt.gbw
Electron density file                           ... xtbopt.scfp
The origin for moment calculation is the CENTER OF MASS  = (-23.019677, 13.613737  4.620125)

-------------
DIPOLE MOMENT
-------------
                                X             Y             Z
Electronic contribution:      5.33811     -10.19243     -19.32237
Nuclear contribution   :     -8.07136      10.21118      21.02701
                        -----------------------------------------
Total Dipole Moment    :     -2.73325       0.01875       1.70464
                        -----------------------------------------
Magnitude (a.u.)       :      3.22130
Magnitude (Debye)      :      8.18790



--------------------
Rotational spectrum 
--------------------
 
Rotational constants in cm-1:     0.001877     0.000151     0.000145 
Rotational constants in MHz :    56.257499     4.535340     4.355553 

 Dipole components along the rotational axes: 
x,y,z [a.u.] :    -1.252981    -0.074527     2.966696 
x,y,z [Debye]:    -3.184825    -0.189433     7.540742 

 

Timings for individual modules:

Sum of individual times         ...      629.420 sec (=  10.490 min)
GTO integral calculation        ...        4.177 sec (=   0.070 min)   0.7 %
SCF iterations                  ...      620.485 sec (=  10.341 min)  98.6 %
CIS module                      ...        4.758 sec (=   0.079 min)   0.8 %
                             ****ORCA TERMINATED NORMALLY****
TOTAL RUN TIME: 0 days 0 hours 10 minutes 30 seconds 493 msec
