
                                 *****************
                                 * O   R   C   A *
                                 *****************

           --- An Ab Initio, DFT and Semiempirical electronic structure package ---

                  #######################################################
                  #                        -***-                        #
                  #          Department of theory and spectroscopy      #
                  #               Directorship: Frank Neese             #
                  #        Max Planck Institute fuer Kohlenforschung    #
                  #                Kaiser Wilhelm Platz 1               #
                  #                 D-45470 Muelheim/Ruhr               #
                  #                      Germany                        #
                  #                                                     #
                  #                  All rights reserved                #
                  #                        -***-                        #
                  #######################################################


                         Program Version 4.2.0 -  RELEASE  -


 With contributions from (in alphabetic order):
   Daniel Aravena         : Magnetic Suceptibility
   Michael Atanasov       : Ab Initio Ligand Field Theory (pilot matlab implementation)
   Alexander A. Auer      : GIAO ZORA, VPT2
   Ute Becker             : Parallelization
   Giovanni Bistoni       : ED, misc. LED, open-shell LED, HFLED
   Martin Brehm           : Molecular dynamics
   Dmytro Bykov           : SCF Hessian
   Vijay G. Chilkuri      : MRCI spin determinant printing, contributions to CSF-ICE
   Dipayan Datta          : RHF DLPNO-CCSD density
   Achintya Kumar Dutta   : EOM-CC, STEOM-CC
   Dmitry Ganyushin       : Spin-Orbit,Spin-Spin,Magnetic field MRCI
   Miquel Garcia          : C-PCM Hessian, Gaussian charge scheme
   Yang Guo               : DLPNO-NEVPT2, CIM, IAO-localization
   Andreas Hansen         : Spin unrestricted coupled pair/coupled cluster methods
   Benjamin Helmich-Paris : CASSCF linear response (MC-RPA)
   Lee Huntington         : MR-EOM, pCC
   Robert Izsak           : Overlap fitted RIJCOSX, COSX-SCS-MP3, EOM
   Christian Kollmar      : KDIIS, OOCD, Brueckner-CCSD(T), CCSD density
   Simone Kossmann        : Meta GGA functionals, TD-DFT gradient, OOMP2, MP2 Hessian
   Martin Krupicka        : AUTO-CI
   Lucas Lang             : DCDCAS
   Dagmar Lenk            : GEPOL surface, SMD
   Dimitrios Liakos       : Extrapolation schemes; Compound Job, initial MDCI parallelization
   Dimitrios Manganas     : Further ROCIS development; embedding schemes
   Dimitrios Pantazis     : SARC Basis sets
   Taras Petrenko         : DFT Hessian,TD-DFT gradient, ASA, ECA, R-Raman, ABS, FL, XAS/XES, NRVS
   Peter Pinski           : DLPNO-MP2, DLPNO-MP2 Gradient
   Christoph Reimann      : Effective Core Potentials
   Marius Retegan         : Local ZFS, SOC
   Christoph Riplinger    : Optimizer, TS searches, QM/MM, DLPNO-CCSD(T), (RO)-DLPNO pert. Triples
   Tobias Risthaus        : Range-separated hybrids, TD-DFT gradient, RPA, STAB
   Michael Roemelt        : Original ROCIS implementation
   Masaaki Saitow         : Open-shell DLPNO-CCSD energy and density
   Barbara Sandhoefer     : DKH picture change effects
   Avijit Sen             : IP-ROCIS
   Kantharuban Sivalingam : CASSCF convergence, NEVPT2, FIC-MRCI
   Bernardo de Souza      : ESD, SOC TD-DFT
   Georgi Stoychev        : AutoAux, RI-MP2 NMR
   Willem Van den Heuvel  : Paramagnetic NMR
   Boris Wezisla          : Elementary symmetry handling
   Frank Wennmohs         : Technical directorship


 We gratefully acknowledge several colleagues who have allowed us to
 interface, adapt or use parts of their codes:
   Stefan Grimme, W. Hujo, H. Kruse,             : VdW corrections, initial TS optimization,
                  C. Bannwarth                     DFT functionals, gCP, sTDA/sTD-DF
   Ed Valeev, F. Pavosevic, A. Kumar             : LibInt (2-el integral package), F12 methods
   Garnet Chan, S. Sharma, J. Yang, R. Olivares  : DMRG
   Ulf Ekstrom                                   : XCFun DFT Library
   Mihaly Kallay                                 : mrcc  (arbitrary order and MRCC methods)
   Andreas Klamt, Michael Diedenhofen            : otool_cosmo (COSMO solvation model)
   Jiri Pittner, Ondrej Demel                    : Mk-CCSD
   Frank Weinhold                                : gennbo (NPA and NBO analysis)
   Christopher J. Cramer and Donald G. Truhlar   : smd solvation model
   Lars Goerigk                                  : TD-DFT with DH, B97 family of functionals
   V. Asgeirsson, H. Jonsson                     : NEB implementation
   FAccTs GmbH                                   : IRC, NEB, NEB-TS, Multilevel, MM, QM/MM, CI optimization
   S Lehtola, MJT Oliveira, MAL Marques          : LibXC Library


 Your calculation uses the libint2 library for the computation of 2-el integrals
 For citations please refer to: http://libint.valeyev.net

 Your ORCA version has been built with support for libXC version: 4.2.3
 For citations please refer to: https://tddft.org/programs/libxc/

 This ORCA versions uses:
   CBLAS   interface :  Fast vector & matrix operations
   LAPACKE interface :  Fast linear algebra routines
   SCALAPACK package :  Parallel linear algebra routines


XCFun DFT library Copyright 2009-2010 Ulf Ekstrom and contributors.
See http://admol.org/xcfun for more information. This is free soft-
ware; see the source code for copying conditions. There is ABSOLUTELY
NO WARRANTY; not even for MERCHANTABILITY or FITNESS FOR A PARTICULAR
PURPOSE. For details see the documentation. Scientific users of this 
library should cite U. Ekstrom, L. Visscher, R. Bast, A. J. Thorvald-
sen and K. Ruud; J.Chem.Theor.Comp. 2010, DOI: 10.1021/ct100117s
XCFun Version 0.99 
----- Orbital basis set information -----
Your calculation utilizes the basis: def2-SVP
   F. Weigend and R. Ahlrichs, Phys. Chem. Chem. Phys. 7, 3297 (2005).

----- AuxJ basis set information -----
Your calculation utilizes the auxiliary basis: def2/J
   F. Weigend, Phys. Chem. Chem. Phys. 8, 1057 (2006).

================================================================================
                                        WARNINGS
                       Please study these warnings very carefully!
================================================================================

INFO   : Checking CIS options ...

WARNING: CIS/ROCIS methods need fully converged wavefunctions
  ===> : Setting SCFConvForced true
         You can overwrite this default with %scf ConvForced false 


INFO   : the flag for use of LIBINT has been found!

================================================================================
                                       INPUT FILE
================================================================================
NAME = xtbopt.inp
|  1> # ORCA input file
|  2> # SCF done       -197.233418562358          0.000974232972
|  3> ! CAM-B3LYP def2-SVP def2/J RIJCOSX Grid4 TightSCF
|  4> %maxcore 5000
|  5> %tddft
|  6>     Mode sTDDFT
|  7>     Ethresh 5.0
|  8>     maxcore 5000
|  9> end
| 10> 
| 11> %pal
| 12>   nprocs 6
| 13>   end
| 14> * xyz 0 1
| 15>    C       12.10249         1.31801         8.79872
| 16>    C       13.09033         0.57907         9.39119
| 17>    C       13.45423        -0.66942         8.86472
| 18>    C       12.82324        -1.16404         7.75583
| 19>    C       11.79709        -0.43256         7.12472
| 20>    C       11.13176        -0.94761         5.98871
| 21>    C       10.14318        -0.20491         5.40322
| 22>    C        9.80297         1.08290         5.91546
| 23>    C       10.42185         1.59575         7.01924
| 24>    C       11.43315         0.83982         7.65494
| 25>    C        8.76479         1.69080         5.06362
| 26>    O        8.19040         2.74459         5.21182
| 27>    C        8.61736         0.75163         3.91334
| 28>    C        9.28438        -0.48794         4.26300
| 29>    C        8.95536        -1.73679         3.80609
| 30>    C        7.93310        -1.97070         2.86407
| 31>    N        7.08149        -2.19955         2.12801
| 32>    C        9.52948        -2.93209         4.28330
| 33>    N        9.94929        -3.94444         4.62400
| 34>    C        8.03953         1.15652         2.75102
| 35>    C        8.21610         0.55790         1.48212
| 36>    C        7.35970         0.53795         0.39959
| 37>    C        7.82882        -0.19451        -0.72192
| 38>    C        6.78740        -0.33054        -1.67968
| 39>    C        5.62706         0.30182        -1.35062
| 40>    S        5.73686         1.10121         0.19782
| 41>    C        4.36988         0.34000        -2.13765
| 42>    F        6.86804        -1.08761        -2.78429
| 43>    C        9.12632        -0.67880        -0.53201
| 44>    S        9.67119        -0.33030         1.08324
| 45>    C        9.99667        -1.37188        -1.40520
| 46>    C       11.05040        -2.15347        -0.87109
| 47>    C       11.88859        -2.98372        -1.69227
| 48>    N       12.79158        -3.76978        -1.10566
| 49>    C       12.97049        -3.73571         0.19231
| 50>    C       12.20564        -2.83201         0.99649
| 51>    N       11.26461        -2.10053         0.44484
| 52>    C       12.44749        -2.68397         2.38325
| 53>    N       12.66584        -2.54269         3.49887
| 54>    C       13.91890        -4.60083         0.79431
| 55>    N       14.66889        -5.27319         1.33863
| 56>    C       11.78985        -2.99688        -3.10829
| 57>    C       10.82434        -2.11342        -3.64741
| 58>    C        9.95157        -1.31172        -2.81554
| 59>    N        9.20369        -0.48574        -3.54114
| 60>    S        9.50491        -0.71666        -5.09617
| 61>    N       10.62929        -1.85742        -4.93753
| 62>    C       12.64490        -3.81842        -3.88086
| 63>    C       12.66340        -4.05148        -5.25623
| 64>    C       13.63931        -4.98794        -5.65476
| 65>    C       13.58320        -5.22456        -7.05181
| 66>    C       12.63048        -4.50499        -7.70206
| 67>    S       11.73895        -3.47561        -6.60239
| 68>    C       12.32718        -4.51924        -9.15439
| 69>    F       14.38552        -6.09806        -7.68213
| 70>    C       14.41849        -5.47955        -4.59150
| 71>    S       13.87601        -4.77293        -3.08712
| 72>    C       15.47556        -6.38314        -4.76348
| 73>    C       16.23875        -7.00818        -3.80784
| 74>    C       17.30768        -7.95541        -4.05839
| 75>    C       17.96335        -8.15732        -5.24556
| 76>    C       18.99877        -9.09867        -5.41941
| 77>    N       19.83966        -9.85283        -5.62549
| 78>    C       17.75094        -7.42034        -6.43012
| 79>    N       17.67092        -6.84173        -7.41858
| 80>    C       17.62957        -8.60232        -2.78952
| 81>    C       16.86219        -7.98188        -1.76176
| 82>    C       16.95953        -8.35376        -0.45218
| 83>    C       17.84187        -9.40145        -0.10516
| 84>    C       17.98237        -9.83793         1.22652
| 85>    C       18.83715       -10.85990         1.54046
| 86>    C       19.58923       -11.48741         0.53664
| 87>    C       19.47691       -11.08558        -0.76696
| 88>    C       18.60590       -10.03760        -1.12624
| 89>    C       18.48927        -9.61958        -2.47325
| 90>    C       16.01079        -6.94540        -2.35586
| 91>    O       15.26136        -6.19368        -1.75731
| 92>    H       11.82070         2.28127         9.19851
| 93>    H       13.59791         0.95398        10.26748
| 94>    H       14.23796        -1.23727         9.34318
| 95>    H       13.09739        -2.12382         7.34433
| 96>    H       11.43676        -1.90200         5.58885
| 97>    H       10.14751         2.56753         7.40231
| 98>    H        7.44441         2.06345         2.78919
| 99>    H        4.47367        -0.27487        -3.02803
|100>    H        4.13805         1.36172        -2.43677
|101>    H        3.53689        -0.03006        -1.54184
|102>    H       12.98295        -5.22273        -9.66192
|103>    H       12.47112        -3.52768        -9.58176
|104>    H       11.29116        -4.80891        -9.32494
|105>    H       15.68756        -6.62964        -5.79706
|106>    H       16.37082        -7.85494         0.30341
|107>    H       17.39994        -9.34920         1.99342
|108>    H       18.93799       -11.19025         2.56341
|109>    H       20.25930       -12.29186         0.80072
|110>    H       20.05569       -11.56535        -1.54257
|111>    H       19.08103       -10.12292        -3.22131
|112> *
|113> 
|114>                          ****END OF INPUT****
================================================================================

                       ****************************
                       * Single Point Calculation *
                       ****************************

---------------------------------
CARTESIAN COORDINATES (ANGSTROEM)
---------------------------------
  C     12.102490    1.318010    8.798720
  C     13.090330    0.579070    9.391190
  C     13.454230   -0.669420    8.864720
  C     12.823240   -1.164040    7.755830
  C     11.797090   -0.432560    7.124720
  C     11.131760   -0.947610    5.988710
  C     10.143180   -0.204910    5.403220
  C      9.802970    1.082900    5.915460
  C     10.421850    1.595750    7.019240
  C     11.433150    0.839820    7.654940
  C      8.764790    1.690800    5.063620
  O      8.190400    2.744590    5.211820
  C      8.617360    0.751630    3.913340
  C      9.284380   -0.487940    4.263000
  C      8.955360   -1.736790    3.806090
  C      7.933100   -1.970700    2.864070
  N      7.081490   -2.199550    2.128010
  C      9.529480   -2.932090    4.283300
  N      9.949290   -3.944440    4.624000
  C      8.039530    1.156520    2.751020
  C      8.216100    0.557900    1.482120
  C      7.359700    0.537950    0.399590
  C      7.828820   -0.194510   -0.721920
  C      6.787400   -0.330540   -1.679680
  C      5.627060    0.301820   -1.350620
  S      5.736860    1.101210    0.197820
  C      4.369880    0.340000   -2.137650
  F      6.868040   -1.087610   -2.784290
  C      9.126320   -0.678800   -0.532010
  S      9.671190   -0.330300    1.083240
  C      9.996670   -1.371880   -1.405200
  C     11.050400   -2.153470   -0.871090
  C     11.888590   -2.983720   -1.692270
  N     12.791580   -3.769780   -1.105660
  C     12.970490   -3.735710    0.192310
  C     12.205640   -2.832010    0.996490
  N     11.264610   -2.100530    0.444840
  C     12.447490   -2.683970    2.383250
  N     12.665840   -2.542690    3.498870
  C     13.918900   -4.600830    0.794310
  N     14.668890   -5.273190    1.338630
  C     11.789850   -2.996880   -3.108290
  C     10.824340   -2.113420   -3.647410
  C      9.951570   -1.311720   -2.815540
  N      9.203690   -0.485740   -3.541140
  S      9.504910   -0.716660   -5.096170
  N     10.629290   -1.857420   -4.937530
  C     12.644900   -3.818420   -3.880860
  C     12.663400   -4.051480   -5.256230
  C     13.639310   -4.987940   -5.654760
  C     13.583200   -5.224560   -7.051810
  C     12.630480   -4.504990   -7.702060
  S     11.738950   -3.475610   -6.602390
  C     12.327180   -4.519240   -9.154390
  F     14.385520   -6.098060   -7.682130
  C     14.418490   -5.479550   -4.591500
  S     13.876010   -4.772930   -3.087120
  C     15.475560   -6.383140   -4.763480
  C     16.238750   -7.008180   -3.807840
  C     17.307680   -7.955410   -4.058390
  C     17.963350   -8.157320   -5.245560
  C     18.998770   -9.098670   -5.419410
  N     19.839660   -9.852830   -5.625490
  C     17.750940   -7.420340   -6.430120
  N     17.670920   -6.841730   -7.418580
  C     17.629570   -8.602320   -2.789520
  C     16.862190   -7.981880   -1.761760
  C     16.959530   -8.353760   -0.452180
  C     17.841870   -9.401450   -0.105160
  C     17.982370   -9.837930    1.226520
  C     18.837150  -10.859900    1.540460
  C     19.589230  -11.487410    0.536640
  C     19.476910  -11.085580   -0.766960
  C     18.605900  -10.037600   -1.126240
  C     18.489270   -9.619580   -2.473250
  C     16.010790   -6.945400   -2.355860
  O     15.261360   -6.193680   -1.757310
  H     11.820700    2.281270    9.198510
  H     13.597910    0.953980   10.267480
  H     14.237960   -1.237270    9.343180
  H     13.097390   -2.123820    7.344330
  H     11.436760   -1.902000    5.588850
  H     10.147510    2.567530    7.402310
  H      7.444410    2.063450    2.789190
  H      4.473670   -0.274870   -3.028030
  H      4.138050    1.361720   -2.436770
  H      3.536890   -0.030060   -1.541840
  H     12.982950   -5.222730   -9.661920
  H     12.471120   -3.527680   -9.581760
  H     11.291160   -4.808910   -9.324940
  H     15.687560   -6.629640   -5.797060
  H     16.370820   -7.854940    0.303410
  H     17.399940   -9.349200    1.993420
  H     18.937990  -11.190250    2.563410
  H     20.259300  -12.291860    0.800720
  H     20.055690  -11.565350   -1.542570
  H     19.081030  -10.122920   -3.221310

----------------------------
CARTESIAN COORDINATES (A.U.)
----------------------------
  NO LB      ZA    FRAG     MASS         X           Y           Z
   0 C     6.0000    0    12.011   22.870392    2.490678   16.627171
   1 C     6.0000    0    12.011   24.737139    1.094284   17.746777
   2 C     6.0000    0    12.011   25.424810   -1.265020   16.751893
   3 C     6.0000    0    12.011   24.232412   -2.199717   14.656395
   4 C     6.0000    0    12.011   22.293269   -0.817420   13.463770
   5 C     6.0000    0    12.011   21.035978   -1.790723   11.317022
   6 C     6.0000    0    12.011   19.167832   -0.387224   10.210606
   7 C     6.0000    0    12.011   18.524929    2.046384   11.178599
   8 C     6.0000    0    12.011   19.694442    3.015530   13.264441
   9 C     6.0000    0    12.011   21.605522    1.587030   14.465740
  10 C     6.0000    0    12.011   16.563053    3.195149    9.568855
  11 O     8.0000    0    15.999   15.477613    5.186523    9.848912
  12 C     6.0000    0    12.011   16.284450    1.420375    7.395141
  13 C     6.0000    0    12.011   17.544936   -0.922073    8.055903
  14 C     6.0000    0    12.011   16.923178   -3.282057    7.192468
  15 C     6.0000    0    12.011   14.991386   -3.724083    5.412308
  16 N     7.0000    0    14.007   13.382077   -4.156547    4.021356
  17 C     6.0000    0    12.011   18.008107   -5.540847    8.094264
  18 N     7.0000    0    14.007   18.801433   -7.453911    8.738094
  19 C     6.0000    0    12.011   15.192510    2.185506    5.198674
  20 C     6.0000    0    12.011   15.526179    1.054278    2.800801
  21 C     6.0000    0    12.011   13.907817    1.016578    0.755116
  22 C     6.0000    0    12.011   14.794326   -0.367571   -1.364231
  23 C     6.0000    0    12.011   12.826327   -0.624630   -3.174135
  24 C     6.0000    0    12.011   10.633602    0.570357   -2.552302
  25 S    16.0000    0    32.060   10.841094    2.080985    0.373826
  26 C     6.0000    0    12.011    8.257876    0.642507   -4.039573
  27 F     9.0000    0    18.998   12.978715   -2.055285   -5.261546
  28 C     6.0000    0    12.011   17.246245   -1.282746   -1.005353
  29 S    16.0000    0    32.060   18.275900   -0.624177    2.047027
  30 C     6.0000    0    12.011   18.890969   -2.592477   -2.655443
  31 C     6.0000    0    12.011   20.882230   -4.069469   -1.646122
  32 C     6.0000    0    12.011   22.466179   -5.638414   -3.197927
  33 N     7.0000    0    14.007   24.172583   -7.123852   -2.089395
  34 C     6.0000    0    12.011   24.510674   -7.059469    0.363413
  35 C     6.0000    0    12.011   23.065317   -5.351723    1.883093
  36 N     7.0000    0    14.007   21.287028   -3.969426    0.840626
  37 C     6.0000    0    12.011   23.522347   -5.071968    4.503690
  38 N     7.0000    0    14.007   23.934969   -4.804988    6.611906
  39 C     6.0000    0    12.011   26.302909   -8.694309    1.501028
  40 N     7.0000    0    14.007   27.720185   -9.964885    2.529644
  41 C     6.0000    0    12.011   22.279588   -5.663282   -5.873817
  42 C     6.0000    0    12.011   20.455038   -3.993785   -6.892606
  43 C     6.0000    0    12.011   18.805742   -2.478792   -5.320600
  44 N     7.0000    0    14.007   17.392454   -0.917916   -6.691785
  45 S    16.0000    0    32.060   17.961677   -1.354291   -9.630366
  46 N     7.0000    0    14.007   20.086447   -3.510015   -9.330579
  47 C     6.0000    0    12.011   23.895398   -7.215768   -7.333763
  48 C     6.0000    0    12.011   23.930358   -7.656188   -9.932835
  49 C     6.0000    0    12.011   25.774561   -9.425841  -10.685948
  50 C     6.0000    0    12.011   25.668528   -9.872988  -13.325990
  51 C     6.0000    0    12.011   23.868148   -8.513197  -14.554784
  52 S    16.0000    0    32.060   22.183401   -6.567951  -12.476709
  53 C     6.0000    0    12.011   23.294994   -8.540126  -17.299290
  54 F     9.0000    0    18.998   27.184693  -11.523663  -14.517122
  55 C     6.0000    0    12.011   27.246997  -10.354849   -8.676678
  56 S    16.0000    0    32.060   26.221859   -9.019531   -5.833811
  57 C     6.0000    0    12.011   29.244570  -12.062386   -9.001673
  58 C     6.0000    0    12.011   30.686790  -13.243541   -7.195775
  59 C     6.0000    0    12.011   32.706775  -15.033546   -7.669246
  60 C     6.0000    0    12.011   33.945812  -15.415101   -9.912672
  61 C     6.0000    0    12.011   35.902472  -17.193994  -10.241201
  62 N     7.0000    0    14.007   37.491524  -18.619150  -10.630635
  63 C     6.0000    0    12.011   33.544415  -14.022410  -12.151166
  64 N     7.0000    0    14.007   33.393199  -12.928996  -14.019085
  65 C     6.0000    0    12.011   33.315059  -16.256029   -5.271429
  66 C     6.0000    0    12.011   31.864921  -15.083567   -3.329244
  67 C     6.0000    0    12.011   32.048867  -15.786319   -0.854496
  68 C     6.0000    0    12.011   33.716248  -17.766166   -0.198724
  69 C     6.0000    0    12.011   33.981755  -18.590993    2.317787
  70 C     6.0000    0    12.011   35.597055  -20.522237    2.911048
  71 C     6.0000    0    12.011   37.018280  -21.708059    1.014103
  72 C     6.0000    0    12.011   36.806026  -20.948710   -1.449344
  73 C     6.0000    0    12.011   35.160055  -18.968315   -2.128285
  74 C     6.0000    0    12.011   34.939657  -18.178372   -4.673765
  75 C     6.0000    0    12.011   30.256008  -13.124904   -4.451930
  76 O     8.0000    0    15.999   28.839791  -11.704359   -3.320835
  77 H     1.0000    0     1.008   22.337886    4.310976   17.382665
  78 H     1.0000    0     1.008   25.696326    1.802761   19.402725
  79 H     1.0000    0     1.008   26.905845   -2.338101   17.656051
  80 H     1.0000    0     1.008   24.750480   -4.013438   13.878772
  81 H     1.0000    0     1.008   21.612344   -3.594259   10.561396
  82 H     1.0000    0     1.008   19.176015    4.851929   13.988339
  83 H     1.0000    0     1.008   14.067896    3.899355    5.270805
  84 H     1.0000    0     1.008    8.454011   -0.519429   -5.722147
  85 H     1.0000    0     1.008    7.819781    2.573278   -4.604828
  86 H     1.0000    0     1.008    6.683753   -0.056805   -2.913655
  87 H     1.0000    0     1.008   24.534220   -9.869529  -18.258383
  88 H     1.0000    0     1.008   23.567001   -6.666349  -18.106902
  89 H     1.0000    0     1.008   21.337200   -9.087523  -17.621583
  90 H     1.0000    0     1.008   29.645192  -12.528204  -10.954856
  91 H     1.0000    0     1.008   30.936366  -14.843685    0.573362
  92 H     1.0000    0     1.008   32.881121  -17.667428    3.767018
  93 H     1.0000    0     1.008   35.787615  -21.146508    4.844143
  94 H     1.0000    0     1.008   38.284529  -23.228249    1.513142
  95 H     1.0000    0     1.008   37.899762  -21.855344   -2.915035
  96 H     1.0000    0     1.008   36.057921  -19.129546   -6.087394

--------------------------------
INTERNAL COORDINATES (ANGSTROEM)
--------------------------------
 C      0   0   0     0.000000000000     0.00000000     0.00000000
 C      1   0   0     1.368532385477     0.00000000     0.00000000
 C      2   1   0     1.402968692095   120.34906999     0.00000000
 C      3   2   1     1.368369232554   120.40813500   359.80466585
 C      4   3   2     1.409378105762   120.73144568   359.87176904
 C      5   4   3     1.413668713490   120.89163874   180.78075135
 C      6   5   4     1.368098039798   119.09104883   180.15379661
 C      7   6   5     1.427090486900   120.56651110     1.13212519
 C      8   7   6     1.365414905917   121.40276968   358.17509676
 C      1   2   3     1.408869901765   120.73915631     0.12044001
 C      8   7   6     1.474107020538   109.42744264   177.04662107
 O     11   8   7     1.209280974877   128.54009160   176.61909309
 C     11   8   7     1.492286826384   104.80174574   353.56609984
 C     13  11   8     1.450417726346   107.85456687    13.72889578
 C     14  13  11     1.369907745434   126.03272003   151.14991017
 C     15  14  13     1.409656368091   123.25256308     3.00070269
 N     16  15  14     1.148649745658   177.35806684   228.23127110
 C     15  14  13     1.409285368015   124.22362644   187.45876125
 N     18  15  14     1.147680028841   176.10287338   177.50992799
 C     13  11   8     1.359709970325   120.89695605   198.90054060
 C     20  13  11     1.414082769607   126.01125355   158.06318909
 C     21  20  13     1.380467371364   129.22155100   152.90765505
 C     22  21  20     1.419280066125   114.96461586   181.91225815
 C     23  22  21     1.421395087546   109.85638062   170.48737700
 C     24  23  22     1.361818111497   114.64668505     2.77513762
 S     22  21  20     1.729619214191   131.97783710   354.49158727
 C     25  24  23     1.483703301102   127.28215945   180.19574282
 F     24  23  22     1.341574092848   124.38601645   187.30293181
 C     23  22  21     1.397894438862   112.22441741   355.81383019
 S     29  23  22     1.739933369241   110.32798301     4.94323029
 C     29  23  22     1.414330154172   131.07758619   184.53922484
 C     31  29  23     1.416510971754   119.69439873   201.95291672
 C     32  31  29     1.437433174447   122.48410136   173.84006701
 N     33  32  31     1.333188867265   118.95613529   185.18301902
 C     34  33  32     1.310685192523   120.85483297   356.14859207
 C     35  34  33     1.431214409130   119.99349291   359.04914192
 N     36  35  34     1.313361402585   119.90531271     4.43515266
 C     36  35  34     1.415454189192   121.68335637   185.42394016
 N     38  36  35     1.145532516038   178.40457481    85.65321930
 C     35  34  33     1.417856883645   119.72984684   178.76665709
 N     40  35  34     1.144918002348   176.70776352   179.76021060
 C     33  32  31     1.419519430512   122.32138335     5.19942605
 C     42  33  32     1.415401535290   114.93684888     1.18277399
 C     31  29  23     1.412342788136   125.16882857    24.98984504
 N     44  31  29     1.329685231474   126.11016449     8.54958099
 S     45  44  31     1.600679804239   109.55265278   177.75366158
 N     43  42  33     1.329657894686   126.14336287   173.54542646
 C     42  33  32     1.415239512945   120.52430315   179.28690419
 C     48  42  33     1.395099226041   130.02790855   175.29679306
 C     49  48  42     1.410029723304   113.50127375   182.56699286
 C     50  49  48     1.418057142361   111.21610236   177.85245833
 C     51  50  49     1.359515151001   114.24385921     0.61714041
 S     49  48  42     1.731583323147   134.73142150     1.19217640
 C     52  51  50     1.483730562265   127.32541551   179.55723540
 F     51  50  49     1.343139209017   123.17637189   181.58015221
 C     50  49  48     1.406884391874   113.68985064   358.72903742
 S     48  42  33     1.748354757994   119.63805184   357.43187295
 C     56  50  49     1.401231241944   123.39306582   182.27628671
 C     58  56  50     1.373456146843   128.84801768   185.36833545
 C     59  58  56     1.450045282155   125.92181010   178.82717169
 C     60  59  58     1.371146748492   126.74863808    16.94335643
 C     61  60  59     1.410127023144   123.79139564   179.95119385
 N     62  61  60     1.148182156324   176.71966782   171.85253278
 C     61  60  59     1.411183872534   125.30289042     3.31236829
 N     64  61  60     1.148148903279   175.09318992   152.79272479
 C     60  59  58     1.460183823051   107.56359198   193.18862658
 C     66  60  59     1.424818751842   108.37115551   354.90962430
 C     67  66  60     1.364833171637   122.34829170   181.12729653
 C     68  67  66     1.413011355970   118.82978794   359.28257520
 C     69  68  67     1.408412816897   121.62021639   180.39072846
 C     70  69  68     1.368805995348   120.69953756   179.62137328
 C     71  70  69     1.402514783844   120.31530630     0.09937096
 C     72  71  70     1.368742521916   120.41834417     0.00000000
 C     73  72  71     1.409256051575   120.78669161   359.95755872
 C     66  60  59     1.368915158255   131.94627007   175.34245696
 C     67  66  60     1.467013142545   109.15421960     1.26688880
 O     76  67  66     1.218601815935   126.42991181   182.54037176
 H      1   2   3     1.080327485441   120.63117123   180.18659593
 H      2   1   3     1.079851438208   120.20801323   179.86567078
 H      3   2   1     1.079634339487   119.34318087   179.80033311
 H      4   3   2     1.079661113915   120.87088283   179.99018233
 H      6   5   4     1.078783245930   119.15143508   358.33801633
 H      9   8   7     1.079982142862   120.63495851   180.63203208
 H     20  13  11     1.085424704067   116.85594399   342.66350797
 H     27  25  24     1.087020710658   109.81794759     3.29586065
 H     27  25  24     1.089554808947   110.49019442   243.00071666
 H     27  25  24     1.088947335641   110.43746446   123.79131883
 H     54  52  51     1.087436974679   109.86377754     0.89424239
 H     54  52  51     1.089291087864   110.38216194   240.62259106
 H     54  52  51     1.089189355346   110.50341293   121.42329237
 H     58  56  50     1.083509975219   114.29205018     3.60143179
 H     68  67  66     1.079961621818   120.43705498   179.33181162
 H     70  69  68     1.079915426226   118.51588310   359.69679816
 H     71  70  69     1.079688163592   120.26927388   180.12121653
 H     72  71  70     1.079755460185   119.41070508   179.97998335
 H     73  72  71     1.080155735716   120.63133156   179.89873232
 H     75  66  60     1.078482645572   122.08368438   358.89682586

---------------------------
INTERNAL COORDINATES (A.U.)
---------------------------
 C      0   0   0     0.000000000000     0.00000000     0.00000000
 C      1   0   0     2.586151413954     0.00000000     0.00000000
 C      2   1   0     2.651226602526   120.34906999     0.00000000
 C      3   2   1     2.585843099611   120.40813500   359.80466585
 C      4   3   2     2.663338639034   120.73144568   359.87176904
 C      5   4   3     2.671446712589   120.89163874   180.78075135
 C      6   5   4     2.585330619573   119.09104883   180.15379661
 C      7   6   5     2.696810188565   120.56651110     1.13212519
 C      8   7   6     2.580260231357   121.40276968   358.17509676
 C      1   2   3     2.662378272661   120.73915631     0.12044001
 C      8   7   6     2.785658560908   109.42744264   177.04662107
 O     11   8   7     2.285209861479   128.54009160   176.61909309
 C     11   8   7     2.820013415125   104.80174574   353.56609984
 C     13  11   8     2.740892282580   107.85456687    13.72889578
 C     14  13  11     2.588750467608   126.03272003   151.14991017
 C     15  14  13     2.663864478630   123.25256308     3.00070269
 N     16  15  14     2.170633443092   177.35806684   228.23127110
 C     15  14  13     2.663163390090   124.22362644   187.45876125
 N     18  15  14     2.168800943880   176.10287338   177.50992799
 C     13  11   8     2.569479465476   120.89695605   198.90054060
 C     20  13  11     2.672229165254   126.01125355   158.06318909
 C     21  20  13     2.608705268692   129.22155100   152.90765505
 C     22  21  20     2.682050632310   114.96461586   181.91225815
 C     23  22  21     2.686047443563   109.85638062   170.48737700
 C     24  23  22     2.573463274942   114.64668505     2.77513762
 S     22  21  20     3.268506630790   131.97783710   354.49158727
 C     25  24  23     2.803792903077   127.28215945   180.19574282
 F     24  23  22     2.535207623846   124.38601645   187.30293181
 C     23  22  21     2.641637653580   112.22441741   355.81383019
 S     29  23  22     3.287997559137   110.32798301     4.94323029
 C     29  23  22     2.672696654332   131.07758619   184.53922484
 C     31  29  23     2.676817802310   119.69439873   201.95291672
 C     32  31  29     2.716355035517   122.48410136   173.84006701
 N     33  32  31     2.519361843924   118.95613529   185.18301902
 C     34  33  32     2.476836061655   120.85483297   356.14859207
 C     35  34  33     2.704603272177   119.99349291   359.04914192
 N     36  35  34     2.481893365748   119.90531271     4.43515266
 C     36  35  34     2.674820772684   121.68335637   185.42394016
 N     38  36  35     2.164742732813   178.40457481    85.65321930
 C     35  34  33     2.679361207184   119.72984684   178.76665709
 N     40  35  34     2.163581470233   176.70776352   179.76021060
 C     33  32  31     2.682502965447   122.32138335     5.19942605
 C     42  33  32     2.674721271229   114.93684888     1.18277399
 C     31  29  23     2.668941076796   125.16882857    24.98984504
 N     44  31  29     2.512740931806   126.11016449     8.54958099
 S     45  44  31     3.024846458111   109.55265278   177.75366158
 N     43  42  33     2.512689272762   126.14336287   173.54542646
 C     42  33  32     2.674415093370   120.52430315   179.28690419
 C     48  42  33     2.636355466863   130.02790855   175.29679306
 C     49  48  42     2.664570017733   113.50127375   182.56699286
 C     50  49  48     2.679739641313   111.21610236   177.85245833
 C     51  50  49     2.569111310308   114.24385921     0.61714041
 S     49  48  42     3.272218258813   134.73142150     1.19217640
 C     52  51  50     2.803844419210   127.32541551   179.55723540
 F     51  50  49     2.538165264775   123.17637189   181.58015221
 C     50  49  48     2.658626202731   113.68985064   358.72903742
 S     48  42  33     3.303911677547   119.63805184   357.43187295
 C     56  50  49     2.647943297569   123.39306582   182.27628671
 C     58  56  50     2.595455974483   128.84801768   185.36833545
 C     59  58  56     2.740188465058   125.92181010   178.82717169
 C     60  59  58     2.591091844066   126.74863808    16.94335643
 C     61  60  59     2.664753887783   123.79139564   179.95119385
 N     62  61  60     2.169749827307   176.71966782   171.85253278
 C     61  60  59     2.666751043696   125.30289042     3.31236829
 N     64  61  60     2.169686988159   175.09318992   152.79272479
 C     60  59  58     2.759347530749   107.56359198   193.18862658
 C     66  60  59     2.692517231456   108.37115551   354.90962430
 C     67  66  60     2.579160912885   122.34829170   181.12729653
 C     68  67  66     2.670204486904   118.82978794   359.28257520
 C     69  68  67     2.661514507440   121.62021639   180.39072846
 C     70  69  68     2.586668461677   120.69953756   179.62137328
 C     71  70  69     2.650368840240   120.31530630     0.09937096
 C     72  71  70     2.586548514273   120.41834417     0.00000000
 C     73  72  71     2.663107990047   120.78669161   359.95755872
 C     66  60  59     2.586874749675   131.94627007   175.34245696
 C     67  66  60     2.772253074273   109.15421960     1.26688880
 O     76  67  66     2.302823698416   126.42991181   182.54037176
 H      1   2   3     2.041523082432   120.63117123   180.18659593
 H      2   1   3     2.040623483534   120.20801323   179.86567078
 H      3   2   1     2.040213226408   119.34318087   179.80033311
 H      4   3   2     2.040263822744   120.87088283   179.99018233
 H      6   5   4     2.038604892671   119.15143508   358.33801633
 H      9   8   7     2.040870479534   120.63495851   180.63203208
 H     20  13  11     2.051155429680   116.85594399   342.66350797
 H     27  25  24     2.054171445045   109.81794759     3.29586065
 H     27  25  24     2.058960196807   110.49019442   243.00071666
 H     27  25  24     2.057812238625   110.43746446   123.79131883
 H     54  52  51     2.054958070044   109.86377754     0.89424239
 H     54  52  51     2.058461836184   110.38216194   240.62259106
 H     54  52  51     2.058269589587   110.50341293   121.42329237
 H     58  56  50     2.047537116537   114.29205018     3.60143179
 H     68  67  66     2.040831700382   120.43705498   179.33181162
 H     70  69  68     2.040744403363   118.51588310   359.69679816
 H     71  70  69     2.040314939225   120.26927388   180.12121653
 H     72  71  70     2.040442111356   119.41070508   179.97998335
 H     73  72  71     2.041198522487   120.63133156   179.89873232
 H     75  66  60     2.038036840318   122.08368438   358.89682586

---------------------
BASIS SET INFORMATION
---------------------
There are 6 groups of distinct atoms

 Group   1 Type C   : 7s4p1d contracted to 3s2p1d pattern {511/31/1}
 Group   2 Type O   : 7s4p1d contracted to 3s2p1d pattern {511/31/1}
 Group   3 Type N   : 7s4p1d contracted to 3s2p1d pattern {511/31/1}
 Group   4 Type S   : 10s7p1d contracted to 4s3p1d pattern {5311/511/1}
 Group   5 Type F   : 7s4p1d contracted to 3s2p1d pattern {511/31/1}
 Group   6 Type H   : 4s1p contracted to 2s1p pattern {31/1}

Atom   0C    basis set group =>   1
Atom   1C    basis set group =>   1
Atom   2C    basis set group =>   1
Atom   3C    basis set group =>   1
Atom   4C    basis set group =>   1
Atom   5C    basis set group =>   1
Atom   6C    basis set group =>   1
Atom   7C    basis set group =>   1
Atom   8C    basis set group =>   1
Atom   9C    basis set group =>   1
Atom  10C    basis set group =>   1
Atom  11O    basis set group =>   2
Atom  12C    basis set group =>   1
Atom  13C    basis set group =>   1
Atom  14C    basis set group =>   1
Atom  15C    basis set group =>   1
Atom  16N    basis set group =>   3
Atom  17C    basis set group =>   1
Atom  18N    basis set group =>   3
Atom  19C    basis set group =>   1
Atom  20C    basis set group =>   1
Atom  21C    basis set group =>   1
Atom  22C    basis set group =>   1
Atom  23C    basis set group =>   1
Atom  24C    basis set group =>   1
Atom  25S    basis set group =>   4
Atom  26C    basis set group =>   1
Atom  27F    basis set group =>   5
Atom  28C    basis set group =>   1
Atom  29S    basis set group =>   4
Atom  30C    basis set group =>   1
Atom  31C    basis set group =>   1
Atom  32C    basis set group =>   1
Atom  33N    basis set group =>   3
Atom  34C    basis set group =>   1
Atom  35C    basis set group =>   1
Atom  36N    basis set group =>   3
Atom  37C    basis set group =>   1
Atom  38N    basis set group =>   3
Atom  39C    basis set group =>   1
Atom  40N    basis set group =>   3
Atom  41C    basis set group =>   1
Atom  42C    basis set group =>   1
Atom  43C    basis set group =>   1
Atom  44N    basis set group =>   3
Atom  45S    basis set group =>   4
Atom  46N    basis set group =>   3
Atom  47C    basis set group =>   1
Atom  48C    basis set group =>   1
Atom  49C    basis set group =>   1
Atom  50C    basis set group =>   1
Atom  51C    basis set group =>   1
Atom  52S    basis set group =>   4
Atom  53C    basis set group =>   1
Atom  54F    basis set group =>   5
Atom  55C    basis set group =>   1
Atom  56S    basis set group =>   4
Atom  57C    basis set group =>   1
Atom  58C    basis set group =>   1
Atom  59C    basis set group =>   1
Atom  60C    basis set group =>   1
Atom  61C    basis set group =>   1
Atom  62N    basis set group =>   3
Atom  63C    basis set group =>   1
Atom  64N    basis set group =>   3
Atom  65C    basis set group =>   1
Atom  66C    basis set group =>   1
Atom  67C    basis set group =>   1
Atom  68C    basis set group =>   1
Atom  69C    basis set group =>   1
Atom  70C    basis set group =>   1
Atom  71C    basis set group =>   1
Atom  72C    basis set group =>   1
Atom  73C    basis set group =>   1
Atom  74C    basis set group =>   1
Atom  75C    basis set group =>   1
Atom  76O    basis set group =>   2
Atom  77H    basis set group =>   6
Atom  78H    basis set group =>   6
Atom  79H    basis set group =>   6
Atom  80H    basis set group =>   6
Atom  81H    basis set group =>   6
Atom  82H    basis set group =>   6
Atom  83H    basis set group =>   6
Atom  84H    basis set group =>   6
Atom  85H    basis set group =>   6
Atom  86H    basis set group =>   6
Atom  87H    basis set group =>   6
Atom  88H    basis set group =>   6
Atom  89H    basis set group =>   6
Atom  90H    basis set group =>   6
Atom  91H    basis set group =>   6
Atom  92H    basis set group =>   6
Atom  93H    basis set group =>   6
Atom  94H    basis set group =>   6
Atom  95H    basis set group =>   6
Atom  96H    basis set group =>   6
---------------------------------
AUXILIARY/J BASIS SET INFORMATION
---------------------------------
There are 6 groups of distinct atoms

 Group   1 Type C   : 12s5p4d2f1g contracted to 6s4p3d1f1g pattern {711111/2111/211/2/1}
 Group   2 Type O   : 12s5p4d2f1g contracted to 6s4p3d1f1g pattern {711111/2111/211/2/1}
 Group   3 Type N   : 12s5p4d2f1g contracted to 6s4p3d1f1g pattern {711111/2111/211/2/1}
 Group   4 Type S   : 14s5p5d2f1g contracted to 8s4p3d1f1g pattern {71111111/2111/311/2/1}
 Group   5 Type F   : 12s5p4d2f1g contracted to 6s4p3d1f1g pattern {711111/2111/211/2/1}
 Group   6 Type H   : 5s2p1d contracted to 3s1p1d pattern {311/2/1}

Atom   0C    basis set group =>   1
Atom   1C    basis set group =>   1
Atom   2C    basis set group =>   1
Atom   3C    basis set group =>   1
Atom   4C    basis set group =>   1
Atom   5C    basis set group =>   1
Atom   6C    basis set group =>   1
Atom   7C    basis set group =>   1
Atom   8C    basis set group =>   1
Atom   9C    basis set group =>   1
Atom  10C    basis set group =>   1
Atom  11O    basis set group =>   2
Atom  12C    basis set group =>   1
Atom  13C    basis set group =>   1
Atom  14C    basis set group =>   1
Atom  15C    basis set group =>   1
Atom  16N    basis set group =>   3
Atom  17C    basis set group =>   1
Atom  18N    basis set group =>   3
Atom  19C    basis set group =>   1
Atom  20C    basis set group =>   1
Atom  21C    basis set group =>   1
Atom  22C    basis set group =>   1
Atom  23C    basis set group =>   1
Atom  24C    basis set group =>   1
Atom  25S    basis set group =>   4
Atom  26C    basis set group =>   1
Atom  27F    basis set group =>   5
Atom  28C    basis set group =>   1
Atom  29S    basis set group =>   4
Atom  30C    basis set group =>   1
Atom  31C    basis set group =>   1
Atom  32C    basis set group =>   1
Atom  33N    basis set group =>   3
Atom  34C    basis set group =>   1
Atom  35C    basis set group =>   1
Atom  36N    basis set group =>   3
Atom  37C    basis set group =>   1
Atom  38N    basis set group =>   3
Atom  39C    basis set group =>   1
Atom  40N    basis set group =>   3
Atom  41C    basis set group =>   1
Atom  42C    basis set group =>   1
Atom  43C    basis set group =>   1
Atom  44N    basis set group =>   3
Atom  45S    basis set group =>   4
Atom  46N    basis set group =>   3
Atom  47C    basis set group =>   1
Atom  48C    basis set group =>   1
Atom  49C    basis set group =>   1
Atom  50C    basis set group =>   1
Atom  51C    basis set group =>   1
Atom  52S    basis set group =>   4
Atom  53C    basis set group =>   1
Atom  54F    basis set group =>   5
Atom  55C    basis set group =>   1
Atom  56S    basis set group =>   4
Atom  57C    basis set group =>   1
Atom  58C    basis set group =>   1
Atom  59C    basis set group =>   1
Atom  60C    basis set group =>   1
Atom  61C    basis set group =>   1
Atom  62N    basis set group =>   3
Atom  63C    basis set group =>   1
Atom  64N    basis set group =>   3
Atom  65C    basis set group =>   1
Atom  66C    basis set group =>   1
Atom  67C    basis set group =>   1
Atom  68C    basis set group =>   1
Atom  69C    basis set group =>   1
Atom  70C    basis set group =>   1
Atom  71C    basis set group =>   1
Atom  72C    basis set group =>   1
Atom  73C    basis set group =>   1
Atom  74C    basis set group =>   1
Atom  75C    basis set group =>   1
Atom  76O    basis set group =>   2
Atom  77H    basis set group =>   6
Atom  78H    basis set group =>   6
Atom  79H    basis set group =>   6
Atom  80H    basis set group =>   6
Atom  81H    basis set group =>   6
Atom  82H    basis set group =>   6
Atom  83H    basis set group =>   6
Atom  84H    basis set group =>   6
Atom  85H    basis set group =>   6
Atom  86H    basis set group =>   6
Atom  87H    basis set group =>   6
Atom  88H    basis set group =>   6
Atom  89H    basis set group =>   6
Atom  90H    basis set group =>   6
Atom  91H    basis set group =>   6
Atom  92H    basis set group =>   6
Atom  93H    basis set group =>   6
Atom  94H    basis set group =>   6
Atom  95H    basis set group =>   6
Atom  96H    basis set group =>   6


           ************************************************************
           *        Program running with 6 parallel MPI-processes     *
           *              working on a common directory               *
           ************************************************************
------------------------------------------------------------------------------
                           ORCA GTO INTEGRAL CALCULATION
                           -- RI-GTO INTEGRALS CHOSEN --
------------------------------------------------------------------------------

                         BASIS SET STATISTICS AND STARTUP INFO

Gaussian basis set:
 # of primitive gaussian shells          ... 1054
 # of primitive gaussian functions       ... 2048
 # of contracted shells                  ...  532
 # of contracted basis functions         ... 1198
 Highest angular momentum                ...    2
 Maximum contraction depth               ...    5
Auxiliary gaussian basis set:
 # of primitive gaussian shells          ... 2023
 # of primitive gaussian functions       ... 5745
 # of contracted shells                  ... 1265
 # of contracted aux-basis functions     ... 4003
 Highest angular momentum                ...    4
 Maximum contraction depth               ...    7
Ratio of auxiliary to basis functions    ...  3.34
Integral package used                  ... LIBINT
 One Electron integrals                  ... done
 Ordering auxiliary basis shells         ... done
 Integral threshhold             Thresh  ...  2.500e-11
 Primitive cut-off               TCut    ...  2.500e-12
 Pre-screening matrix                    ... done
 Shell pair data                         ... 
 Ordering of the shell pairs             ... done (   0.010 sec) 48794 of 141778 pairs
 Determination of significant pairs      ... done (   0.000 sec)
 Creation of shell pair data             ... done (   0.006 sec)
 Storage of shell pair data              ... done (   0.010 sec)
 Shell pair data done in (   0.026 sec)
 Computing two index integrals           ... done
 Cholesky decomposition of the V-matrix  ... done


Timings:
 Total evaluation time                   ...   2.353 sec (  0.039 min)
 One electron matrix time                ...   0.584 sec (  0.010 min) = 24.8%
 Schwartz matrix evaluation time         ...   0.745 sec (  0.012 min) = 31.7%
 Two index repulsion integral time       ...   0.364 sec (  0.006 min) = 15.5%
 Cholesky decomposition of V             ...   0.616 sec (  0.010 min) = 26.2%
 Three index repulsion integral time     ...   0.000 sec (  0.000 min) =  0.0%



           ************************************************************
           *        Program running with 6 parallel MPI-processes     *
           *              working on a common directory               *
           ************************************************************
-------------------------------------------------------------------------------
                                 ORCA SCF
-------------------------------------------------------------------------------

------------
SCF SETTINGS
------------
Hamiltonian:
 Density Functional     Method          .... DFT(GTOs)
 Exchange Functional    Exchange        .... WB88
 Correlation Functional Correlation     .... LYP
 LDA part of GGA corr.  LDAOpt          .... VWN-5
 Gradients option       PostSCFGGA      .... off
 Hybrid DFT is turned on
   Fraction HF Exchange ScalHFX         ....  0.190000
   Scaling of DF-GGA-X  ScalDFX         ....  0.350000
   Scaling of DF-GGA-C  ScalDFC         ....  0.810000
   Scaling of DF-LDA-C  ScalLDAC        ....  1.000000
   Perturbative correction              ....  0.000000
   Density functional embedding theory  .... OFF
 Long-range corrected/Screened/Range-Separated Hybrid DFT is turned on
   Amount of maximum screened exact exchange              ....  0.460000
   Range separation parameter mu (erf(mu*r12)/r12)        ....  0.330000
 RI-approximation to the Coulomb term is turned on
   Number of auxiliary basis functions  .... 4003
   RIJ-COSX (HFX calculated with COS-X)).... on


General Settings:
 Integral files         IntName         .... xtbopt
 Hartree-Fock type      HFTyp           .... RHF
 Total Charge           Charge          ....    0
 Multiplicity           Mult            ....    1
 Number of Electrons    NEL             ....  552
 Basis Dimension        Dim             .... 1198
 Nuclear Repulsion      ENuc            ....  12713.8007017264 Eh

Convergence Acceleration:
 DIIS                   CNVDIIS         .... on
   Start iteration      DIISMaxIt       ....    12
   Startup error        DIISStart       ....  0.200000
   # of expansion vecs  DIISMaxEq       ....     5
   Bias factor          DIISBfac        ....   1.050
   Max. coefficient     DIISMaxC        ....  10.000
 Newton-Raphson         CNVNR           .... off
 SOSCF                  CNVSOSCF        .... on
   Start iteration      SOSCFMaxIt      ....   150
   Startup grad/error   SOSCFStart      ....  0.003300
 Level Shifting         CNVShift        .... on
   Level shift para.    LevelShift      ....    0.2500
   Turn off err/grad.   ShiftErr        ....    0.0010
 Zerner damping         CNVZerner       .... off
 Static damping         CNVDamp         .... on
   Fraction old density DampFac         ....    0.7000
   Max. Damping (<1)    DampMax         ....    0.9800
   Min. Damping (>=0)   DampMin         ....    0.0000
   Turn off err/grad.   DampErr         ....    0.1000
 Fernandez-Rico         CNVRico         .... off

SCF Procedure:
 Maximum # iterations   MaxIter         ....   125
 SCF integral mode      SCFMode         .... Direct
   Integral package                     .... LIBINT
 Reset frequency        DirectResetFreq ....    20
 Integral Threshold     Thresh          ....  2.500e-11 Eh
 Primitive CutOff       TCut            ....  2.500e-12 Eh

Convergence Tolerance:
 Convergence Check Mode ConvCheckMode   .... Total+1el-Energy
 Convergence forced     ConvForced      .... 1
 Energy Change          TolE            ....  1.000e-08 Eh
 1-El. energy change                    ....  1.000e-05 Eh
 Orbital Gradient       TolG            ....  1.000e-05
 Orbital Rotation angle TolX            ....  1.000e-05
 DIIS Error             TolErr          ....  5.000e-07


Diagonalization of the overlap matrix:
Smallest eigenvalue                        ... 1.063e-04
Time for diagonalization                   ...    0.197 sec
Threshold for overlap eigenvalues          ... 1.000e-08
Number of eigenvalues below threshold      ... 0
Time for construction of square roots      ...    0.151 sec
Total time needed                          ...    0.351 sec

-------------------
DFT GRID GENERATION
-------------------

General Integration Accuracy     IntAcc      ...  4.670
Radial Grid Type                 RadialGrid  ... Gauss-Chebyshev
Angular Grid (max. acc.)         AngularGrid ... Lebedev-302
Angular grid pruning method      GridPruning ... 3 (G Style)
Weight generation scheme         WeightScheme... Becke
Basis function cutoff            BFCut       ...    1.0000e-11
Integration weight cutoff        WCut        ...    1.0000e-14
Grids for H and He will be reduced by one unit

# of grid points (after initial pruning)     ... 549494 (   0.0 sec)
# of grid points (after weights+screening)   ... 469153 (   5.7 sec)
nearest neighbour list constructed           ...    0.0 sec
Grid point re-assignment to atoms done       ...    0.1 sec
Grid point division into batches done        ...    1.7 sec
Reduced shell lists constructed in    2.8 sec

Total number of grid points                  ...   469153
Total number of batches                      ...     7382
Average number of points per batch           ...       63
Average number of grid points per atom       ...     4837
Average number of shells per batch           ...   101.84 (19.14%)
Average number of basis functions per batch  ...   217.92 (18.19%)
Average number of large shells per batch     ...    63.23 (62.09%)
Average number of large basis fcns per batch ...   136.80 (62.77%)
Maximum spatial batch extension              ...  22.25, 17.65, 19.44 au
Average spatial batch extension              ...   0.32,  0.30,  0.31 au

Time for grid setup =    8.881 sec

------------------------------
INITIAL GUESS: MODEL POTENTIAL
------------------------------
Loading Hartree-Fock densities                     ... done
Calculating cut-offs                               ... done
Setting up the integral package                    ... done
Initializing the effective Hamiltonian             ... done
Starting the Coulomb interaction                   ... done (   1.5 sec)
Reading the grid                                   ... done
Mapping shells                                     ... done
Starting the XC term evaluation                    ... done (   1.3 sec)
  promolecular density results
     # of electrons  =    551.988868560
     EX              =   -528.920242510
     EC              =    -19.228039812
     EX+EC           =   -548.148282323
Transforming the Hamiltonian                       ... done (   0.1 sec)
Diagonalizing the Hamiltonian                      ... done (   0.2 sec)
Back transforming the eigenvectors                 ... done (   0.1 sec)
Now organizing SCF variables                       ... done
                      ------------------
                      INITIAL GUESS DONE (  12.1 sec)
                      ------------------
--------------------
COSX GRID GENERATION
--------------------

General Integration Accuracy     IntAcc      ...  3.340
Radial Grid Type                 RadialGrid  ... Gauss-Chebyshev
Angular Grid (max. acc.)         AngularGrid ... Lebedev-50
Angular grid pruning method      GridPruning ... 3 (G Style)
Weight generation scheme         WeightScheme... Becke
Basis function cutoff            BFCut       ...    1.0000e-11
Integration weight cutoff        WCut        ...    1.0000e-14
Grids for H and He will be reduced by one unit

# of grid points (after initial pruning)     ...  51550 (   0.0 sec)
# of grid points (after weights+screening)   ...  46128 (   0.5 sec)
nearest neighbour list constructed           ...    0.0 sec
Grid point re-assignment to atoms done       ...    0.0 sec
Grid point division into batches done        ...    0.0 sec
Reduced shell lists constructed in    0.2 sec

Total number of grid points                  ...    46128
Total number of batches                      ...      773
Average number of points per batch           ...       59
Average number of grid points per atom       ...      476
Average number of shells per batch           ...   119.74 (22.51%)
Average number of basis functions per batch  ...   258.71 (21.59%)
Average number of large shells per batch     ...    74.06 (61.85%)
Average number of large basis fcns per batch ...   162.46 (62.80%)
Maximum spatial batch extension              ...  16.97, 16.93, 17.45 au
Average spatial batch extension              ...   0.75,  0.66,  0.68 au

Overlap Fitting                  UseSFitting ... on
Constructing numerical overlap ... done (      0.1 sec)
Inverting numerical overlap    ... done (      0.1 sec)
Obtaining analytic overlap     ... done (      0.0 sec)
Final contraction and storage  ... done (      0.1 sec)


General Integration Accuracy     IntAcc      ...  3.670
Radial Grid Type                 RadialGrid  ... Gauss-Chebyshev
Angular Grid (max. acc.)         AngularGrid ... Lebedev-50
Angular grid pruning method      GridPruning ... 3 (G Style)
Weight generation scheme         WeightScheme... Becke
Basis function cutoff            BFCut       ...    1.0000e-11
Integration weight cutoff        WCut        ...    1.0000e-14
Grids for H and He will be reduced by one unit

# of grid points (after initial pruning)     ...  63950 (   0.0 sec)
# of grid points (after weights+screening)   ...  56984 (   0.7 sec)
nearest neighbour list constructed           ...    0.0 sec
Grid point re-assignment to atoms done       ...    0.0 sec
Grid point division into batches done        ...    0.0 sec
Reduced shell lists constructed in    0.2 sec

Total number of grid points                  ...    56984
Total number of batches                      ...      938
Average number of points per batch           ...       60
Average number of grid points per atom       ...      587
Average number of shells per batch           ...   118.91 (22.35%)
Average number of basis functions per batch  ...   256.63 (21.42%)
Average number of large shells per batch     ...    73.41 (61.74%)
Average number of large basis fcns per batch ...   160.88 (62.69%)
Maximum spatial batch extension              ...  18.13, 17.79, 19.73 au
Average spatial batch extension              ...   0.68,  0.58,  0.64 au

Overlap Fitting                  UseSFitting ... on
Constructing numerical overlap ... done (      0.1 sec)
Inverting numerical overlap    ... done (      0.1 sec)
Obtaining analytic overlap     ... done (      0.0 sec)
Final contraction and storage  ... done (      0.1 sec)


General Integration Accuracy     IntAcc      ...  4.010
Radial Grid Type                 RadialGrid  ... Gauss-Chebyshev
Angular Grid (max. acc.)         AngularGrid ... Lebedev-110
Angular grid pruning method      GridPruning ... 3 (G Style)
Weight generation scheme         WeightScheme... Becke
Basis function cutoff            BFCut       ...    1.0000e-11
Integration weight cutoff        WCut        ...    1.0000e-14
Grids for H and He will be reduced by one unit

# of grid points (after initial pruning)     ... 127080 (   0.0 sec)
# of grid points (after weights+screening)   ... 111877 (   1.3 sec)
nearest neighbour list constructed           ...    0.0 sec
Grid point re-assignment to atoms done       ...    0.0 sec
Grid point division into batches done        ...    0.1 sec
Reduced shell lists constructed in    0.4 sec

Total number of grid points                  ...   111877
Total number of batches                      ...     1799
Average number of points per batch           ...       62
Average number of grid points per atom       ...     1153
Average number of shells per batch           ...   112.19 (21.09%)
Average number of basis functions per batch  ...   241.80 (20.18%)
Average number of large shells per batch     ...    70.17 (62.55%)
Average number of large basis fcns per batch ...   153.33 (63.41%)
Maximum spatial batch extension              ...  21.17, 21.17, 20.40 au
Average spatial batch extension              ...   0.55,  0.51,  0.51 au

Overlap Fitting                  UseSFitting ... on
Constructing numerical overlap ... done (      0.2 sec)
Inverting numerical overlap    ... done (      0.1 sec)
Obtaining analytic overlap     ... done (      0.0 sec)
Final contraction and storage  ... done (      0.1 sec)

Time for X-Grid setup             =    4.301 sec
--------------
SCF ITERATIONS
--------------
ITER       Energy         Delta-E        Max-DP      RMS-DP      [F,P]     Damp
               ***  Starting incremental Fock matrix formation  ***
  0  -5104.7202292376   0.000000000000 0.09247412  0.00104497  0.2368955 0.7000
  1  -5105.3552500973  -0.635020859758 0.04465331  0.00073567  0.0966170 0.7000
                               ***Turning on DIIS***
  2  -5105.6214695974  -0.266219500056 0.08455101  0.00136639  0.0399031 0.0000
  3  -5106.0813838700  -0.459914272662 0.08972139  0.00051791  0.0695786 0.0000
  4  -5106.1555186172  -0.074134747199 0.01679437  0.00019848  0.0252506 0.0000
  5  -5106.1650802975  -0.009561680294 0.00924066  0.00009362  0.0056817 0.0000
  6  -5106.1669082236  -0.001827926082 0.00401525  0.00005533  0.0032494 0.0000
  7  -5106.1678629864  -0.000954762812 0.00261365  0.00003970  0.0011674 0.0000
  8  -5106.1683903350  -0.000527348606 0.00201901  0.00003050  0.0012425 0.0000
  9  -5106.1686982994  -0.000307964376 0.00312666  0.00005409  0.0008787 0.0000
               *** Restarting incremental Fock matrix formation ***
                                   *** Resetting DIIS ***
                      *** Initiating the SOSCF procedure ***
                           *** Shutting down DIIS ***
                      *** Re-Reading the Fockian *** 
                      *** Removing any level shift *** 
ITER      Energy       Delta-E        Grad      Rot      Max-DP    RMS-DP
 10  -5106.16899513  -0.0002968323  0.000485  0.000485  0.001045  0.000013
               *** Restarting incremental Fock matrix formation ***
 11  -5106.16900695  -0.0000118227  0.000685  0.004611  0.001646  0.000014
 12  -5106.16900010   0.0000068580  0.000746  0.001544  0.001074  0.000009
 13  -5106.16903077  -0.0000306727  0.000088  0.001089  0.000447  0.000005
 14  -5106.16903201  -0.0000012431  0.000064  0.000738  0.000203  0.000003
 15  -5106.16903272  -0.0000007087  0.000026  0.000109  0.000088  0.000001
 16  -5106.16903279  -0.0000000659  0.000025  0.000115  0.000060  0.000001
 17  -5106.16903287  -0.0000000830  0.000008  0.000043  0.000032  0.000000
 18  -5106.16903289  -0.0000000156  0.000006  0.000023  0.000019  0.000000
                  ***Gradient check signals convergence***
              ***Rediagonalizing the Fockian in SOSCF/NRSCF***

               *****************************************************
               *                     SUCCESS                       *
               *           SCF CONVERGED AFTER  19 CYCLES          *
               *****************************************************

Setting up the final grid:

General Integration Accuracy     IntAcc      ...  5.010
Radial Grid Type                 RadialGrid  ... Gauss-Chebyshev
Angular Grid (max. acc.)         AngularGrid ... Lebedev-434
Angular grid pruning method      GridPruning ... 3 (G Style)
Weight generation scheme         WeightScheme... Becke
Basis function cutoff            BFCut       ...    1.0000e-11
Integration weight cutoff        WCut        ...    1.0000e-14
Grids for H and He will be reduced by one unit

# of grid points (after initial pruning)     ... 962244 (   0.1 sec)
# of grid points (after weights+screening)   ... 819001 (   9.8 sec)
nearest neighbour list constructed           ...    0.0 sec
Grid point re-assignment to atoms done       ...    0.1 sec
Grid point division into batches done        ...    5.4 sec
Reduced shell lists constructed in    7.1 sec

Total number of grid points                  ...   819001
Total number of batches                      ...    12842
Average number of points per batch           ...       63
Average number of grid points per atom       ...     8443
Average number of shells per batch           ...    98.79 (18.57%)
Average number of basis functions per batch  ...   211.06 (17.62%)
Average number of large shells per batch     ...    61.15 (61.90%)
Average number of large basis fcns per batch ...   132.11 (62.59%)
Maximum spatial batch extension              ...  20.32, 18.14, 18.36 au
Average spatial batch extension              ...   0.25,  0.24,  0.24 au

Final grid set up in   17.7 sec
Final integration                            ... done (   3.0 sec)
Change in XC energy                          ...    -0.000055881
Integrated number of electrons               ...   551.999959176
Previous integrated no of electrons          ...   551.999388149
Old exchange energy                            =   -145.100900890 Eh
New exchange energy                            =   -145.098998088 Eh
Exchange energy change after final integration =      0.001902802 Eh
Total energy after final integration           =  -5106.167186014 Eh
Final COS-X integration done in                =    68.077 sec

----------------
TOTAL SCF ENERGY
----------------

Total Energy       :        -5106.16718601 Eh         -138945.87300 eV

Components:
Nuclear Repulsion  :        12713.80070173 Eh          345960.10537 eV
Electronic Energy  :       -17819.96788774 Eh         -484905.97837 eV
One Electron Energy:       -32322.95684422 Eh         -879552.37131 eV
Two Electron Energy:        14502.98895648 Eh          394646.39294 eV

Virial components:
Potential Energy   :       -10180.17195220 Eh         -277016.56207 eV
Kinetic Energy     :         5074.00476619 Eh          138070.68907 eV
Virial Ratio       :            2.00633867


DFT components:
N(Alpha)           :      275.999979588065 electrons
N(Beta)            :      275.999979588065 electrons
N(Total)           :      551.999959176130 electrons
E(XC)              :     -411.152657195826 Eh       
DFET-embed. en.    :        0.000000000000 Eh       

---------------
SCF CONVERGENCE
---------------

  Last Energy change         ...   -4.9431e-08  Tolerance :   1.0000e-08
  Last MAX-Density change    ...    7.9936e-15  Tolerance :   1.0000e-07
  Last RMS-Density change    ...    3.9043e-17  Tolerance :   5.0000e-09
  Last Orbital Gradient      ...    1.0530e-06  Tolerance :   1.0000e-05
  Last Orbital Rotation      ...    1.3213e-05  Tolerance :   1.0000e-05

             **** THE GBW FILE WAS UPDATED (xtbopt.gbw) ****
             **** DENSITY FILE WAS UPDATED (xtbopt.scfp) ****
             **** ENERGY FILE WAS UPDATED (xtbopt.en.tmp) ****
             **** THE GBW FILE WAS UPDATED (xtbopt.gbw) ****
             **** DENSITY FILE WAS UPDATED (xtbopt.scfp) ****
----------------
ORBITAL ENERGIES
----------------

  NO   OCC          E(Eh)            E(eV) 
   0   2.0000     -89.053221     -2423.2613 
   1   2.0000     -88.975269     -2421.1402 
   2   2.0000     -88.966407     -2420.8990 
   3   2.0000     -88.965215     -2420.8666 
   4   2.0000     -88.961087     -2420.7542 
   5   2.0000     -24.793408      -674.6629 
   6   2.0000     -24.788749      -674.5362 
   7   2.0000     -19.215702      -522.8858 
   8   2.0000     -19.212307      -522.7934 
   9   2.0000     -14.476082      -393.9142 
  10   2.0000     -14.471476      -393.7889 
  11   2.0000     -14.462787      -393.5524 
  12   2.0000     -14.461592      -393.5199 
  13   2.0000     -14.442599      -393.0031 
  14   2.0000     -14.434221      -392.7751 
  15   2.0000     -14.411905      -392.1679 
  16   2.0000     -14.409525      -392.1031 
  17   2.0000     -14.408168      -392.0662 
  18   2.0000     -14.408043      -392.0628 
  19   2.0000     -10.394546      -282.8500 
  20   2.0000     -10.392955      -282.8067 
  21   2.0000     -10.366656      -282.0911 
  22   2.0000     -10.364179      -282.0237 
  23   2.0000     -10.363304      -281.9998 
  24   2.0000     -10.359525      -281.8970 
  25   2.0000     -10.359039      -281.8838 
  26   2.0000     -10.356747      -281.8214 
  27   2.0000     -10.356697      -281.8200 
  28   2.0000     -10.354484      -281.7598 
  29   2.0000     -10.338601      -281.3276 
  30   2.0000     -10.336923      -281.2820 
  31   2.0000     -10.336490      -281.2702 
  32   2.0000     -10.335230      -281.2359 
  33   2.0000     -10.334705      -281.2216 
  34   2.0000     -10.333836      -281.1980 
  35   2.0000     -10.331846      -281.1438 
  36   2.0000     -10.331157      -281.1251 
  37   2.0000     -10.327222      -281.0180 
  38   2.0000     -10.326237      -280.9912 
  39   2.0000     -10.322194      -280.8812 
  40   2.0000     -10.321561      -280.8639 
  41   2.0000     -10.320826      -280.8439 
  42   2.0000     -10.318725      -280.7868 
  43   2.0000     -10.317795      -280.7615 
  44   2.0000     -10.316758      -280.7333 
  45   2.0000     -10.315933      -280.7108 
  46   2.0000     -10.314296      -280.6663 
  47   2.0000     -10.311809      -280.5986 
  48   2.0000     -10.311064      -280.5783 
  49   2.0000     -10.310487      -280.5626 
  50   2.0000     -10.310417      -280.5607 
  51   2.0000     -10.305062      -280.4150 
  52   2.0000     -10.300582      -280.2931 
  53   2.0000     -10.300152      -280.2814 
  54   2.0000     -10.296799      -280.1902 
  55   2.0000     -10.296150      -280.1725 
  56   2.0000     -10.295213      -280.1470 
  57   2.0000     -10.292405      -280.0706 
  58   2.0000     -10.292105      -280.0624 
  59   2.0000     -10.291234      -280.0387 
  60   2.0000     -10.290960      -280.0313 
  61   2.0000     -10.290224      -280.0112 
  62   2.0000     -10.289852      -280.0011 
  63   2.0000     -10.288713      -279.9701 
  64   2.0000     -10.288159      -279.9550 
  65   2.0000     -10.287934      -279.9489 
  66   2.0000     -10.285220      -279.8751 
  67   2.0000     -10.281363      -279.7701 
  68   2.0000     -10.281357      -279.7699 
  69   2.0000     -10.281294      -279.7682 
  70   2.0000     -10.280838      -279.7558 
  71   2.0000     -10.279966      -279.7321 
  72   2.0000     -10.279831      -279.7284 
  73   2.0000     -10.279580      -279.7216 
  74   2.0000     -10.279034      -279.7067 
  75   2.0000     -10.278991      -279.7056 
  76   2.0000     -10.278826      -279.7011 
  77   2.0000      -8.144426      -221.6211 
  78   2.0000      -8.068126      -219.5449 
  79   2.0000      -8.062481      -219.3913 
  80   2.0000      -8.056954      -219.2409 
  81   2.0000      -8.054935      -219.1859 
  82   2.0000      -6.115551      -166.4126 
  83   2.0000      -6.107751      -166.2004 
  84   2.0000      -6.107146      -166.1839 
  85   2.0000      -6.037900      -164.2996 
  86   2.0000      -6.033032      -164.1671 
  87   2.0000      -6.032233      -164.1454 
  88   2.0000      -6.030052      -164.0860 
  89   2.0000      -6.028079      -164.0324 
  90   2.0000      -6.026464      -163.9884 
  91   2.0000      -6.024796      -163.9430 
  92   2.0000      -6.023482      -163.9073 
  93   2.0000      -6.021835      -163.8625 
  94   2.0000      -6.020400      -163.8234 
  95   2.0000      -6.018798      -163.7798 
  96   2.0000      -6.016142      -163.7076 
  97   2.0000      -1.306930       -35.5634 
  98   2.0000      -1.300914       -35.3997 
  99   2.0000      -1.152535       -31.3621 
 100   2.0000      -1.135871       -30.9086 
 101   2.0000      -1.131768       -30.7970 
 102   2.0000      -1.127327       -30.6761 
 103   2.0000      -1.063505       -28.9394 
 104   2.0000      -1.029258       -28.0075 
 105   2.0000      -1.023502       -27.8509 
 106   2.0000      -1.020397       -27.7664 
 107   2.0000      -1.012905       -27.5625 
 108   2.0000      -1.011360       -27.5205 
 109   2.0000      -1.010252       -27.4904 
 110   2.0000      -1.004346       -27.3296 
 111   2.0000      -0.993868       -27.0445 
 112   2.0000      -0.991949       -26.9923 
 113   2.0000      -0.989605       -26.9285 
 114   2.0000      -0.988542       -26.8996 
 115   2.0000      -0.986551       -26.8454 
 116   2.0000      -0.969132       -26.3714 
 117   2.0000      -0.965834       -26.2817 
 118   2.0000      -0.961403       -26.1611 
 119   2.0000      -0.953830       -25.9550 
 120   2.0000      -0.926668       -25.2159 
 121   2.0000      -0.920894       -25.0588 
 122   2.0000      -0.918667       -24.9982 
 123   2.0000      -0.914070       -24.8731 
 124   2.0000      -0.904142       -24.6030 
 125   2.0000      -0.893008       -24.3000 
 126   2.0000      -0.881251       -23.9801 
 127   2.0000      -0.875574       -23.8256 
 128   2.0000      -0.874429       -23.7944 
 129   2.0000      -0.872208       -23.7340 
 130   2.0000      -0.863810       -23.5055 
 131   2.0000      -0.854556       -23.2536 
 132   2.0000      -0.847738       -23.0681 
 133   2.0000      -0.846073       -23.0228 
 134   2.0000      -0.843434       -22.9510 
 135   2.0000      -0.822885       -22.3918 
 136   2.0000      -0.821620       -22.3574 
 137   2.0000      -0.817526       -22.2460 
 138   2.0000      -0.813328       -22.1318 
 139   2.0000      -0.805538       -21.9198 
 140   2.0000      -0.791257       -21.5312 
 141   2.0000      -0.788653       -21.4603 
 142   2.0000      -0.782534       -21.2938 
 143   2.0000      -0.763178       -20.7671 
 144   2.0000      -0.756117       -20.5750 
 145   2.0000      -0.755222       -20.5506 
 146   2.0000      -0.749256       -20.3883 
 147   2.0000      -0.736307       -20.0359 
 148   2.0000      -0.717029       -19.5114 
 149   2.0000      -0.712552       -19.3895 
 150   2.0000      -0.710811       -19.3422 
 151   2.0000      -0.701530       -19.0896 
 152   2.0000      -0.698063       -18.9953 
 153   2.0000      -0.695621       -18.9288 
 154   2.0000      -0.692108       -18.8332 
 155   2.0000      -0.685797       -18.6615 
 156   2.0000      -0.677459       -18.4346 
 157   2.0000      -0.672018       -18.2865 
 158   2.0000      -0.669657       -18.2223 
 159   2.0000      -0.668975       -18.2037 
 160   2.0000      -0.665235       -18.1020 
 161   2.0000      -0.659455       -17.9447 
 162   2.0000      -0.654334       -17.8053 
 163   2.0000      -0.646815       -17.6007 
 164   2.0000      -0.644989       -17.5510 
 165   2.0000      -0.638957       -17.3869 
 166   2.0000      -0.631168       -17.1749 
 167   2.0000      -0.626355       -17.0440 
 168   2.0000      -0.623494       -16.9661 
 169   2.0000      -0.614584       -16.7237 
 170   2.0000      -0.607167       -16.5219 
 171   2.0000      -0.603182       -16.4134 
 172   2.0000      -0.602246       -16.3880 
 173   2.0000      -0.599345       -16.3090 
 174   2.0000      -0.598046       -16.2737 
 175   2.0000      -0.593579       -16.1521 
 176   2.0000      -0.584836       -15.9142 
 177   2.0000      -0.573906       -15.6168 
 178   2.0000      -0.571775       -15.5588 
 179   2.0000      -0.568248       -15.4628 
 180   2.0000      -0.565684       -15.3930 
 181   2.0000      -0.563005       -15.3202 
 182   2.0000      -0.559081       -15.2134 
 183   2.0000      -0.551838       -15.0163 
 184   2.0000      -0.549882       -14.9631 
 185   2.0000      -0.545792       -14.8518 
 186   2.0000      -0.541527       -14.7357 
 187   2.0000      -0.540836       -14.7169 
 188   2.0000      -0.538562       -14.6550 
 189   2.0000      -0.535830       -14.5807 
 190   2.0000      -0.533369       -14.5137 
 191   2.0000      -0.531722       -14.4689 
 192   2.0000      -0.531515       -14.4632 
 193   2.0000      -0.526862       -14.3366 
 194   2.0000      -0.522191       -14.2095 
 195   2.0000      -0.520239       -14.1564 
 196   2.0000      -0.516820       -14.0634 
 197   2.0000      -0.516675       -14.0594 
 198   2.0000      -0.514351       -13.9962 
 199   2.0000      -0.513678       -13.9779 
 200   2.0000      -0.511275       -13.9125 
 201   2.0000      -0.509947       -13.8764 
 202   2.0000      -0.507941       -13.8218 
 203   2.0000      -0.506464       -13.7816 
 204   2.0000      -0.505964       -13.7680 
 205   2.0000      -0.503992       -13.7143 
 206   2.0000      -0.501397       -13.6437 
 207   2.0000      -0.497305       -13.5324 
 208   2.0000      -0.495088       -13.4720 
 209   2.0000      -0.494383       -13.4528 
 210   2.0000      -0.491839       -13.3836 
 211   2.0000      -0.490799       -13.3553 
 212   2.0000      -0.490053       -13.3350 
 213   2.0000      -0.489395       -13.3171 
 214   2.0000      -0.484749       -13.1907 
 215   2.0000      -0.482945       -13.1416 
 216   2.0000      -0.480498       -13.0750 
 217   2.0000      -0.477778       -13.0010 
 218   2.0000      -0.476221       -12.9586 
 219   2.0000      -0.470517       -12.8034 
 220   2.0000      -0.469114       -12.7652 
 221   2.0000      -0.465078       -12.6554 
 222   2.0000      -0.461014       -12.5448 
 223   2.0000      -0.459166       -12.4945 
 224   2.0000      -0.458204       -12.4684 
 225   2.0000      -0.457107       -12.4385 
 226   2.0000      -0.454967       -12.3803 
 227   2.0000      -0.450116       -12.2483 
 228   2.0000      -0.449119       -12.2212 
 229   2.0000      -0.446625       -12.1533 
 230   2.0000      -0.442040       -12.0285 
 231   2.0000      -0.440249       -11.9798 
 232   2.0000      -0.437352       -11.9009 
 233   2.0000      -0.436776       -11.8853 
 234   2.0000      -0.435701       -11.8560 
 235   2.0000      -0.434891       -11.8340 
 236   2.0000      -0.432920       -11.7804 
 237   2.0000      -0.431344       -11.7375 
 238   2.0000      -0.430682       -11.7195 
 239   2.0000      -0.428578       -11.6622 
 240   2.0000      -0.427528       -11.6336 
 241   2.0000      -0.427053       -11.6207 
 242   2.0000      -0.426058       -11.5936 
 243   2.0000      -0.422394       -11.4939 
 244   2.0000      -0.420761       -11.4495 
 245   2.0000      -0.419303       -11.4098 
 246   2.0000      -0.418912       -11.3992 
 247   2.0000      -0.416757       -11.3405 
 248   2.0000      -0.412859       -11.2345 
 249   2.0000      -0.412544       -11.2259 
 250   2.0000      -0.410556       -11.1718 
 251   2.0000      -0.403209       -10.9719 
 252   2.0000      -0.400864       -10.9081 
 253   2.0000      -0.397632       -10.8201 
 254   2.0000      -0.394135       -10.7249 
 255   2.0000      -0.381078       -10.3697 
 256   2.0000      -0.377724       -10.2784 
 257   2.0000      -0.373433       -10.1616 
 258   2.0000      -0.371532       -10.1099 
 259   2.0000      -0.366565        -9.9747 
 260   2.0000      -0.363083        -9.8800 
 261   2.0000      -0.358767        -9.7625 
 262   2.0000      -0.355956        -9.6861 
 263   2.0000      -0.336718        -9.1626 
 264   2.0000      -0.328662        -8.9434 
 265   2.0000      -0.325489        -8.8570 
 266   2.0000      -0.324442        -8.8285 
 267   2.0000      -0.318348        -8.6627 
 268   2.0000      -0.312875        -8.5137 
 269   2.0000      -0.310847        -8.4586 
 270   2.0000      -0.308689        -8.3998 
 271   2.0000      -0.302530        -8.2323 
 272   2.0000      -0.288691        -7.8557 
 273   2.0000      -0.287497        -7.8232 
 274   2.0000      -0.274268        -7.4632 
 275   2.0000      -0.237747        -6.4694 
 276   0.0000      -0.142638        -3.8814 
 277   0.0000      -0.088813        -2.4167 
 278   0.0000      -0.084733        -2.3057 
 279   0.0000      -0.062104        -1.6899 
 280   0.0000      -0.052980        -1.4417 
 281   0.0000      -0.049873        -1.3571 
 282   0.0000      -0.044835        -1.2200 
 283   0.0000      -0.030742        -0.8365 
 284   0.0000      -0.019595        -0.5332 
 285   0.0000      -0.004441        -0.1208 
 286   0.0000       0.018427         0.5014 
 287   0.0000       0.028534         0.7764 
 288   0.0000       0.035154         0.9566 
[...]
   3   17247.6    579.8   0.070886717   1.35305  -0.13926   0.04848   1.15382
   4   17948.4    557.2   0.357021220   6.54853  -1.96648   1.63608   0.06863
   5   18380.1    544.1   0.017363957   0.31101  -0.16118   0.53259  -0.03713
   6   19393.8    515.6   0.004549364   0.07723   0.04910  -0.16576  -0.21758
   7   19788.4    505.3   0.007794771   0.12968  -0.34562  -0.00222  -0.10110
   8   20090.8    497.7   0.013241811   0.21698  -0.04136  -0.12698  -0.44626
   9   22062.4    453.3   0.068672750   1.02473   0.73852  -0.56391   0.40165
  10   22592.5    442.6   0.007313412   0.10657   0.05445   0.03644  -0.31981
  11   22876.9    437.1   0.216551474   3.11630   1.26649  -0.96576   0.76132
  12   23725.7    421.5   0.129241010   1.79332  -0.92908   0.81546   0.51492
  13   24443.3    409.1   0.005724605   0.07710  -0.07017   0.25588   0.08188
  14   24835.1    402.7   0.041725452   0.55311   0.43285  -0.02129   0.60440
  15   25262.6    395.8   0.023962759   0.31227   0.45143  -0.32913   0.01234
  16   25596.8    390.7   0.105009740   1.35058   0.61832  -0.54144   0.82164
  17   25964.5    385.1   0.012225532   0.15501  -0.05380   0.38745   0.04471
  18   26180.1    382.0   0.073084828   0.91903  -0.32464   0.83891   0.33147
  19   26469.5    377.8   0.070270086   0.87398   0.11562  -0.06222   0.92560
  20   26814.6    372.9   0.112025628   1.37538   0.07171   0.49075   1.06273
  21   27147.6    368.4   0.079081394   0.95900   0.42480  -0.42610   0.77265
  22   27847.0    359.1   0.199332870   2.35655   1.02858   0.19145   1.12335
  23   28718.7    348.2   0.105470912   1.20905   0.02137  -0.18808   1.08315
  24   28880.7    346.3   0.043720094   0.49837   0.31363  -0.22281   0.59191
  25   29308.0    341.2   0.156468749   1.75759  -0.70674   0.70518  -0.87225
  26   29471.8    339.3   0.028718731   0.32080  -0.08975   0.32337   0.45627
  27   29812.6    335.4   0.076614235   0.84603   0.82871  -0.29756   0.26596
  28   30019.1    333.1   0.226449326   2.48341  -0.39483   0.20717  -1.51149
  29   30398.2    329.0   0.390910464   4.23355  -1.26109   0.84097  -1.39139
  30   30571.6    327.1   0.064146891   0.69077  -0.68050   0.20982   0.42856
  31   30776.7    324.9   0.030340211   0.32454  -0.08383   0.03519  -0.56239
  32   31082.8    321.7   0.013299576   0.14086  -0.01416  -0.32051   0.19476
  33   31817.0    314.3   0.012471884   0.12905  -0.12088   0.28298  -0.18536
  34   32364.1    309.0   0.041121865   0.41830   0.42782   0.41722   0.24738
  35   32483.5    307.8   0.008865491   0.08985  -0.19977   0.15210   0.16373
  36   32620.7    306.6   0.030566479   0.30848   0.05441   0.11094  -0.54149
  37   32870.1    304.2   0.192964883   1.93265   0.83089  -0.43565   1.02591
  38   33245.0    300.8   0.025699891   0.25450  -0.12845  -0.45350   0.17983
  39   33379.9    299.6   0.079278012   0.78189  -0.16548  -0.84678   0.19357
  40   33751.4    296.3   0.387942459   3.78400  -0.89404  -0.58737  -1.62471
  41   34290.4    291.6   0.129179897   1.24022   0.10354  -0.06968  -1.10664
  42   34437.0    290.4   0.327524106   3.13108  -0.32754  -0.46070   1.67677
  43   34552.1    289.4   0.164795283   1.57017   0.28069  -0.29190   1.18582
  44   34685.1    288.3   0.242913589   2.30560   0.95281   0.02625   1.18198
  45   34770.1    287.6   0.055624474   0.52667   0.41578   0.37409   0.46244
  46   34900.1    286.5   0.107498302   1.01403  -0.35317  -0.37911  -0.86347
  47   35131.5    284.6   0.089809339   0.84159  -0.39329  -0.24574  -0.79153
  48   35455.0    282.0   0.031440716   0.29194   0.37900   0.20476   0.32615
  49   35685.2    280.2   0.152379172   1.40577   0.52432  -0.60428   0.87504
  50   36100.4    277.0   0.139298387   1.27031   0.18031  -0.30212   1.07076
  51   36113.8    276.9   0.024527595   0.22359   0.07947  -0.31503  -0.34355
  52   36568.9    273.5   0.045552428   0.41009   0.27720  -0.17359  -0.55056
  53   36582.1    273.4   0.013593299   0.12233   0.08930   0.33688  -0.02940
  54   36852.1    271.4   0.047999430   0.42879   0.43039  -0.09626   0.48404
  55   37123.2    269.4   0.048474099   0.42987  -0.11949  -0.34344  -0.54557
  56   37235.3    268.6   0.034674978   0.30658   0.27326  -0.22378   0.42641
  57   37377.3    267.5   0.191031555   1.68257   0.78070  -0.32730   0.98282
  58   37621.5    265.8   0.009191413   0.08043  -0.01936   0.06113   0.27626
  59   37717.4    265.1   0.013450175   0.11740  -0.13287  -0.07920  -0.30573
  60   37790.7    264.6   0.024079984   0.20977  -0.03362  -0.19952  -0.41089
  61   38028.0    263.0   0.036644409   0.31723   0.28984   0.05024  -0.48031
  62   38094.8    262.5   0.048588568   0.41990   0.14303  -0.10328   0.62352
  63   38338.9    260.8   0.010648739   0.09144  -0.18671   0.22049  -0.08924
  64   38590.9    259.1   0.442630807   3.77601   1.31009  -1.22246   0.75185
  65   38705.5    258.4   0.024663330   0.20978   0.30842  -0.18575   0.28311
  66   38758.3    258.0   0.104976439   0.89167  -0.72796   0.57631  -0.17206
  67   39160.9    255.4   0.026832396   0.22557  -0.16179  -0.33706   0.29289
  68   39317.7    254.3   0.056354463   0.47186   0.28548  -0.58913  -0.20804
  69   39459.8    253.4   0.028893185   0.24105  -0.31207  -0.18089   0.33309
  70   39632.7    252.3   0.069970083   0.58121  -0.36635   0.53361   0.40282
  71   39716.2    251.8   0.122194103   1.01288   0.78309  -0.41019   0.48103
  72   39815.1    251.2   0.005497927   0.04546  -0.14059   0.06667   0.14577
  73   40119.0    249.3   0.050054177   0.41074  -0.56677  -0.06582  -0.29185
  74   40182.7    248.9   0.044604902   0.36544   0.25479  -0.54704   0.03570

-----------------------------------------------------------------------------
         ABSORPTION SPECTRUM VIA TRANSITION VELOCITY DIPOLE MOMENTS
-----------------------------------------------------------------------------
State   Energy  Wavelength   fosc         P2         PX        PY        PZ  
        (cm-1)    (nm)                  (au**2)     (au)      (au)      (au) 
-----------------------------------------------------------------------------
   0    5623.8   1778.1   1.911370876   0.07347  -0.17183   0.15168   0.14468
   1   13440.5    744.0   0.025172638   0.00231  -0.00773   0.03325  -0.03387
   2   17024.6    587.4   0.145867408   0.01697   0.03078  -0.05061  -0.11604
   3   17247.6    579.8   0.080995328   0.00955  -0.00497  -0.00161   0.09757
   4   17948.4    557.2   0.413196788   0.05069  -0.17344   0.14340   0.00637
   5   18380.1    544.1   0.020756192   0.00261  -0.01707   0.04804  -0.00283
   6   19393.8    515.6   0.005854659   0.00078   0.00884  -0.01714  -0.02010
   7   19788.4    505.3   0.007366688   0.00100  -0.03057  -0.00150  -0.00773
   8   20090.8    497.7   0.012959864   0.00178  -0.00237  -0.01251  -0.04022
   9   22062.4    453.3   0.078499773   0.01184   0.07766  -0.05827   0.04910
  10   22592.5    442.6   0.007442513   0.00115   0.00648   0.00308  -0.03313
  11   22876.9    437.1   0.240502141   0.03760   0.13855  -0.10632   0.08428
  12   23725.7    421.5   0.136150149   0.02208  -0.10445   0.09065   0.05432
  13   24443.3    409.1   0.008412317   0.00141  -0.01205   0.03251   0.01425
  14   24835.1    402.7   0.039628391   0.00673   0.04510  -0.00686   0.06816
  15   25262.6    395.8   0.021201036   0.00366   0.05011  -0.03361   0.00447
  16   25596.8    390.7   0.100578118   0.01760   0.07269  -0.06178   0.09217
  17   25964.5    385.1   0.011256865   0.00200  -0.00818   0.04385   0.00288
  18   26180.1    382.0   0.064772971   0.01159  -0.03365   0.09619   0.03471
  19   26469.5    377.8   0.070227531   0.01270   0.01112  -0.00842   0.11185
  20   26814.6    372.9   0.106014884   0.01943   0.01209   0.05831   0.12602
  21   27147.6    368.4   0.079967378   0.01484   0.05561  -0.05579   0.09291
  22   27847.0    359.1   0.198181630   0.03772   0.12956   0.02319   0.14281
  23   28718.7    348.2   0.098430854   0.01932   0.00119  -0.02443   0.13683
  24   28880.7    346.3   0.044248209   0.00873   0.04118  -0.03063   0.07810
  25   29308.0    341.2   0.148018087   0.02965  -0.08866   0.08899  -0.11776
  26   29471.8    339.3   0.029103069   0.00586  -0.01579   0.04198   0.06205
  27   29812.6    335.4   0.075910785   0.01547   0.11218  -0.04212   0.03331
  28   30019.1    333.1   0.217016899   0.04452  -0.05431   0.02825  -0.20193
  29   30398.2    329.0   0.373288126   0.07755  -0.16916   0.11606  -0.18833
  30   30571.6    327.1   0.068315486   0.01427  -0.09506   0.03589   0.06284
  31   30776.7    324.9   0.028915072   0.00608  -0.01355   0.00484  -0.07665
  32   31082.8    321.7   0.013652193   0.00290  -0.00434  -0.04351   0.03143
  33   31817.0    314.3   0.012556943   0.00273  -0.01723   0.03944  -0.02963
  34   32364.1    309.0   0.037988506   0.00840   0.06182   0.05784   0.03514
  35   32483.5    307.8   0.008264008   0.00183  -0.02842   0.02061   0.02454
  36   32620.7    306.6   0.030377408   0.00677   0.00880   0.01617  -0.08021
  37   32870.1    304.2   0.179348313   0.04029   0.11884  -0.06051   0.15002
  38   33245.0    300.8   0.024239279   0.00551  -0.01946  -0.06595   0.02791
  39   33379.9    299.6   0.069028111   0.01575  -0.02226  -0.12008   0.02887
  40   33751.4    296.3   0.358406607   0.08267  -0.13227  -0.08722  -0.23994
  41   34290.4    291.6   0.112392608   0.02634   0.01431  -0.00827  -0.16145
  42   34437.0    290.4   0.305328833   0.07186  -0.05298  -0.06627   0.25429
  43   34552.1    289.4   0.143645883   0.03392   0.04271  -0.04163   0.17425
  44   34685.1    288.3   0.218822315   0.05187   0.14763   0.00003   0.17343
  45   34770.1    287.6   0.050839119   0.01208   0.06290   0.05865   0.06845
  46   34900.1    286.5   0.095413880   0.02276  -0.05248  -0.05637  -0.12972
  47   35131.5    284.6   0.081313677   0.01952  -0.05849  -0.03889  -0.12079
  48   35455.0    282.0   0.028222722   0.00684   0.05906   0.03050   0.04920
  49   35685.2    280.2   0.141541580   0.03452   0.08337  -0.09509   0.13612
  50   36100.4    277.0   0.127069466   0.03135   0.02734  -0.05089   0.16738
  51   36113.8    276.9   0.022197442   0.00548   0.01149  -0.05166  -0.05175
  52   36568.9    273.5   0.042848962   0.01071   0.04488  -0.02825  -0.08886
  53   36582.1    273.4   0.012870672   0.00322   0.01192   0.05541  -0.00230
  54   36852.1    271.4   0.041709091   0.01051   0.06753  -0.02118   0.07414
  55   37123.2    269.4   0.041083661   0.01042  -0.01879  -0.05106  -0.08640
  56   37235.3    268.6   0.031282947   0.00796   0.04057  -0.03461   0.07153
  57   37377.3    267.5   0.172932586   0.04418   0.12670  -0.04965   0.16018
  58   37621.5    265.8   0.008661155   0.00223  -0.00119   0.01242   0.04551
  59   37717.4    265.1   0.013745808   0.00354  -0.02374  -0.01485  -0.05253
  60   37790.7    264.6   0.019492925   0.00503  -0.00626  -0.03059  -0.06372
  61   38028.0    263.0   0.034333802   0.00892   0.05224   0.01167  -0.07783
  62   38094.8    262.5   0.044529956   0.01159   0.02748  -0.01648   0.10280
  63   38338.9    260.8   0.009831291   0.00258  -0.02959   0.03814  -0.01568
  64   38590.9    259.1   0.374436885   0.09876   0.21072  -0.19630   0.12579
  65   38705.5    258.4   0.021520367   0.00569   0.04510  -0.02630   0.05447
  66   38758.3    258.0   0.096139754   0.02547  -0.12131   0.09933  -0.02974
  67   39160.9    255.4   0.023245726   0.00622  -0.02655  -0.05568   0.04916
  68   39317.7    254.3   0.048468745   0.01302   0.04801  -0.09850  -0.03190
  69   39459.8    253.4   0.026042100   0.00702  -0.05452  -0.02767   0.05732
  70   39632.7    252.3   0.060673274   0.01643  -0.06392   0.08940   0.06601
  71   39716.2    251.8   0.101765207   0.02762   0.12779  -0.06743   0.08214
  72   39815.1    251.2   0.004468629   0.00122  -0.02243   0.01037   0.02461
  73   40119.0    249.3   0.044110862   0.01209  -0.09441  -0.01448  -0.05452
  74   40182.7    248.9   0.035879744   0.00985   0.04078  -0.08972   0.01184

-------------------------------------------------------------------
                             CD SPECTRUM
-------------------------------------------------------------------
State   Energy Wavelength       R         MX        MY        MZ   
        (cm-1)   (nm)       (1e40*cgs)   (au)      (au)      (au)  
-------------------------------------------------------------------
   0    5623.8   1778.1    -33.97932  -0.56772   1.71138  -2.39574
   1   13440.5    744.0     19.29597  -0.30707  -0.92797  -0.58434
   2   17024.6    587.4     11.02183   0.44588  -1.46515   0.77398
   3   17247.6    579.8    -79.76626  -0.82326   0.93526   0.15462
   4   17948.4    557.2    -85.30326  -1.48091  -1.46378  -2.26492
   5   18380.1    544.1     84.77862  -0.45152  -0.85498  -0.61726
   6   19393.8    515.6    -12.45650  -0.60735  -1.02597   0.40167
   7   19788.4    505.3     24.02792   0.23708   0.03436   0.19701
   8   20090.8    497.7     -4.56894   0.44167  -0.02274  -0.07790
   9   22062.4    453.3     46.32490   0.63011   1.70281   0.74282
  10   22592.5    442.6    -11.33775   0.44478  -0.21588  -0.09926
  11   22876.9    437.1     80.99002   0.47244   2.17556   1.52256
  12   23725.7    421.5     26.37143   0.07906   0.76935  -1.29302
  13   24443.3    409.1      0.14667  -0.19607   0.22560  -0.88066
  14   24835.1    402.7    -15.13581  -0.01271   0.78825   0.14311
  15   25262.6    395.8      0.46863   0.35685   0.51177   0.43443
  16   25596.8    390.7    -47.37313   0.97691   2.52281   1.17189
  17   25964.5    385.1    -28.02024   0.64491   0.47531  -0.68418
  18   26180.1    382.0    180.23993  -0.72460  -0.45731  -1.85903
  19   26469.5    377.8    -69.26111   2.11685   3.70439   0.30202
  20   26814.6    372.9     14.15476  -0.32176   2.06420  -0.98800
  21   27147.6    368.4     99.35889   1.33909   3.29591   0.53586
  22   27847.0    359.1    -10.87696  -0.02227   1.49195  -0.19280
  23   28718.7    348.2    -113.45515   1.66060   3.65228   1.04579
  24   28880.7    346.3    -76.63606   0.59318   1.45863   0.78401
  25   29308.0    341.2      8.03863  -2.01046  -4.16823  -1.70176
  26   29471.8    339.3     25.69800  -0.10865   0.93502  -0.92297
  27   29812.6    335.4    -30.85798   0.21489   0.69349   0.59851
  28   30019.1    333.1    112.06408  -0.89613  -4.59393  -0.08106
  29   30398.2    329.0    -54.62317  -0.79443  -3.87882  -1.79092
  30   30571.6    327.1    131.13940   1.15831   2.00003  -0.43809
  31   30776.7    324.9    -13.62488  -0.73983  -1.96020  -0.11516
  32   31082.8    321.7     55.66170   0.58701   1.25007   0.88748
  33   31817.0    314.3     15.79203  -1.44194  -1.50108  -0.98986
  34   32364.1    309.0    -71.49601   0.74224   0.55612  -0.99549
  35   32483.5    307.8      8.78817   0.67927   0.96639  -0.29663
  36   32620.7    306.6    -31.45106  -1.24927  -2.78277  -0.94210
  37   32870.1    304.2     -2.65318   0.59572   2.96626   0.78811
  38   33245.0    300.8     95.83261   0.39313   1.34976   1.42390
  39   33379.9    299.6    382.08588   0.42492   2.30016   2.05156
  40   33751.4    296.3    -401.77080  -2.05556  -3.98181   1.52158
  41   34290.4    291.6    -74.09002  -1.29377  -3.53289  -0.18264
  42   34437.0    290.4    437.08017   4.35769   8.73849   2.14634
  43   34552.1    289.4    -244.84151   2.85518   5.04671   1.44236
  44   34685.1    288.3    -150.84229   0.78789   2.77342  -0.15532
  45   34770.1    287.6    215.55726  -0.46226  -0.39966  -1.23854
  46   34900.1    286.5    -113.54255  -0.95120  -2.25705   0.82219
  47   35131.5    284.6     20.56119  -0.23400  -1.63177   0.73307
  48   35455.0    282.0    269.58970  -1.45353  -0.87597  -1.26761
  49   35685.2    280.2    -90.63421   2.77304   4.77991   2.07870
  50   36100.4    277.0    -149.70534   1.51249   4.00256   1.46778
  51   36113.8    276.9    -12.01485  -0.73281  -1.11492   0.70448
  52   36568.9    273.5     -6.38951  -0.66490  -2.19244   0.30727
  53   36582.1    273.4    143.08559  -1.16456  -1.57559  -0.94507
  54   36852.1    271.4    -74.31466   0.50686   1.33133   0.46540
  55   37123.2    269.4    -49.14885  -1.14445  -1.98824   1.12010
  56   37235.3    268.6     -9.07015   0.71774   1.89580   0.62517
  57   37377.3    267.5    -98.23466   1.22228   3.78771   0.71451
  58   37621.5    265.8      8.84995   0.98673   1.94041  -0.49610
  59   37717.4    265.1    -41.12298  -0.92258  -2.02022   0.35370
  60   37790.7    264.6    -39.32036  -0.92651  -1.76149   0.52520
  61   38028.0    263.0     83.23450  -1.22027  -2.24014  -0.23555
  62   38094.8    262.5    -66.64778   0.50122   2.51873   0.75567
  63   38338.9    260.8      0.19745   0.48941  -0.00622  -1.02999
  64   38590.9    259.1     35.84142   1.14854   3.33447   3.21808
  65   38705.5    258.4      3.68152   1.49289   2.48881  -0.04864
  66   38758.3    258.0    150.23518   1.29313   0.11020  -1.39774
  67   39160.9    255.4     -3.30529  -0.00699   1.30820   1.54950
  68   39317.7    254.3    -11.93702  -1.64800  -1.53395   1.83896
  69   39459.8    253.4     14.43938   0.18965   1.62056   0.87384
  70   39632.7    252.3    -11.49473   0.96483   1.50860  -0.99987
  71   39716.2    251.8      8.77615   0.00506   1.49137   1.18613
  72   39815.1    251.2     19.50839   0.72639   1.06298  -0.35329
  73   40119.0    249.3     46.69763   0.11651  -0.82365   0.63827
  74   40182.7    248.9    101.75200   0.14119   0.95102   1.47371

sTD-DFT done

Total run time:        3.785 sec

           *** ORCA-CIS/TD-DFT FINISHED WITHOUT ERROR ***

-------------------------   --------------------
FINAL SINGLE POINT ENERGY     -5106.167186013804
-------------------------   --------------------


                            ***************************************
                            *     ORCA property calculations      *
                            ***************************************

                                    ---------------------
                                    Active property flags
                                    ---------------------
   (+) Dipole Moment


------------------------------------------------------------------------------
                       ORCA ELECTRIC PROPERTIES CALCULATION
------------------------------------------------------------------------------

Dipole Moment Calculation                       ... on
Quadrupole Moment Calculation                   ... off
Polarizability Calculation                      ... off
GBWName                                         ... xtbopt.gbw
Electron density file                           ... xtbopt.scfp
The origin for moment calculation is the CENTER OF MASS  = (23.084376, -6.271355 -1.122999)

-------------
DIPOLE MOMENT
-------------
                                X             Y             Z
Electronic contribution:    -18.11949      13.44222     -30.64853
Nuclear contribution   :     16.53446     -11.47492      30.84498
                        -----------------------------------------
Total Dipole Moment    :     -1.58503       1.96729       0.19646
                        -----------------------------------------
Magnitude (a.u.)       :      2.53400
Magnitude (Debye)      :      6.44091



--------------------
Rotational spectrum 
--------------------
 
Rotational constants in cm-1:     0.001016     0.000468     0.000334 
Rotational constants in MHz :    30.466072    14.029183    10.027205 

 Dipole components along the rotational axes: 
x,y,z [a.u.] :     2.186367    -1.202569    -0.441334 
x,y,z [Debye]:     5.557303    -3.056687    -1.121781 

 

Timings for individual modules:

Sum of individual times         ...      731.055 sec (=  12.184 min)
GTO integral calculation        ...        3.130 sec (=   0.052 min)   0.4 %
SCF iterations                  ...      723.207 sec (=  12.053 min)  98.9 %
CIS module                      ...        4.718 sec (=   0.079 min)   0.6 %
                             ****ORCA TERMINATED NORMALLY****
TOTAL RUN TIME: 0 days 0 hours 12 minutes 12 seconds 185 msec
