
                                 *****************
                                 * O   R   C   A *
                                 *****************

           --- An Ab Initio, DFT and Semiempirical electronic structure package ---

                  #######################################################
                  #                        -***-                        #
                  #          Department of theory and spectroscopy      #
                  #               Directorship: Frank Neese             #
                  #        Max Planck Institute fuer Kohlenforschung    #
                  #                Kaiser Wilhelm Platz 1               #
                  #                 D-45470 Muelheim/Ruhr               #
                  #                      Germany                        #
                  #                                                     #
                  #                  All rights reserved                #
                  #                        -***-                        #
                  #######################################################


                         Program Version 4.2.0 -  RELEASE  -


 With contributions from (in alphabetic order):
   Daniel Aravena         : Magnetic Suceptibility
   Michael Atanasov       : Ab Initio Ligand Field Theory (pilot matlab implementation)
   Alexander A. Auer      : GIAO ZORA, VPT2
   Ute Becker             : Parallelization
   Giovanni Bistoni       : ED, misc. LED, open-shell LED, HFLED
   Martin Brehm           : Molecular dynamics
   Dmytro Bykov           : SCF Hessian
   Vijay G. Chilkuri      : MRCI spin determinant printing, contributions to CSF-ICE
   Dipayan Datta          : RHF DLPNO-CCSD density
   Achintya Kumar Dutta   : EOM-CC, STEOM-CC
   Dmitry Ganyushin       : Spin-Orbit,Spin-Spin,Magnetic field MRCI
   Miquel Garcia          : C-PCM Hessian, Gaussian charge scheme
   Yang Guo               : DLPNO-NEVPT2, CIM, IAO-localization
   Andreas Hansen         : Spin unrestricted coupled pair/coupled cluster methods
   Benjamin Helmich-Paris : CASSCF linear response (MC-RPA)
   Lee Huntington         : MR-EOM, pCC
   Robert Izsak           : Overlap fitted RIJCOSX, COSX-SCS-MP3, EOM
   Christian Kollmar      : KDIIS, OOCD, Brueckner-CCSD(T), CCSD density
   Simone Kossmann        : Meta GGA functionals, TD-DFT gradient, OOMP2, MP2 Hessian
   Martin Krupicka        : AUTO-CI
   Lucas Lang             : DCDCAS
   Dagmar Lenk            : GEPOL surface, SMD
   Dimitrios Liakos       : Extrapolation schemes; Compound Job, initial MDCI parallelization
   Dimitrios Manganas     : Further ROCIS development; embedding schemes
   Dimitrios Pantazis     : SARC Basis sets
   Taras Petrenko         : DFT Hessian,TD-DFT gradient, ASA, ECA, R-Raman, ABS, FL, XAS/XES, NRVS
   Peter Pinski           : DLPNO-MP2, DLPNO-MP2 Gradient
   Christoph Reimann      : Effective Core Potentials
   Marius Retegan         : Local ZFS, SOC
   Christoph Riplinger    : Optimizer, TS searches, QM/MM, DLPNO-CCSD(T), (RO)-DLPNO pert. Triples
   Tobias Risthaus        : Range-separated hybrids, TD-DFT gradient, RPA, STAB
   Michael Roemelt        : Original ROCIS implementation
   Masaaki Saitow         : Open-shell DLPNO-CCSD energy and density
   Barbara Sandhoefer     : DKH picture change effects
   Avijit Sen             : IP-ROCIS
   Kantharuban Sivalingam : CASSCF convergence, NEVPT2, FIC-MRCI
   Bernardo de Souza      : ESD, SOC TD-DFT
   Georgi Stoychev        : AutoAux, RI-MP2 NMR
   Willem Van den Heuvel  : Paramagnetic NMR
   Boris Wezisla          : Elementary symmetry handling
   Frank Wennmohs         : Technical directorship


 We gratefully acknowledge several colleagues who have allowed us to
 interface, adapt or use parts of their codes:
   Stefan Grimme, W. Hujo, H. Kruse,             : VdW corrections, initial TS optimization,
                  C. Bannwarth                     DFT functionals, gCP, sTDA/sTD-DF
   Ed Valeev, F. Pavosevic, A. Kumar             : LibInt (2-el integral package), F12 methods
   Garnet Chan, S. Sharma, J. Yang, R. Olivares  : DMRG
   Ulf Ekstrom                                   : XCFun DFT Library
   Mihaly Kallay                                 : mrcc  (arbitrary order and MRCC methods)
   Andreas Klamt, Michael Diedenhofen            : otool_cosmo (COSMO solvation model)
   Jiri Pittner, Ondrej Demel                    : Mk-CCSD
   Frank Weinhold                                : gennbo (NPA and NBO analysis)
   Christopher J. Cramer and Donald G. Truhlar   : smd solvation model
   Lars Goerigk                                  : TD-DFT with DH, B97 family of functionals
   V. Asgeirsson, H. Jonsson                     : NEB implementation
   FAccTs GmbH                                   : IRC, NEB, NEB-TS, Multilevel, MM, QM/MM, CI optimization
   S Lehtola, MJT Oliveira, MAL Marques          : LibXC Library


 Your calculation uses the libint2 library for the computation of 2-el integrals
 For citations please refer to: http://libint.valeyev.net

 Your ORCA version has been built with support for libXC version: 4.2.3
 For citations please refer to: https://tddft.org/programs/libxc/

 This ORCA versions uses:
   CBLAS   interface :  Fast vector & matrix operations
   LAPACKE interface :  Fast linear algebra routines
   SCALAPACK package :  Parallel linear algebra routines


XCFun DFT library Copyright 2009-2010 Ulf Ekstrom and contributors.
See http://admol.org/xcfun for more information. This is free soft-
ware; see the source code for copying conditions. There is ABSOLUTELY
NO WARRANTY; not even for MERCHANTABILITY or FITNESS FOR A PARTICULAR
PURPOSE. For details see the documentation. Scientific users of this 
library should cite U. Ekstrom, L. Visscher, R. Bast, A. J. Thorvald-
sen and K. Ruud; J.Chem.Theor.Comp. 2010, DOI: 10.1021/ct100117s
XCFun Version 0.99 
----- Orbital basis set information -----
Your calculation utilizes the basis: def2-SVP
   F. Weigend and R. Ahlrichs, Phys. Chem. Chem. Phys. 7, 3297 (2005).

----- AuxJ basis set information -----
Your calculation utilizes the auxiliary basis: def2/J
   F. Weigend, Phys. Chem. Chem. Phys. 8, 1057 (2006).

================================================================================
                                        WARNINGS
                       Please study these warnings very carefully!
================================================================================

INFO   : Checking CIS options ...

WARNING: CIS/ROCIS methods need fully converged wavefunctions
  ===> : Setting SCFConvForced true
         You can overwrite this default with %scf ConvForced false 


INFO   : the flag for use of LIBINT has been found!

================================================================================
                                       INPUT FILE
================================================================================
NAME = xtbopt.inp
|  1> # ORCA input file
|  2> # SCF done       -210.522514703413          0.000787256650
|  3> ! CAM-B3LYP def2-SVP def2/J RIJCOSX Grid4 TightSCF
|  4> %maxcore 5000
|  5> %tddft
|  6>     Mode sTDDFT
|  7>     Ethresh 5.0
|  8>     maxcore 5000
|  9> end
| 10> 
| 11> %pal
| 12>   nprocs 6
| 13>   end
| 14> * xyz 0 1
| 15>    C       -5.15262         4.00085        -9.60637
| 16>    C       -5.53835         4.85754       -10.60929
| 17>    C       -5.29828         4.63167       -11.97958
| 18>    N       -5.13918         4.50766       -13.11045
| 19>    C       -6.20854         6.08469       -10.43302
| 20>    N       -6.75334         7.09542       -10.38592
| 21>    C       -4.43569         2.74416        -9.80921
| 22>    C       -4.15845         2.17046        -8.54533
| 23>    C       -3.49372         0.97786        -8.40145
| 24>    C       -3.08330         0.31470        -9.56299
| 25>    C       -3.36681         0.89348       -10.82176
| 26>    C       -4.03792         2.10167       -10.96679
| 27>    S       -2.77694        -0.09316       -12.12619
| 28>    C       -2.16640        -1.25299       -10.97645
| 29>    C       -2.39068        -0.92162        -9.68322
| 30>   Br       -1.29244        -2.79478       -11.59235
| 31>    C       -4.70114         3.04320        -7.48115
| 32>    O       -4.62508         2.84158        -6.28674
| 33>    C       -5.34788         4.17254        -8.18417
| 34>    C       -6.04697         5.18293        -7.57010
| 35>    C       -6.21609         5.33065        -6.18393
| 36>    C       -6.98322         6.34181        -5.67529
| 37>    C       -7.20953         6.56364        -4.30740
| 38>    O       -8.03827         7.57385        -3.92296
| 39>    C       -8.10290         7.59277        -2.56978
| 40>    C       -7.29378         6.57450        -2.06333
| 41>    C       -6.72494         5.91373        -3.16396
| 42>    O       -5.88186         4.87177        -3.13701
| 43>    O       -7.05503         6.22189        -0.77078
| 44>    C       -8.91427         8.53257        -1.89166
| 45>    C       -9.70725         9.42940        -2.54226
| 46>    C      -10.56421        10.38954        -1.95650
| 47>    C      -10.69104        10.67415        -0.62980
| 48>    C      -11.58957        11.63208        -0.11451
| 49>    S      -12.69087        12.49799        -1.14673
| 50>    C      -13.36554        13.37538         0.20608
| 51>    C      -12.75964        12.97558         1.40224
| 52>    C      -11.76276        12.01556         1.21633
| 53>    C      -10.96374        11.44448         2.34781
| 54>    C      -11.12967        12.27956         3.61411
| 55>    C      -12.61923        12.55612         3.86685
| 56>    N      -12.92212        13.16667         5.14627
| 57>    C      -13.15008        13.46831         2.75724
| 58>    C      -14.37650        14.30891        -0.08239
| 59>    C      -14.90838        15.26202         0.74680
| 60>    C      -15.92857        16.12652         0.34163
| 61>    C      -16.44812        17.13333         1.12593
| 62>    C      -17.48505        18.02911         0.78524
| 63>    C      -17.78236        18.93748         1.75942
| 64>    C      -16.98976        18.80934         2.91890
| 65>    S      -15.86239        17.48982         2.74287
| 66>    C      -17.03027        19.58829         4.06577
| 67>    C      -17.87813        20.68172         4.33487
| 68>    C      -17.66170        21.25546         5.55436
| 69>    C      -16.62904        20.64897         6.30381
| 70>    S      -15.95476        19.30475         5.41481
| 71>    C      -16.19643        21.01641         7.56183
| 72>    C      -15.13974        20.39818         8.22488
| 73>    C      -14.69373        20.65724         9.49996
| 74>    C      -13.33048        20.23416         9.89087
| 75>    O      -12.60228        19.46362         9.30161
| 76>    C      -13.03080        21.00551        11.11385
| 77>    C      -14.15283        21.78094        11.46913
| 78>    C      -15.25581        21.46362        10.54936
| 79>    C      -16.60622        21.67655        10.75264
| 80>    C      -17.24237        22.68276        11.61588
| 81>    O      -16.74422        23.66331        12.13551
| 82>    C      -18.69094        22.35759        11.64108
| 83>    C      -18.93489        21.25576        10.81984
| 84>    C      -17.66188        20.79676        10.21015
| 85>    O      -17.54801        19.83588         9.47408
| 86>    C      -20.21141        20.74902        10.66965
| 87>    C      -21.24560        21.37272        11.35681
| 88>    C      -21.00318        22.46909        12.17234
| 89>    C      -19.71931        22.97906        12.32249
| 90>    C      -14.07268        22.60702        12.57834
| 91>    C      -12.88985        22.63947        13.30781
| 92>    C      -11.79599        21.86555        12.95441
| 93>    C      -11.85969        21.03584        11.84290
| 94>    H       -3.29805         0.56783        -7.42301
| 95>    H       -4.23042         2.49827       -11.94942
| 96>    H       -2.08249        -1.52249        -8.84710
| 97>    H       -6.52120         5.92965        -8.19462
| 98>    H       -5.73814         4.62878        -5.51839
| 99>    H       -7.47478         7.03578        -6.34565
|100>    H       -5.71584         4.62506        -2.21697
|101>    H       -7.55630         6.79213        -0.17884
|102>    H       -8.89088         8.49534        -0.81139
|103>    H       -9.69484         9.39246        -3.62265
|104>    H      -11.17862        10.95726        -2.64404
|105>    H      -10.08131        10.15670         0.09707
|106>    H       -9.90791        11.39512         2.07014
|107>    H      -11.30301        10.42058         2.53936
|108>    H      -10.60167        13.23036         3.50450
|109>    H      -10.69556        11.74752         4.46417
|110>    H      -13.16160        11.60270         3.83411
|111>    H      -12.43178        14.04910         5.24884
|112>    H      -12.64196        12.56400         5.91138
|113>    H      -12.74808        14.47510         2.91386
|114>    H      -14.23626        13.52982         2.84013
|115>    H      -14.74570        14.27818        -1.10110
|116>    H      -14.53048        15.39276         1.74846
|117>    H      -16.34543        16.00826        -0.65030
|118>    H      -17.98151        17.97607        -0.16767
|119>    H      -18.54334        19.69146         1.67015
|120>    H      -18.61785        21.01915         3.63124
|121>    H      -18.21026        22.09800         5.93680
|122>    H      -16.69982        21.85082         8.03066
|123>    H      -14.54888        19.67978         7.66436
|124>    H      -20.38939        19.89617        10.03248
|125>    H      -22.25428        20.99970        11.25499
|126>    H      -21.82553        22.93206        12.69793
|127>    H      -19.52054        23.83026        12.95567
|128>    H      -14.89811        23.23727        12.86392
|129>    H      -12.82527        23.28790        14.16935
|130>    H      -10.89150        21.91052        13.54293
|131>    H      -11.02338        20.42132        11.54577
|132> *
|133> 
|134>                          ****END OF INPUT****
================================================================================

                       ****************************
                       * Single Point Calculation *
                       ****************************

---------------------------------
CARTESIAN COORDINATES (ANGSTROEM)
---------------------------------
  C     -5.152620    4.000850   -9.606370
  C     -5.538350    4.857540  -10.609290
  C     -5.298280    4.631670  -11.979580
  N     -5.139180    4.507660  -13.110450
  C     -6.208540    6.084690  -10.433020
  N     -6.753340    7.095420  -10.385920
  C     -4.435690    2.744160   -9.809210
  C     -4.158450    2.170460   -8.545330
  C     -3.493720    0.977860   -8.401450
  C     -3.083300    0.314700   -9.562990
  C     -3.366810    0.893480  -10.821760
  C     -4.037920    2.101670  -10.966790
  S     -2.776940   -0.093160  -12.126190
  C     -2.166400   -1.252990  -10.976450
  C     -2.390680   -0.921620   -9.683220
  Br    -1.292440   -2.794780  -11.592350
  C     -4.701140    3.043200   -7.481150
  O     -4.625080    2.841580   -6.286740
  C     -5.347880    4.172540   -8.184170
  C     -6.046970    5.182930   -7.570100
  C     -6.216090    5.330650   -6.183930
  C     -6.983220    6.341810   -5.675290
  C     -7.209530    6.563640   -4.307400
  O     -8.038270    7.573850   -3.922960
  C     -8.102900    7.592770   -2.569780
  C     -7.293780    6.574500   -2.063330
  C     -6.724940    5.913730   -3.163960
  O     -5.881860    4.871770   -3.137010
  O     -7.055030    6.221890   -0.770780
  C     -8.914270    8.532570   -1.891660
  C     -9.707250    9.429400   -2.542260
  C    -10.564210   10.389540   -1.956500
  C    -10.691040   10.674150   -0.629800
  C    -11.589570   11.632080   -0.114510
  S    -12.690870   12.497990   -1.146730
  C    -13.365540   13.375380    0.206080
  C    -12.759640   12.975580    1.402240
  C    -11.762760   12.015560    1.216330
  C    -10.963740   11.444480    2.347810
  C    -11.129670   12.279560    3.614110
  C    -12.619230   12.556120    3.866850
  N    -12.922120   13.166670    5.146270
  C    -13.150080   13.468310    2.757240
  C    -14.376500   14.308910   -0.082390
  C    -14.908380   15.262020    0.746800
  C    -15.928570   16.126520    0.341630
  C    -16.448120   17.133330    1.125930
  C    -17.485050   18.029110    0.785240
  C    -17.782360   18.937480    1.759420
  C    -16.989760   18.809340    2.918900
  S    -15.862390   17.489820    2.742870
  C    -17.030270   19.588290    4.065770
  C    -17.878130   20.681720    4.334870
  C    -17.661700   21.255460    5.554360
  C    -16.629040   20.648970    6.303810
  S    -15.954760   19.304750    5.414810
  C    -16.196430   21.016410    7.561830
  C    -15.139740   20.398180    8.224880
  C    -14.693730   20.657240    9.499960
  C    -13.330480   20.234160    9.890870
  O    -12.602280   19.463620    9.301610
  C    -13.030800   21.005510   11.113850
  C    -14.152830   21.780940   11.469130
  C    -15.255810   21.463620   10.549360
  C    -16.606220   21.676550   10.752640
  C    -17.242370   22.682760   11.615880
  O    -16.744220   23.663310   12.135510
  C    -18.690940   22.357590   11.641080
  C    -18.934890   21.255760   10.819840
  C    -17.661880   20.796760   10.210150
  O    -17.548010   19.835880    9.474080
  C    -20.211410   20.749020   10.669650
  C    -21.245600   21.372720   11.356810
  C    -21.003180   22.469090   12.172340
  C    -19.719310   22.979060   12.322490
  C    -14.072680   22.607020   12.578340
  C    -12.889850   22.639470   13.307810
  C    -11.795990   21.865550   12.954410
  C    -11.859690   21.035840   11.842900
  H     -3.298050    0.567830   -7.423010
  H     -4.230420    2.498270  -11.949420
  H     -2.082490   -1.522490   -8.847100
  H     -6.521200    5.929650   -8.194620
  H     -5.738140    4.628780   -5.518390
  H     -7.474780    7.035780   -6.345650
  H     -5.715840    4.625060   -2.216970
  H     -7.556300    6.792130   -0.178840
  H     -8.890880    8.495340   -0.811390
  H     -9.694840    9.392460   -3.622650
  H    -11.178620   10.957260   -2.644040
  H    -10.081310   10.156700    0.097070
  H     -9.907910   11.395120    2.070140
  H    -11.303010   10.420580    2.539360
  H    -10.601670   13.230360    3.504500
  H    -10.695560   11.747520    4.464170
  H    -13.161600   11.602700    3.834110
  H    -12.431780   14.049100    5.248840
  H    -12.641960   12.564000    5.911380
  H    -12.748080   14.475100    2.913860
  H    -14.236260   13.529820    2.840130
  H    -14.745700   14.278180   -1.101100
  H    -14.530480   15.392760    1.748460
  H    -16.345430   16.008260   -0.650300
  H    -17.981510   17.976070   -0.167670
  H    -18.543340   19.691460    1.670150
  H    -18.617850   21.019150    3.631240
  H    -18.210260   22.098000    5.936800
  H    -16.699820   21.850820    8.030660
  H    -14.548880   19.679780    7.664360
  H    -20.389390   19.896170   10.032480
  H    -22.254280   20.999700   11.254990
  H    -21.825530   22.932060   12.697930
  H    -19.520540   23.830260   12.955670
  H    -14.898110   23.237270   12.863920
  H    -12.825270   23.287900   14.169350
  H    -10.891500   21.910520   13.542930
  H    -11.023380   20.421320   11.545770

----------------------------
CARTESIAN COORDINATES (A.U.)
----------------------------
  NO LB      ZA    FRAG     MASS         X           Y           Z
   0 C     6.0000    0    12.011   -9.737041    7.560511  -18.153408
   1 C     6.0000    0    12.011  -10.465965    9.179420  -20.048653
   2 C     6.0000    0    12.011  -10.012298    8.752588  -22.638125
   3 N     7.0000    0    14.007   -9.711643    8.518243  -24.775160
   4 C     6.0000    0    12.011  -11.732440   11.498398  -19.715551
   5 N     7.0000    0    14.007  -12.761963   13.408401  -19.626544
   6 C     6.0000    0    12.011   -8.382239    5.185711  -18.536720
   7 C     6.0000    0    12.011   -7.858332    4.101575  -16.148333
   8 C     6.0000    0    12.011   -6.602174    1.847888  -15.876440
   9 C     6.0000    0    12.011   -5.826593    0.594697  -18.071432
  10 C     6.0000    0    12.011   -6.362349    1.688433  -20.450163
  11 C     6.0000    0    12.011   -7.630563    3.971581  -20.724230
  12 S    16.0000    0    32.060   -5.247656   -0.176047  -22.915178
  13 C     6.0000    0    12.011   -4.093903   -2.367808  -20.742484
  14 C     6.0000    0    12.011   -4.517730   -1.741609  -18.298634
  15 Br   35.0000    0    79.900   -2.442358   -5.281369  -21.906367
  16 C     6.0000    0    12.011   -8.883867    5.750815  -14.137325
  17 O     8.0000    0    15.999   -8.740135    5.369808  -11.880217
  18 C     6.0000    0    12.011  -10.106029    7.884958  -15.465840
  19 C     6.0000    0    12.011  -11.427117    9.794318  -14.305416
  20 C     6.0000    0    12.011  -11.746708   10.073469  -11.685934
  21 C     6.0000    0    12.011  -13.196373   11.984284  -10.724744
  22 C     6.0000    0    12.011  -13.624037   12.403482   -8.139806
  23 O     8.0000    0    15.999  -15.190129   14.312502   -7.413320
  24 C     6.0000    0    12.011  -15.312262   14.348256   -4.856180
  25 C     6.0000    0    12.011  -13.783247   12.424004   -3.899129
  26 C     6.0000    0    12.011  -12.708295   11.175330   -5.979018
  27 O     8.0000    0    15.999  -11.115105    9.206311   -5.928090
  28 O     8.0000    0    15.999  -13.332075   11.757668   -1.456563
  29 C     6.0000    0    12.011  -16.845529   16.124221   -3.574719
  30 C     6.0000    0    12.011  -18.344044   17.818984   -4.804175
  31 C     6.0000    0    12.011  -19.963464   19.633385   -3.697249
  32 C     6.0000    0    12.011  -20.203138   20.171220   -1.190150
  33 C     6.0000    0    12.011  -21.901113   21.981446   -0.216393
  34 S    16.0000    0    32.060  -23.982269   23.617778   -2.167006
  35 C     6.0000    0    12.011  -25.257210   25.275805    0.389435
  36 C     6.0000    0    12.011  -24.112225   24.520293    2.649850
  37 C     6.0000    0    12.011  -22.228395   22.706118    2.298531
  38 C     6.0000    0    12.011  -20.718466   21.626933    4.436718
  39 C     6.0000    0    12.011  -21.032028   23.205005    6.829678
  40 C     6.0000    0    12.011  -23.846889   23.727628    7.307288
  41 N     7.0000    0    14.007  -24.419268   24.881400    9.725041
  42 C     6.0000    0    12.011  -24.850050   25.451417    5.210428
  43 C     6.0000    0    12.011  -27.167648   27.039921   -0.155695
  44 C     6.0000    0    12.011  -28.172755   28.841038    1.411247
  45 C     6.0000    0    12.011  -30.100635   30.474706    0.645587
  46 C     6.0000    0    12.011  -31.082442   32.377301    2.127699
  47 C     6.0000    0    12.011  -33.041956   34.070080    1.483889
  48 C     6.0000    0    12.011  -33.603790   35.786651    3.324822
  49 C     6.0000    0    12.011  -32.105993   35.544501    5.515922
  50 S    16.0000    0    32.060  -29.975573   33.050970    5.183273
  51 C     6.0000    0    12.011  -32.182546   37.016504    7.683192
  52 C     6.0000    0    12.011  -33.784769   39.082787    8.191717
  53 C     6.0000    0    12.011  -33.375776   40.166998   10.496219
  54 C     6.0000    0    12.011  -31.424331   39.020898   11.912475
  55 S    16.0000    0    32.060  -30.150127   36.480691   10.232508
  56 C     6.0000    0    12.011  -30.606817   39.715259   14.289788
  57 C     6.0000    0    12.011  -28.609962   38.546974   15.542771
  58 C     6.0000    0    12.011  -27.767126   39.036526   17.952323
  59 C     6.0000    0    12.011  -25.190956   38.237021   18.691036
  60 O     8.0000    0    15.999  -23.814858   36.780911   17.577496
  61 C     6.0000    0    12.011  -24.624643   39.694661   21.002133
  62 C     6.0000    0    12.011  -26.744973   41.160012   21.673515
  63 C     6.0000    0    12.011  -28.829303   40.560364   19.935401
  64 C     6.0000    0    12.011  -31.381208   40.962743   20.319545
  65 C     6.0000    0    12.011  -32.583357   42.864204   21.950832
  66 O     8.0000    0    15.999  -31.641990   44.717175   22.932790
  67 C     6.0000    0    12.011  -35.320758   42.249722   21.998453
  68 C     6.0000    0    12.011  -35.781756   40.167565   20.446534
  69 C     6.0000    0    12.011  -33.376116   39.300181   19.294387
  70 O     8.0000    0    15.999  -33.160933   37.484381   17.903417
  71 C     6.0000    0    12.011  -38.194030   39.209965   20.162716
  72 C     6.0000    0    12.011  -40.148366   40.388588   21.461261
  73 C     6.0000    0    12.011  -39.690258   42.460427   23.002389
  74 C     6.0000    0    12.011  -37.264095   43.424130   23.286131
  75 C     6.0000    0    12.011  -26.593511   42.721077   23.769618
  76 C     6.0000    0    12.011  -24.358286   42.782398   25.148116
  77 C     6.0000    0    12.011  -22.291191   41.319901   24.480287
  78 C     6.0000    0    12.011  -22.411566   39.751977   22.379838
  79 H     1.0000    0     1.008   -6.232411    1.073043  -14.027456
  80 H     1.0000    0     1.008   -7.994335    4.721046  -22.581131
  81 H     1.0000    0     1.008   -3.935336   -2.877089  -16.718596
  82 H     1.0000    0     1.008  -12.323282   11.205415  -15.485588
  83 H     1.0000    0     1.008  -10.843513    8.747127  -10.428246
  84 H     1.0000    0     1.008  -14.125287   13.295697  -11.991541
  85 H     1.0000    0     1.008  -10.801372    8.740097   -4.189466
  86 H     1.0000    0     1.008  -14.279338   12.835266   -0.337959
  87 H     1.0000    0     1.008  -16.801328   16.053866   -1.533305
  88 H     1.0000    0     1.008  -18.320593   17.749177   -6.845816
  89 H     1.0000    0     1.008  -21.124530   20.706221   -4.996511
  90 H     1.0000    0     1.008  -19.050915   19.193381    0.183436
  91 H     1.0000    0     1.008  -18.723236   21.533656    3.911998
  92 H     1.0000    0     1.008  -21.359593   19.692042    4.798695
  93 H     1.0000    0     1.008  -20.034253   25.001757    6.622545
  94 H     1.0000    0     1.008  -20.211679   22.199596    8.436059
  95 H     1.0000    0     1.008  -24.871819   21.925925    7.245418
  96 H     1.0000    0     1.008  -23.492660   26.548951    9.918870
  97 H     1.0000    0     1.008  -23.889842   23.742519   11.170889
  98 H     1.0000    0     1.008  -24.090380   27.353975    5.506397
  99 H     1.0000    0     1.008  -26.902633   25.567654    5.367068
 100 H     1.0000    0     1.008  -27.865335   26.981850   -2.080777
 101 H     1.0000    0     1.008  -27.458628   29.088101    3.304111
 102 H     1.0000    0     1.008  -30.888386   30.251227   -1.228889
 103 H     1.0000    0     1.008  -33.980129   33.969849   -0.316850
 104 H     1.0000    0     1.008  -35.041834   37.211467    3.156126
 105 H     1.0000    0     1.008  -35.182638   39.720437    6.862049
 106 H     1.0000    0     1.008  -34.412404   41.759168   11.218926
 107 H     1.0000    0     1.008  -31.558086   41.292066   15.175748
 108 H     1.0000    0     1.008  -27.493399   37.189395   14.483541
 109 H     1.0000    0     1.008  -38.530363   37.598312   18.958640
 110 H     1.0000    0     1.008  -42.054495   39.683682   21.268849
 111 H     1.0000    0     1.008  -41.244274   43.335313   23.995610
 112 H     1.0000    0     1.008  -36.888475   45.032665   24.482668
 113 H     1.0000    0     1.008  -28.153348   43.912076   24.309286
 114 H     1.0000    0     1.008  -24.236248   44.007753   26.776191
 115 H     1.0000    0     1.008  -20.581952   41.404882   25.592429
 116 H     1.0000    0     1.008  -20.831169   38.590702   21.818343

--------------------------------
INTERNAL COORDINATES (ANGSTROEM)
--------------------------------
 C      0   0   0     0.000000000000     0.00000000     0.00000000
 C      1   0   0     1.374246671962     0.00000000     0.00000000
 C      2   1   0     1.409377715838   124.18308552     0.00000000
 N      3   2   1     1.148720264904   176.42209037   176.68158385
 C      2   1   3     1.409298716206   125.80412928   180.82659398
 N      5   2   1     1.149173869743   175.15363473   179.97905752
 C      1   2   3     1.460959426747   124.93462703     0.39297973
 C      7   1   2     1.415410315774   108.71104230   177.30348495
 C      8   7   1     1.372902832432   122.71840303   179.86072766
 C      9   8   7     1.399071454072   117.82530488   359.86245322
 C     10   9   8     1.414166228348   119.09024678     0.00000000
 C      7   1   2     1.382391344519   131.09024525   356.93732787
 S     11  10   9     1.738661189364   111.56409903   180.21070614
 C     13  11  10     1.743521375866    90.08918450     0.00000000
 C     14  13  11     1.353717632374   114.14940378     0.00000000
 Br    14  13  11     1.876234339228   119.55704902   179.88120680
 C      8   7   1     1.479414281430   109.35102017     0.38342410
 O     17   8   7     1.213693122704   125.93800789   180.45537558
 C      1   2   3     1.445772030335   127.29795541   179.15347532
 C     19   1   2     1.373570800905   126.57424703     5.19735868
 C     20  19   1     1.404240022824   125.44955552   180.34750439
 C     21  20  19     1.367350588584   120.83472927   182.97001539
 C     22  21  20     1.404118163510   124.72563873   179.86491648
 O     23  22  21     1.362030963415   119.35491340   182.64473050
 C     24  23  22     1.354854647444   108.74087060   179.90895162
 C     25  24  23     1.395722239487   108.93942309     0.21559585
 C     23  22  21     1.401665263107   131.73981244     2.62178689
 O     27  23  22     1.340593462053   126.45579969     0.14858660
 O     26  25  24     1.360889737304   129.44760629   180.03262688
 C     25  24  23     1.414705641220   121.02281843   181.05540171
 C     30  25  24     1.362498326348   122.83165951     2.51298104
 C     31  30  25     1.413988698258   127.00402015   178.98796768
 C     32  31  30     1.362799174860   126.97745585     5.29401690
 C     33  32  31     1.410854290811   123.82282914   181.26281697
 S     34  33  32     1.740155150123   121.61915478     3.00078125
 C     35  34  33     1.747880921888    92.00391225   179.51212852
 C     36  35  34     1.399197482702   110.55344072   358.95571859
 C     34  33  32     1.395774620811   127.86535811   181.91199868
 C     38  34  33     1.498269774507   123.30972086     0.78459754
 C     39  38  34     1.525911878616   111.10751072   166.26333888
 C     40  39  38     1.535953103060   109.91039016    48.23978561
 N     41  40  39     1.449630708491   115.06816808   171.07570713
 C     37  36  35     1.493737341871   124.61409828   183.54908013
 C     36  35  34     1.405963485799   116.87517745   179.22871304
 C     44  36  35     1.370719177148   128.06713354   191.44600048
 C     45  44  36     1.397251092324   122.55543116   180.75796360
 C     46  45  44     1.377942331377   124.21638489   182.91702650
 C     47  46  45     1.411989840403   127.09217820   180.76159161
 C     48  47  46     1.364754910378   114.20541261   180.74216560
 C     49  48  47     1.410329213340   113.82506964     0.28287635
 S     50  49  48     1.744443380623   110.42392423   359.49102158
 C     50  49  48     1.386980518789   127.76082714   178.80599936
 C     52  50  49     1.409563958996   127.66809246     0.32596931
 C     53  52  50     1.364981828670   113.65602782   180.77880566
 C     54  53  52     1.412760453226   114.16695342     0.33305967
 S     55  54  53     1.746969354854   110.02901550   359.15230975
 C     55  54  53     1.380136908462   126.75361023   180.04055022
 C     57  55  54     1.392277770957   123.62655789   182.18214519
 C     58  57  55     1.375451202370   127.15358774   183.61147353
 C     59  58  57     1.479951984694   119.32174925   199.24288800
 O     60  59  58     1.212944549104   127.32253303   345.82684904
 C     60  59  58     1.476641122717   104.85507474   163.11774471
 C     62  60  59     1.409420761944   109.54838830     2.76917360
 C     59  58  57     1.437853605483   130.95357481     9.31365506
 C     64  59  58     1.382124853767   125.14790254    31.09649081
 C     65  64  59     1.470485866712   127.91160618   193.38407223
 O     66  65  64     1.216407440745   128.69707502    14.07636550
 C     66  65  64     1.484831846978   106.38908504   188.50471587
 C     68  66  65     1.395699139858   109.47628272   358.30729789
 C     65  64  59     1.477411208770   123.53115738    19.96404385
 O     70  65  64     1.215753180625   128.75866787   355.64182605
 C     69  68  66     1.381609848727   120.99779850   179.95506319
 C     72  69  68     1.389510529539   117.98757923     0.24530404
 C     73  72  69     1.387762160530   121.01192813   359.81834448
 C     68  66  65     1.381336094475   129.50451348   178.65888203
 C     63  62  60     1.385344366214   118.93660147   181.39301949
 C     76  63  62     1.390059816087   118.90282352   359.72606862
 C     77  76  63     1.385775388005   121.65527569   359.82831550
 C     62  60  59     1.379830585072   128.41324875   183.69123697
 H      9   8   7     1.078775316458   120.86688087   179.98932866
 H     12   7   1     1.076990959526   122.78090784     0.15061176
 H     15  14  13     1.074766247795   123.97519745   179.95960624
 H     20  19   1     1.082825046672   118.18543227     1.00967890
 H     21  20  19     1.078888868698   119.15338623     2.46918622
 H     22  21  20     1.082870317305   119.88842544     0.46176138
 H     28  27  23     0.966903338550   108.99138999   180.00636804
 H     29  26  25     0.962724381170   109.82603300     0.76950313
 H     30  25  24     1.081164389859   116.33742869   181.41253226
 H     31  30  25     1.081092560237   116.61691162     0.19155373
 H     32  31  30     1.082828194175   115.90382069   185.02539768
 H     33  32  31     1.080678107625   120.15111372     1.45012622
 H     39  38  34     1.092846753850   109.91151191    44.38177777
 H     39  38  34     1.095521220881   108.85228776   286.83802235
 H     40  39  38     1.093077761232   109.89456032   288.07816289
 H     40  39  38     1.092758004912   109.62749008   169.48168065
 H     41  40  39     1.097381802701   108.53995600    51.51304276
 H     42  41  40     1.014710118901   110.76385066    58.25502160
 H     42  41  40     1.013456494676   110.98276310   298.43114754
 H     43  37  36     1.095335532383   109.69265814   282.89229767
 H     43  37  36     1.091073427685   110.34814051    41.29194511
 H     44  36  35     1.083984795558   114.76535389     9.22039486
 H     45  44  36     1.078528679823   120.67351883     2.37297300
 H     46  45  44     1.082442983302   118.64082458     2.87490557
 H     48  47  46     1.075789589697   121.42268622     0.81496344
 H     49  48  47     1.074963038295   124.17941823   180.04594848
 H     53  52  50     1.075239443194   122.16207747     0.59371427
 H     54  53  52     1.075663552790   124.47270738   180.11340541
 H     57  55  54     1.081407929091   117.04502661     0.38624792
 H     58  57  55     1.086000354512   117.44315610     8.28130296
 H     72  69  68     1.079358889249   120.41962420   180.02932550
 H     73  72  69     1.080253014437   119.56179161   179.78307945
 H     74  73  72     1.080206272663   119.44247384   180.24158866
 H     75  68  66     1.079336771031   120.47051309   359.58092030
 H     76  63  62     1.077082022782   121.12297529   178.10224216
 H     77  76  63     1.080223686511   118.90920964   179.64620096
 H     78  77  76     1.080037152787   119.92288658   180.17509651
 H     79  62  60     1.079507055744   119.97253508   358.43039060

---------------------------
INTERNAL COORDINATES (A.U.)
---------------------------
 C      0   0   0     0.000000000000     0.00000000     0.00000000
 C      1   0   0     2.596949850462     0.00000000     0.00000000
 C      2   1   0     2.663337902185   124.18308552     0.00000000
 N      3   2   1     2.170766705153   176.42209037   176.68158385
 C      2   1   3     2.663188614516   125.80412928   180.82659398
 N      5   2   1     2.171623894073   175.15363473   179.97905752
 C      1   2   3     2.760813209322   124.93462703     0.39297973
 C      7   1   2     2.674737863940   108.71104230   177.30348495
 C      8   7   1     2.594410361781   122.71840303   179.86072766
 C      9   8   7     2.643861889984   117.82530488   359.86245322
 C     10   9   8     2.672386879418   119.09024678     0.00000000
 C      7   1   2     2.612341051043   131.09024525   356.93732787
 S     11  10   9     3.285593487575   111.56409903   180.21070614
 C     13  11  10     3.294777909023    90.08918450     0.00000000
 C     14  13  11     2.558155587847   114.14940378     0.00000000
 Br    14  13  11     3.545569064200   119.55704902   179.88120680
 C      8   7   1     2.795687830515   109.35102017     0.38342410
 O     17   8   7     2.293547612535   125.93800789   180.45537558
 C      1   2   3     2.732113189417   127.29795541   179.15347532
 C     19   1   2     2.595672639262   126.57424703     5.19735868
 C     20  19   1     2.653629069428   125.44955552   180.34750439
 C     21  20  19     2.583918141479   120.83472927   182.97001539
 C     22  21  20     2.653398788699   124.72563873   179.86491648
 O     23  22  21     2.573865506774   119.35491340   182.64473050
 C     24  23  22     2.560304234939   108.74087060   179.90895162
 C     25  24  23     2.637532791655   108.93942309     0.21559585
 C     23  22  21     2.648763478702   131.73981244     2.62178689
 O     27  23  22     2.533354500206   126.45579969     0.14858660
 O     26  25  24     2.571708901969   129.44760629   180.03262688
 C     25  24  23     2.673406222019   121.02281843   181.05540171
 C     30  25  24     2.574748694723   122.83165951     2.51298104
 C     31  30  25     2.672051396167   127.00402015   178.98796768
 C     32  31  30     2.575317216020   126.97745585     5.29401690
 C     33  32  31     2.666128224501   123.82282914   181.26281697
 S     34  33  32     3.288416664265   121.61915478     3.00078125
 C     35  34  33     3.303016257074    92.00391225   179.51212852
 C     36  35  34     2.644100049579   110.55344072   358.95571859
 C     34  33  32     2.637631778011   127.86535811   181.91199868
 C     38  34  33     2.831319548549   123.30972086     0.78459754
 C     39  38  34     2.883555555081   111.10751072   166.26333888
 C     40  39  38     2.902530719330   109.91039016    48.23978561
 N     41  40  39     2.739405034370   115.06816808   171.07570713
 C     37  36  35     2.822754492148   124.61409828   183.54908013
 C     36  35  34     2.656885942453   116.87517745   179.22871304
 C     44  36  35     2.590283851323   128.06713354   191.44600048
 C     45  44  36     2.640421904814   122.55543116   180.75796360
 C     46  45  44     2.603933634639   124.21638489   182.91702650
 C     47  46  45     2.668274102240   127.09217820   180.76159161
 C     48  47  46     2.579013020538   114.20541261   180.74216560
 C     49  48  47     2.665135971881   113.82506964     0.28287635
 S     50  49  48     3.296520245510   110.42392423   359.49102158
 C     50  49  48     2.621013333595   127.76082714   178.80599936
 C     52  50  49     2.663689850748   127.66809246     0.32596931
 C     53  52  50     2.579441833966   113.65602782   180.77880566
 C     54  53  52     2.669730349432   114.16695342     0.33305967
 S     55  54  53     3.301293645028   110.02901550   359.15230975
 C     55  54  53     2.608080784311   126.75361023   180.04055022
 C     57  55  54     2.631023689454   123.62655789   182.18214519
 C     58  57  55     2.599226083051   127.15358774   183.61147353
 C     59  58  57     2.796703942425   119.32174925   199.24288800
 O     60  59  58     2.292133013438   127.32253303   345.82684904
 C     60  59  58     2.790447320022   104.85507474   163.11774471
 C     62  60  59     2.663419247538   109.54838830     2.76917360
 C     59  58  57     2.717149535034   130.95357481     9.31365506
 C     64  59  58     2.611837456505   125.14790254    31.09649081
 C     65  64  59     2.778815571888   127.91160618   193.38407223
 O     66  65  64     2.298676930272   128.69707502    14.07636550
 C     66  65  64     2.805925545713   106.38908504   188.50471587
 C     68  66  65     2.637489139681   109.47628272   358.30729789
 C     65  64  59     2.791902571761   123.53115738    19.96404385
 O     70  65  64     2.297440557825   128.75866787   355.64182605
 C     69  68  66     2.610864238023   120.99779850   179.95506319
 C     72  69  68     2.625794361029   117.98757923     0.24530404
 C     73  72  69     2.622490422421   121.01192813   359.81834448
 C     68  66  65     2.610346917459   129.50451348   178.65888203
 C     63  62  60     2.617921453315   118.93660147   181.39301949
 C     76  63  62     2.626832362173   118.90282352   359.72606862
 C     77  76  63     2.618735966458   121.65527569   359.82831550
 C     62  60  59     2.607501916994   128.41324875   183.69123697
 H      9   8   7     2.038589908141   120.86688087   179.98932866
 H     12   7   1     2.035217962213   122.78090784     0.15061176
 H     15  14  13     2.031013866315   123.97519745   179.95960624
 H     20  19   1     2.046242789160   118.18543227     1.00967890
 H     21  20  19     2.038804490775   119.15338623     2.46918622
 H     22  21  20     2.046328338259   119.88842544     0.46176138
 H     28  27  23     1.827182507834   108.99138999   180.00636804
 H     29  26  25     1.819285422861   109.82603300     0.76950313
 H     30  25  24     2.043104602582   116.33742869   181.41253226
 H     31  30  25     2.042968864268   116.61691162     0.19155373
 H     32  31  30     2.046248737079   115.90382069   185.02539768
 H     33  32  31     2.042185662336   120.15111372     1.45012622
 H     39  38  34     2.065181071121   109.91151191    44.38177777
 H     39  38  34     2.070235081364   108.85228776   286.83802235
 H     40  39  38     2.065617611808   109.89456032   288.07816289
 H     40  39  38     2.065013359934   109.62749008   169.48168065
 H     41  40  39     2.073751071454   108.53995600    51.51304276
 H     42  41  40     1.917524230041   110.76385066    58.25502160
 H     42  41  40     1.915155223581   110.98276310   298.43114754
 H     43  37  36     2.069884180956   109.69265814   282.89229767
 H     43  37  36     2.061829970323   110.34814051    41.29194511
 H     44  36  35     2.048434396938   114.76535389     9.22039486
 H     45  44  36     2.038123832444   120.67351883     2.37297300
 H     46  45  44     2.045520794026   118.64082458     2.87490557
 H     48  47  46     2.032947702250   121.42268622     0.81496344
 H     49  48  47     2.031385746465   124.17941823   180.04594848
 H     53  52  50     2.031908076027   122.16207747     0.59371427
 H     54  53  52     2.032709527013   124.47270738   180.11340541
 H     57  55  54     2.043564825032   117.04502661     0.38624792
 H     58  57  55     2.052243251369   117.44315610     8.28130296
 H     72  69  68     2.039692700893   120.41962420   180.02932550
 H     73  72  69     2.041382352629   119.56179161   179.78307945
 H     74  73  72     2.041294023477   119.44247384   180.24158866
 H     75  68  66     2.039650903520   120.47051309   359.58092030
 H     76  63  62     2.035390046828   121.12297529   178.10224216
 H     77  76  63     2.041326930881   118.90920964   179.64620096
 H     78  77  76     2.040974433227   119.92288658   180.17509651
 H     79  62  60     2.039972694991   119.97253508   358.43039060

---------------------
BASIS SET INFORMATION
---------------------
There are 6 groups of distinct atoms

 Group   1 Type C   : 7s4p1d contracted to 3s2p1d pattern {511/31/1}
 Group   2 Type N   : 7s4p1d contracted to 3s2p1d pattern {511/31/1}
 Group   3 Type S   : 10s7p1d contracted to 4s3p1d pattern {5311/511/1}
 Group   4 Type Br  : 14s10p6d contracted to 5s4p3d pattern {63311/5311/411}
 Group   5 Type O   : 7s4p1d contracted to 3s2p1d pattern {511/31/1}
 Group   6 Type H   : 4s1p contracted to 2s1p pattern {31/1}

Atom   0C    basis set group =>   1
Atom   1C    basis set group =>   1
Atom   2C    basis set group =>   1
Atom   3N    basis set group =>   2
Atom   4C    basis set group =>   1
Atom   5N    basis set group =>   2
Atom   6C    basis set group =>   1
Atom   7C    basis set group =>   1
Atom   8C    basis set group =>   1
Atom   9C    basis set group =>   1
Atom  10C    basis set group =>   1
Atom  11C    basis set group =>   1
Atom  12S    basis set group =>   3
Atom  13C    basis set group =>   1
Atom  14C    basis set group =>   1
Atom  15Br   basis set group =>   4
Atom  16C    basis set group =>   1
Atom  17O    basis set group =>   5
Atom  18C    basis set group =>   1
Atom  19C    basis set group =>   1
Atom  20C    basis set group =>   1
Atom  21C    basis set group =>   1
Atom  22C    basis set group =>   1
Atom  23O    basis set group =>   5
Atom  24C    basis set group =>   1
Atom  25C    basis set group =>   1
Atom  26C    basis set group =>   1
Atom  27O    basis set group =>   5
Atom  28O    basis set group =>   5
Atom  29C    basis set group =>   1
Atom  30C    basis set group =>   1
Atom  31C    basis set group =>   1
Atom  32C    basis set group =>   1
Atom  33C    basis set group =>   1
Atom  34S    basis set group =>   3
Atom  35C    basis set group =>   1
Atom  36C    basis set group =>   1
Atom  37C    basis set group =>   1
Atom  38C    basis set group =>   1
Atom  39C    basis set group =>   1
Atom  40C    basis set group =>   1
Atom  41N    basis set group =>   2
Atom  42C    basis set group =>   1
Atom  43C    basis set group =>   1
Atom  44C    basis set group =>   1
Atom  45C    basis set group =>   1
Atom  46C    basis set group =>   1
Atom  47C    basis set group =>   1
Atom  48C    basis set group =>   1
Atom  49C    basis set group =>   1
Atom  50S    basis set group =>   3
Atom  51C    basis set group =>   1
Atom  52C    basis set group =>   1
Atom  53C    basis set group =>   1
Atom  54C    basis set group =>   1
Atom  55S    basis set group =>   3
Atom  56C    basis set group =>   1
Atom  57C    basis set group =>   1
Atom  58C    basis set group =>   1
Atom  59C    basis set group =>   1
Atom  60O    basis set group =>   5
Atom  61C    basis set group =>   1
Atom  62C    basis set group =>   1
Atom  63C    basis set group =>   1
Atom  64C    basis set group =>   1
Atom  65C    basis set group =>   1
Atom  66O    basis set group =>   5
Atom  67C    basis set group =>   1
Atom  68C    basis set group =>   1
Atom  69C    basis set group =>   1
Atom  70O    basis set group =>   5
Atom  71C    basis set group =>   1
Atom  72C    basis set group =>   1
Atom  73C    basis set group =>   1
Atom  74C    basis set group =>   1
Atom  75C    basis set group =>   1
Atom  76C    basis set group =>   1
Atom  77C    basis set group =>   1
Atom  78C    basis set group =>   1
Atom  79H    basis set group =>   6
Atom  80H    basis set group =>   6
Atom  81H    basis set group =>   6
Atom  82H    basis set group =>   6
Atom  83H    basis set group =>   6
Atom  84H    basis set group =>   6
Atom  85H    basis set group =>   6
Atom  86H    basis set group =>   6
Atom  87H    basis set group =>   6
Atom  88H    basis set group =>   6
Atom  89H    basis set group =>   6
Atom  90H    basis set group =>   6
Atom  91H    basis set group =>   6
Atom  92H    basis set group =>   6
Atom  93H    basis set group =>   6
Atom  94H    basis set group =>   6
Atom  95H    basis set group =>   6
Atom  96H    basis set group =>   6
Atom  97H    basis set group =>   6
Atom  98H    basis set group =>   6
Atom  99H    basis set group =>   6
Atom 100H    basis set group =>   6
Atom 101H    basis set group =>   6
Atom 102H    basis set group =>   6
Atom 103H    basis set group =>   6
Atom 104H    basis set group =>   6
Atom 105H    basis set group =>   6
Atom 106H    basis set group =>   6
Atom 107H    basis set group =>   6
Atom 108H    basis set group =>   6
Atom 109H    basis set group =>   6
Atom 110H    basis set group =>   6
Atom 111H    basis set group =>   6
Atom 112H    basis set group =>   6
Atom 113H    basis set group =>   6
Atom 114H    basis set group =>   6
Atom 115H    basis set group =>   6
Atom 116H    basis set group =>   6
---------------------------------
AUXILIARY/J BASIS SET INFORMATION
---------------------------------
There are 6 groups of distinct atoms

 Group   1 Type C   : 12s5p4d2f1g contracted to 6s4p3d1f1g pattern {711111/2111/211/2/1}
 Group   2 Type N   : 12s5p4d2f1g contracted to 6s4p3d1f1g pattern {711111/2111/211/2/1}
 Group   3 Type S   : 14s5p5d2f1g contracted to 8s4p3d1f1g pattern {71111111/2111/311/2/1}
 Group   4 Type Br  : 19s5p5d3f1g contracted to 8s4p3d2f1g pattern {121111111/2111/311/21/1}
 Group   5 Type O   : 12s5p4d2f1g contracted to 6s4p3d1f1g pattern {711111/2111/211/2/1}
 Group   6 Type H   : 5s2p1d contracted to 3s1p1d pattern {311/2/1}

Atom   0C    basis set group =>   1
Atom   1C    basis set group =>   1
Atom   2C    basis set group =>   1
Atom   3N    basis set group =>   2
Atom   4C    basis set group =>   1
Atom   5N    basis set group =>   2
Atom   6C    basis set group =>   1
Atom   7C    basis set group =>   1
Atom   8C    basis set group =>   1
Atom   9C    basis set group =>   1
Atom  10C    basis set group =>   1
Atom  11C    basis set group =>   1
Atom  12S    basis set group =>   3
Atom  13C    basis set group =>   1
Atom  14C    basis set group =>   1
Atom  15Br   basis set group =>   4
Atom  16C    basis set group =>   1
Atom  17O    basis set group =>   5
Atom  18C    basis set group =>   1
Atom  19C    basis set group =>   1
Atom  20C    basis set group =>   1
Atom  21C    basis set group =>   1
Atom  22C    basis set group =>   1
Atom  23O    basis set group =>   5
Atom  24C    basis set group =>   1
Atom  25C    basis set group =>   1
Atom  26C    basis set group =>   1
Atom  27O    basis set group =>   5
Atom  28O    basis set group =>   5
Atom  29C    basis set group =>   1
Atom  30C    basis set group =>   1
Atom  31C    basis set group =>   1
Atom  32C    basis set group =>   1
Atom  33C    basis set group =>   1
Atom  34S    basis set group =>   3
Atom  35C    basis set group =>   1
Atom  36C    basis set group =>   1
Atom  37C    basis set group =>   1
Atom  38C    basis set group =>   1
Atom  39C    basis set group =>   1
Atom  40C    basis set group =>   1
Atom  41N    basis set group =>   2
Atom  42C    basis set group =>   1
Atom  43C    basis set group =>   1
Atom  44C    basis set group =>   1
Atom  45C    basis set group =>   1
Atom  46C    basis set group =>   1
Atom  47C    basis set group =>   1
Atom  48C    basis set group =>   1
Atom  49C    basis set group =>   1
Atom  50S    basis set group =>   3
Atom  51C    basis set group =>   1
Atom  52C    basis set group =>   1
Atom  53C    basis set group =>   1
Atom  54C    basis set group =>   1
Atom  55S    basis set group =>   3
Atom  56C    basis set group =>   1
Atom  57C    basis set group =>   1
Atom  58C    basis set group =>   1
Atom  59C    basis set group =>   1
Atom  60O    basis set group =>   5
Atom  61C    basis set group =>   1
Atom  62C    basis set group =>   1
Atom  63C    basis set group =>   1
Atom  64C    basis set group =>   1
Atom  65C    basis set group =>   1
Atom  66O    basis set group =>   5
Atom  67C    basis set group =>   1
Atom  68C    basis set group =>   1
Atom  69C    basis set group =>   1
Atom  70O    basis set group =>   5
Atom  71C    basis set group =>   1
Atom  72C    basis set group =>   1
Atom  73C    basis set group =>   1
Atom  74C    basis set group =>   1
Atom  75C    basis set group =>   1
Atom  76C    basis set group =>   1
Atom  77C    basis set group =>   1
Atom  78C    basis set group =>   1
Atom  79H    basis set group =>   6
Atom  80H    basis set group =>   6
Atom  81H    basis set group =>   6
Atom  82H    basis set group =>   6
Atom  83H    basis set group =>   6
Atom  84H    basis set group =>   6
Atom  85H    basis set group =>   6
Atom  86H    basis set group =>   6
Atom  87H    basis set group =>   6
Atom  88H    basis set group =>   6
Atom  89H    basis set group =>   6
Atom  90H    basis set group =>   6
Atom  91H    basis set group =>   6
Atom  92H    basis set group =>   6
Atom  93H    basis set group =>   6
Atom  94H    basis set group =>   6
Atom  95H    basis set group =>   6
Atom  96H    basis set group =>   6
Atom  97H    basis set group =>   6
Atom  98H    basis set group =>   6
Atom  99H    basis set group =>   6
Atom 100H    basis set group =>   6
Atom 101H    basis set group =>   6
Atom 102H    basis set group =>   6
Atom 103H    basis set group =>   6
Atom 104H    basis set group =>   6
Atom 105H    basis set group =>   6
Atom 106H    basis set group =>   6
Atom 107H    basis set group =>   6
Atom 108H    basis set group =>   6
Atom 109H    basis set group =>   6
Atom 110H    basis set group =>   6
Atom 111H    basis set group =>   6
Atom 112H    basis set group =>   6
Atom 113H    basis set group =>   6
Atom 114H    basis set group =>   6
Atom 115H    basis set group =>   6
Atom 116H    basis set group =>   6


           ************************************************************
           *        Program running with 6 parallel MPI-processes     *
           *              working on a common directory               *
           ************************************************************
------------------------------------------------------------------------------
                           ORCA GTO INTEGRAL CALCULATION
                           -- RI-GTO INTEGRALS CHOSEN --
------------------------------------------------------------------------------

                         BASIS SET STATISTICS AND STARTUP INFO

Gaussian basis set:
 # of primitive gaussian shells          ... 1180
 # of primitive gaussian functions       ... 2260
 # of contracted shells                  ...  602
 # of contracted basis functions         ... 1330
 Highest angular momentum                ...    2
 Maximum contraction depth               ...    6
Auxiliary gaussian basis set:
 # of primitive gaussian shells          ... 2221
 # of primitive gaussian functions       ... 6185
 # of contracted shells                  ... 1386
 # of contracted aux-basis functions     ... 4306
 Highest angular momentum                ...    4
 Maximum contraction depth               ...   12
Ratio of auxiliary to basis functions    ...  3.24
Integral package used                  ... LIBINT
 One Electron integrals                  ... done
 Ordering auxiliary basis shells         ... done
 Integral threshhold             Thresh  ...  2.500e-11
 Primitive cut-off               TCut    ...  2.500e-12
 Pre-screening matrix                    ... done
 Shell pair data                         ... 
 Ordering of the shell pairs             ... done (   0.009 sec) 44898 of 181503 pairs
 Determination of significant pairs      ... done (   0.000 sec)
 Creation of shell pair data             ... done (   0.007 sec)
 Storage of shell pair data              ... done (   0.011 sec)
 Shell pair data done in (   0.027 sec)
 Computing two index integrals           ... done
 Cholesky decomposition of the V-matrix  ... done


Timings:
 Total evaluation time                   ...   2.821 sec (  0.047 min)
 One electron matrix time                ...   0.675 sec (  0.011 min) = 23.9%
 Schwartz matrix evaluation time         ...   0.884 sec (  0.015 min) = 31.3%
 Two index repulsion integral time       ...   0.456 sec (  0.008 min) = 16.2%
 Cholesky decomposition of V             ...   0.762 sec (  0.013 min) = 27.0%
 Three index repulsion integral time     ...   0.000 sec (  0.000 min) =  0.0%



           ************************************************************
           *        Program running with 6 parallel MPI-processes     *
           *              working on a common directory               *
           ************************************************************
-------------------------------------------------------------------------------
                                 ORCA SCF
-------------------------------------------------------------------------------

------------
SCF SETTINGS
------------
Hamiltonian:
 Density Functional     Method          .... DFT(GTOs)
 Exchange Functional    Exchange        .... WB88
 Correlation Functional Correlation     .... LYP
 LDA part of GGA corr.  LDAOpt          .... VWN-5
 Gradients option       PostSCFGGA      .... off
 Hybrid DFT is turned on
   Fraction HF Exchange ScalHFX         ....  0.190000
   Scaling of DF-GGA-X  ScalDFX         ....  0.350000
   Scaling of DF-GGA-C  ScalDFC         ....  0.810000
   Scaling of DF-LDA-C  ScalLDAC        ....  1.000000
   Perturbative correction              ....  0.000000
   Density functional embedding theory  .... OFF
 Long-range corrected/Screened/Range-Separated Hybrid DFT is turned on
   Amount of maximum screened exact exchange              ....  0.460000
   Range separation parameter mu (erf(mu*r12)/r12)        ....  0.330000
 RI-approximation to the Coulomb term is turned on
   Number of auxiliary basis functions  .... 4306
   RIJ-COSX (HFX calculated with COS-X)).... on


General Settings:
 Integral files         IntName         .... xtbopt
 Hartree-Fock type      HFTyp           .... RHF
 Total Charge           Charge          ....    0
 Multiplicity           Mult            ....    1
 Number of Electrons    NEL             ....  598
 Basis Dimension        Dim             .... 1330
 Nuclear Repulsion      ENuc            ....  11198.3874459424 Eh

Convergence Acceleration:
 DIIS                   CNVDIIS         .... on
   Start iteration      DIISMaxIt       ....    12
   Startup error        DIISStart       ....  0.200000
   # of expansion vecs  DIISMaxEq       ....     5
   Bias factor          DIISBfac        ....   1.050
   Max. coefficient     DIISMaxC        ....  10.000
 Newton-Raphson         CNVNR           .... off
 SOSCF                  CNVSOSCF        .... on
   Start iteration      SOSCFMaxIt      ....   150
   Startup grad/error   SOSCFStart      ....  0.003300
 Level Shifting         CNVShift        .... on
   Level shift para.    LevelShift      ....    0.2500
   Turn off err/grad.   ShiftErr        ....    0.0010
 Zerner damping         CNVZerner       .... off
 Static damping         CNVDamp         .... on
   Fraction old density DampFac         ....    0.7000
   Max. Damping (<1)    DampMax         ....    0.9800
   Min. Damping (>=0)   DampMin         ....    0.0000
   Turn off err/grad.   DampErr         ....    0.1000
 Fernandez-Rico         CNVRico         .... off

SCF Procedure:
 Maximum # iterations   MaxIter         ....   125
 SCF integral mode      SCFMode         .... Direct
   Integral package                     .... LIBINT
 Reset frequency        DirectResetFreq ....    20
 Integral Threshold     Thresh          ....  2.500e-11 Eh
 Primitive CutOff       TCut            ....  2.500e-12 Eh

Convergence Tolerance:
 Convergence Check Mode ConvCheckMode   .... Total+1el-Energy
 Convergence forced     ConvForced      .... 1
 Energy Change          TolE            ....  1.000e-08 Eh
 1-El. energy change                    ....  1.000e-05 Eh
 Orbital Gradient       TolG            ....  1.000e-05
 Orbital Rotation angle TolX            ....  1.000e-05
 DIIS Error             TolErr          ....  5.000e-07


Diagonalization of the overlap matrix:
Smallest eigenvalue                        ... 2.082e-04
Time for diagonalization                   ...    0.267 sec
Threshold for overlap eigenvalues          ... 1.000e-08
Number of eigenvalues below threshold      ... 0
Time for construction of square roots      ...    0.198 sec
Total time needed                          ...    0.469 sec

-------------------
DFT GRID GENERATION
-------------------

General Integration Accuracy     IntAcc      ...  4.670
Radial Grid Type                 RadialGrid  ... Gauss-Chebyshev
Angular Grid (max. acc.)         AngularGrid ... Lebedev-302
Angular grid pruning method      GridPruning ... 3 (G Style)
Weight generation scheme         WeightScheme... Becke
Basis function cutoff            BFCut       ...    1.0000e-11
Integration weight cutoff        WCut        ...    1.0000e-14
Grids for H and He will be reduced by one unit

# of grid points (after initial pruning)     ... 625660 (   0.0 sec)
# of grid points (after weights+screening)   ... 542310 (   9.9 sec)
nearest neighbour list constructed           ...    0.0 sec
Grid point re-assignment to atoms done       ...    0.1 sec
Grid point division into batches done        ...    1.9 sec
Reduced shell lists constructed in    2.9 sec

Total number of grid points                  ...   542310
Total number of batches                      ...     8533
Average number of points per batch           ...       63
Average number of grid points per atom       ...     4635
Average number of shells per batch           ...    71.89 (11.94%)
Average number of basis functions per batch  ...   157.17 (11.82%)
Average number of large shells per batch     ...    47.89 (66.61%)
Average number of large basis fcns per batch ...   105.74 (67.28%)
Maximum spatial batch extension              ...  23.44, 19.60, 18.16 au
Average spatial batch extension              ...   0.41,  0.38,  0.35 au

Time for grid setup =   13.279 sec

------------------------------
INITIAL GUESS: MODEL POTENTIAL
------------------------------
Loading Hartree-Fock densities                     ... done
Calculating cut-offs                               ... done
Setting up the integral package                    ... done
Initializing the effective Hamiltonian             ... done
Starting the Coulomb interaction                   ... done (   1.5 sec)
Reading the grid                                   ... done
Mapping shells                                     ... done
Starting the XC term evaluation                    ... done (   1.3 sec)
  promolecular density results
     # of electrons  =    597.981416702
     EX              =   -604.445520558
     EC              =    -21.124528388
     EX+EC           =   -625.570048946
Transforming the Hamiltonian                       ... done (   0.1 sec)
Diagonalizing the Hamiltonian                      ... done (   0.3 sec)
Back transforming the eigenvectors                 ... done (   0.1 sec)
Now organizing SCF variables                       ... done
                      ------------------
                      INITIAL GUESS DONE (  16.7 sec)
                      ------------------
--------------------
COSX GRID GENERATION
--------------------

General Integration Accuracy     IntAcc      ...  3.340
Radial Grid Type                 RadialGrid  ... Gauss-Chebyshev
Angular Grid (max. acc.)         AngularGrid ... Lebedev-50
Angular grid pruning method      GridPruning ... 3 (G Style)
Weight generation scheme         WeightScheme... Becke
Basis function cutoff            BFCut       ...    1.0000e-11
Integration weight cutoff        WCut        ...    1.0000e-14
Grids for H and He will be reduced by one unit

# of grid points (after initial pruning)     ...  58904 (   0.0 sec)
# of grid points (after weights+screening)   ...  53152 (   0.9 sec)
nearest neighbour list constructed           ...    0.0 sec
Grid point re-assignment to atoms done       ...    0.0 sec
Grid point division into batches done        ...    0.0 sec
Reduced shell lists constructed in    0.1 sec

Total number of grid points                  ...    53152
Total number of batches                      ...      890
Average number of points per batch           ...       59
Average number of grid points per atom       ...      454
Average number of shells per batch           ...    85.95 (14.28%)
Average number of basis functions per batch  ...   189.90 (14.28%)
Average number of large shells per batch     ...    57.17 (66.52%)
Average number of large basis fcns per batch ...   127.83 (67.31%)
Maximum spatial batch extension              ...  22.33, 18.56, 17.34 au
Average spatial batch extension              ...   1.03,  0.84,  0.64 au

Overlap Fitting                  UseSFitting ... on
Constructing numerical overlap ... done (      0.1 sec)
Inverting numerical overlap    ... done (      0.1 sec)
Obtaining analytic overlap     ... done (      0.0 sec)
Final contraction and storage  ... done (      0.1 sec)


General Integration Accuracy     IntAcc      ...  3.670
Radial Grid Type                 RadialGrid  ... Gauss-Chebyshev
Angular Grid (max. acc.)         AngularGrid ... Lebedev-50
Angular grid pruning method      GridPruning ... 3 (G Style)
Weight generation scheme         WeightScheme... Becke
Basis function cutoff            BFCut       ...    1.0000e-11
Integration weight cutoff        WCut        ...    1.0000e-14
Grids for H and He will be reduced by one unit

# of grid points (after initial pruning)     ...  73666 (   0.0 sec)
# of grid points (after weights+screening)   ...  66175 (   1.1 sec)
nearest neighbour list constructed           ...    0.0 sec
Grid point re-assignment to atoms done       ...    0.0 sec
Grid point division into batches done        ...    0.0 sec
Reduced shell lists constructed in    0.2 sec

Total number of grid points                  ...    66175
Total number of batches                      ...     1094
Average number of points per batch           ...       60
Average number of grid points per atom       ...      566
Average number of shells per batch           ...    85.32 (14.17%)
Average number of basis functions per batch  ...   188.27 (14.16%)
Average number of large shells per batch     ...    56.57 (66.30%)
Average number of large basis fcns per batch ...   126.58 (67.23%)
Maximum spatial batch extension              ...  23.86, 20.33, 18.01 au
Average spatial batch extension              ...   0.92,  0.75,  0.59 au

Overlap Fitting                  UseSFitting ... on
Constructing numerical overlap ... done (      0.1 sec)
Inverting numerical overlap    ... done (      0.1 sec)
Obtaining analytic overlap     ... done (      0.0 sec)
Final contraction and storage  ... done (      0.1 sec)


General Integration Accuracy     IntAcc      ...  4.010
Radial Grid Type                 RadialGrid  ... Gauss-Chebyshev
Angular Grid (max. acc.)         AngularGrid ... Lebedev-110
Angular grid pruning method      GridPruning ... 3 (G Style)
Weight generation scheme         WeightScheme... Becke
Basis function cutoff            BFCut       ...    1.0000e-11
Integration weight cutoff        WCut        ...    1.0000e-14
Grids for H and He will be reduced by one unit

# of grid points (after initial pruning)     ... 142804 (   0.0 sec)
# of grid points (after weights+screening)   ... 127311 (   2.4 sec)
nearest neighbour list constructed           ...    0.0 sec
Grid point re-assignment to atoms done       ...    0.0 sec
Grid point division into batches done        ...    0.1 sec
Reduced shell lists constructed in    0.3 sec

Total number of grid points                  ...   127311
Total number of batches                      ...     2050
Average number of points per batch           ...       62
Average number of grid points per atom       ...     1088
Average number of shells per batch           ...    79.21 (13.16%)
Average number of basis functions per batch  ...   174.64 (13.13%)
Average number of large shells per batch     ...    53.19 (67.15%)
Average number of large basis fcns per batch ...   118.73 (67.99%)
Maximum spatial batch extension              ...  24.66, 19.00, 19.33 au
Average spatial batch extension              ...   0.72,  0.61,  0.53 au

Overlap Fitting                  UseSFitting ... on
Constructing numerical overlap ... done (      0.2 sec)
Inverting numerical overlap    ... done (      0.1 sec)
Obtaining analytic overlap     ... done (      0.0 sec)
Final contraction and storage  ... done (      0.1 sec)

Time for X-Grid setup             =    6.230 sec
--------------
SCF ITERATIONS
--------------
ITER       Energy         Delta-E        Max-DP      RMS-DP      [F,P]     Damp
               ***  Starting incremental Fock matrix formation  ***
  0  -7313.1241372179   0.000000000000 0.08265938  0.00093055  0.2273668 0.7000
  1  -7313.7885669466  -0.664429728697 0.06128239  0.00067536  0.1147497 0.7000
                               ***Turning on DIIS***
  2  -7314.0892974218  -0.300730475245 0.07718949  0.00124535  0.0435008 0.0000
  3  -7314.5741980018  -0.484900579930 0.05189109  0.00048953  0.0632356 0.0000
  4  -7314.6672200265  -0.093022024728 0.01646080  0.00016063  0.0210041 0.0000
  5  -7314.6742914437  -0.007071417251 0.01003334  0.00007828  0.0125213 0.0000
  6  -7314.6766322036  -0.002340759815 0.00424428  0.00004917  0.0022333 0.0000
  7  -7314.6778424752  -0.001210271614 0.00216372  0.00003727  0.0012623 0.0000
  8  -7314.6786215235  -0.000779048305 0.00478068  0.00007853  0.0009310 0.0000
               *** Restarting incremental Fock matrix formation ***
                                   *** Resetting DIIS ***
                      *** Initiating the SOSCF procedure ***
                           *** Shutting down DIIS ***
                      *** Re-Reading the Fockian *** 
                      *** Removing any level shift *** 
ITER      Energy       Delta-E        Grad      Rot      Max-DP    RMS-DP
  9  -7314.67957370  -0.0009521727  0.001189  0.001189  0.002586  0.000021
               *** Restarting incremental Fock matrix formation ***
 10  -7314.67966848  -0.0000947813  0.001085  0.009065  0.002788  0.000028
 11  -7314.67972602  -0.0000575466  0.001184  0.006199  0.001573  0.000021
 12  -7314.67983646  -0.0001104403  0.000158  0.001921  0.001441  0.000012
 13  -7314.67983954  -0.0000030745  0.000235  0.001240  0.000526  0.000005
 14  -7314.67984799  -0.0000084461  0.000100  0.000495  0.000313  0.000002
 15  -7314.67984780   0.0000001861  0.000080  0.000160  0.000166  0.000001
 16  -7314.67984864  -0.0000008441  0.000014  0.000164  0.000045  0.000001
 17  -7314.67984861   0.0000000374  0.000013  0.000079  0.000025  0.000000
 18  -7314.67984864  -0.0000000308  0.000004  0.000058  0.000014  0.000000
                  ***Gradient check signals convergence***
              ***Rediagonalizing the Fockian in SOSCF/NRSCF***

               *****************************************************
               *                     SUCCESS                       *
               *           SCF CONVERGED AFTER  19 CYCLES          *
               *****************************************************

Setting up the final grid:

General Integration Accuracy     IntAcc      ...  5.010
Radial Grid Type                 RadialGrid  ... Gauss-Chebyshev
Angular Grid (max. acc.)         AngularGrid ... Lebedev-434
Angular grid pruning method      GridPruning ... 3 (G Style)
Weight generation scheme         WeightScheme... Becke
Basis function cutoff            BFCut       ...    1.0000e-11
Integration weight cutoff        WCut        ...    1.0000e-14
Grids for H and He will be reduced by one unit

# of grid points (after initial pruning)     ... 1109566 (   0.1 sec)
# of grid points (after weights+screening)   ... 958725 (  17.2 sec)
nearest neighbour list constructed           ...    0.0 sec
Grid point re-assignment to atoms done       ...    0.2 sec
Grid point division into batches done        ...    6.2 sec
Reduced shell lists constructed in    7.9 sec

Total number of grid points                  ...   958725
Total number of batches                      ...    15044
Average number of points per batch           ...       63
Average number of grid points per atom       ...     8194
Average number of shells per batch           ...    69.76 (11.59%)
Average number of basis functions per batch  ...   151.90 (11.42%)
Average number of large shells per batch     ...    46.32 (66.40%)
Average number of large basis fcns per batch ...   101.89 (67.08%)
Maximum spatial batch extension              ...  22.62, 18.58, 19.20 au
Average spatial batch extension              ...   0.33,  0.31,  0.30 au

Final grid set up in   25.8 sec
Final integration                            ... done (   3.2 sec)
Change in XC energy                          ...    -0.000198587
Integrated number of electrons               ...   598.000089476
Previous integrated no of electrons          ...   597.999894915
Old exchange energy                            =   -163.355963246 Eh
New exchange energy                            =   -163.354626380 Eh
Exchange energy change after final integration =      0.001336866 Eh
Total energy after final integration           =  -7314.678710364 Eh
Final COS-X integration done in                =    69.149 sec

----------------
TOTAL SCF ENERGY
----------------

Total Energy       :        -7314.67871036 Eh         -199042.52684 eV

Components:
Nuclear Repulsion  :        11198.38744594 Eh          304723.61425 eV
Electronic Energy  :       -18513.06615631 Eh         -503766.14109 eV
One Electron Energy:       -32365.67946313 Eh         -880714.91287 eV
Two Electron Energy:        13852.61330682 Eh          376948.77178 eV

Virial components:
Potential Energy   :       -14593.20531715 Eh         -397101.30492 eV
Kinetic Energy     :         7278.52660679 Eh          198058.77808 eV
Virial Ratio       :            2.00496695


DFT components:
N(Alpha)           :      299.000044738039 electrons
N(Beta)            :      299.000044738039 electrons
N(Total)           :      598.000089476077 electrons
E(XC)              :     -471.642114577451 Eh       
DFET-embed. en.    :        0.000000000000 Eh       

---------------
SCF CONVERGENCE
---------------

  Last Energy change         ...   -6.8158e-09  Tolerance :   1.0000e-08
  Last MAX-Density change    ...    1.1546e-14  Tolerance :   1.0000e-07
  Last RMS-Density change    ...    3.7837e-17  Tolerance :   5.0000e-09
  Last Orbital Gradient      ...    2.2032e-06  Tolerance :   1.0000e-05
  Last Orbital Rotation      ...    2.5390e-05  Tolerance :   1.0000e-05

             **** THE GBW FILE WAS UPDATED (xtbopt.gbw) ****
             **** DENSITY FILE WAS UPDATED (xtbopt.scfp) ****
             **** ENERGY FILE WAS UPDATED (xtbopt.en.tmp) ****
             **** THE GBW FILE WAS UPDATED (xtbopt.gbw) ****
             **** DENSITY FILE WAS UPDATED (xtbopt.scfp) ****
----------------
ORBITAL ENERGIES
----------------

  NO   OCC          E(Eh)            E(eV) 
   0   2.0000    -482.879160    -13139.8100 
   1   2.0000     -88.966927     -2420.9132 
   2   2.0000     -88.957312     -2420.6515 
   3   2.0000     -88.956261     -2420.6229 
   4   2.0000     -88.950626     -2420.4696 
   5   2.0000     -62.556884     -1702.2593 
   6   2.0000     -56.390823     -1534.4723 
   7   2.0000     -56.388126     -1534.3989 
   8   2.0000     -56.388089     -1534.3979 
   9   2.0000     -19.298458      -525.1377 
  10   2.0000     -19.279795      -524.6299 
  11   2.0000     -19.274093      -524.4747 
  12   2.0000     -19.202414      -522.5242 
  13   2.0000     -19.193079      -522.2702 
  14   2.0000     -19.189439      -522.1712 
  15   2.0000     -19.187688      -522.1235 
  16   2.0000     -14.404080      -391.9549 
  17   2.0000     -14.402116      -391.9015 
  18   2.0000     -14.383782      -391.4026 
  19   2.0000     -10.355839      -281.7967 
  20   2.0000     -10.353018      -281.7200 
  21   2.0000     -10.351045      -281.6662 
  22   2.0000     -10.350891      -281.6621 
  23   2.0000     -10.350393      -281.6485 
  24   2.0000     -10.345941      -281.5274 
  25   2.0000     -10.341116      -281.3961 
  26   2.0000     -10.339249      -281.3453 
  27   2.0000     -10.335522      -281.2438 
  28   2.0000     -10.328097      -281.0418 
  29   2.0000     -10.326610      -281.0013 
  30   2.0000     -10.325985      -280.9843 
  31   2.0000     -10.316441      -280.7246 
  32   2.0000     -10.315815      -280.7076 
  33   2.0000     -10.315200      -280.6909 
  34   2.0000     -10.314612      -280.6749 
  35   2.0000     -10.307824      -280.4902 
  36   2.0000     -10.307765      -280.4885 
  37   2.0000     -10.306985      -280.4673 
  38   2.0000     -10.306021      -280.4411 
  39   2.0000     -10.304097      -280.3887 
  40   2.0000     -10.302305      -280.3400 
  41   2.0000     -10.300135      -280.2809 
  42   2.0000     -10.299307      -280.2584 
  43   2.0000     -10.298004      -280.2229 
  44   2.0000     -10.297612      -280.2123 
  45   2.0000     -10.297587      -280.2116 
  46   2.0000     -10.297278      -280.2032 
  47   2.0000     -10.296826      -280.1909 
  48   2.0000     -10.296731      -280.1883 
  49   2.0000     -10.295984      -280.1680 
  50   2.0000     -10.295111      -280.1442 
  51   2.0000     -10.294971      -280.1404 
  52   2.0000     -10.294870      -280.1377 
  53   2.0000     -10.291491      -280.0457 
  54   2.0000     -10.290508      -280.0189 
  55   2.0000     -10.288988      -279.9776 
  56   2.0000     -10.286953      -279.9222 
  57   2.0000     -10.286855      -279.9196 
  58   2.0000     -10.286374      -279.9065 
  59   2.0000     -10.286200      -279.9017 
  60   2.0000     -10.286007      -279.8965 
  61   2.0000     -10.285513      -279.8830 
  62   2.0000     -10.282552      -279.8025 
  63   2.0000     -10.280467      -279.7457 
  64   2.0000     -10.279605      -279.7223 
  65   2.0000     -10.277189      -279.6565 
  66   2.0000     -10.276739      -279.6443 
  67   2.0000     -10.275955      -279.6230 
  68   2.0000     -10.275535      -279.6115 
  69   2.0000     -10.275423      -279.6085 
  70   2.0000     -10.274284      -279.5775 
  71   2.0000     -10.272386      -279.5258 
  72   2.0000     -10.270900      -279.4854 
  73   2.0000     -10.270034      -279.4618 
  74   2.0000     -10.269537      -279.4483 
  75   2.0000     -10.269346      -279.4431 
  76   2.0000     -10.268634      -279.4237 
  77   2.0000     -10.268179      -279.4114 
  78   2.0000     -10.266682      -279.3706 
  79   2.0000     -10.262540      -279.2579 
  80   2.0000     -10.261341      -279.2253 
  81   2.0000     -10.259859      -279.1849 
  82   2.0000     -10.259652      -279.1793 
  83   2.0000      -8.786315      -239.0878 
  84   2.0000      -8.063013      -219.4057 
  85   2.0000      -8.052976      -219.1326 
  86   2.0000      -8.052366      -219.1160 
  87   2.0000      -8.046972      -218.9692 
  88   2.0000      -6.622573      -180.2094 
  89   2.0000      -6.608054      -179.8143 
  90   2.0000      -6.607894      -179.8099 
  91   2.0000      -6.032711      -164.1584 
  92   2.0000      -6.028438      -164.0421 
  93   2.0000      -6.024193      -163.9266 
  94   2.0000      -6.022123      -163.8703 
  95   2.0000      -6.022005      -163.8671 
  96   2.0000      -6.018316      -163.7667 
  97   2.0000      -6.018047      -163.7594 
  98   2.0000      -6.016587      -163.7197 
  99   2.0000      -6.015037      -163.6775 
 100   2.0000      -6.013431      -163.6338 
 101   2.0000      -6.012604      -163.6113 
 102   2.0000      -6.008019      -163.4865 
 103   2.0000      -2.738447       -74.5169 
 104   2.0000      -2.734377       -74.4062 
 105   2.0000      -2.734254       -74.4028 
 106   2.0000      -2.722716       -74.0889 
 107   2.0000      -2.722693       -74.0882 
 108   2.0000      -1.220008       -33.1981 
 109   2.0000      -1.175710       -31.9927 
 110   2.0000      -1.159572       -31.5536 
 111   2.0000      -1.116680       -30.3864 
 112   2.0000      -1.109132       -30.1810 
 113   2.0000      -1.102709       -30.0062 
 114   2.0000      -1.100632       -29.9497 
 115   2.0000      -1.012239       -27.5444 
 116   2.0000      -1.004514       -27.3342 
 117   2.0000      -1.002300       -27.2740 
 118   2.0000      -0.998409       -27.1681 
 119   2.0000      -0.982099       -26.7243 
 120   2.0000      -0.981975       -26.7209 
 121   2.0000      -0.977487       -26.5988 
[...]
  45   4.515     274.6   0.005811   0.003304  30.085074  26.158474     0.60 ( 102-> 112)    0.11 ( 102-> 113)    0.03 ( 102-> 115)
  46   4.557     272.1   0.020305   0.013706  161.631380  171.056096     0.15 ( 108-> 114)    0.10 ( 105-> 113)    0.08 ( 109-> 115)
  47   4.586     270.4   0.010874   0.009619  22.726875  22.704278     0.18 ( 110-> 118)    0.09 ( 100-> 111)    0.08 ( 105-> 112)
  48   4.676     265.2   0.043655   0.032067  -29.502776  -27.082286     0.52 (  98-> 112)    0.08 ( 100-> 112)    0.04 (  98-> 113)
  49   4.684     264.7   0.006858   0.006100   6.189420  10.405662     0.08 ( 109-> 116)    0.08 (  96-> 117)    0.05 ( 110-> 120)
  50   4.707     263.4   0.012028   0.009845  17.685540  15.846731     0.13 ( 110-> 120)    0.12 (  98-> 112)    0.03 ( 100-> 112)
  51   4.716     262.9   0.027329   0.022918  19.423455  14.712454     0.09 ( 110-> 119)    0.06 ( 109-> 118)    0.04 ( 110-> 120)
  52   4.758     260.6   0.053123   0.044116  -345.871265  -322.387403     0.36 ( 110-> 121)    0.13 ( 110-> 120)    0.09 ( 103-> 111)
  53   4.767     260.1   0.089470   0.066524  395.045741  328.091618     0.21 ( 103-> 111)    0.09 ( 103-> 113)    0.09 ( 108-> 115)
  54   4.811     257.7   0.037839   0.035977  40.491579  46.799247     0.07 ( 105-> 112)    0.06 ( 104-> 112)    0.06 ( 105-> 115)
  55   4.819     257.3   0.034980   0.023933  96.891887  78.420071     0.11 ( 109-> 117)    0.06 ( 110-> 120)    0.06 ( 107-> 113)
  56   4.855     255.4   0.014346   0.009289  13.584114   2.653700     0.22 ( 109-> 117)    0.04 (  90-> 111)    0.04 ( 110-> 119)
  57   4.875     254.3   0.005887   0.004640  50.209285  47.576536     0.10 ( 104-> 112)    0.08 ( 109-> 117)    0.07 ( 110-> 122)
  58   4.923     251.8   0.001570   0.001975   0.827826   2.113494     0.07 ( 109-> 117)    0.06 ( 108-> 115)    0.05 ( 100-> 114)
  59   4.944     250.8   0.029753   0.021906   7.603671   7.808664     0.07 ( 101-> 111)    0.06 ( 101-> 112)    0.06 ( 101-> 113)
  60   4.950     250.5   0.026277   0.021776  -14.742231  -12.591035     0.14 ( 104-> 112)    0.07 ( 107-> 113)    0.05 (  99-> 114)
  61   4.991     248.4   0.059464   0.041079  26.617356  21.023149     0.22 ( 103-> 111)    0.16 ( 103-> 114)    0.15 ( 103-> 112)

-----------------------------------------------------------------------------
         ABSORPTION SPECTRUM VIA TRANSITION ELECTRIC DIPOLE MOMENTS
-----------------------------------------------------------------------------
State   Energy  Wavelength   fosc         T2         TX        TY        TZ  
        (cm-1)    (nm)                  (au**2)     (au)      (au)      (au) 
-----------------------------------------------------------------------------
   0    9981.1   1001.9   2.485705222  81.98715   2.84189  -5.68180  -6.45198
   1   15536.1    643.7   0.713250920  15.11388   2.77978  -2.34646  -1.37143
   2   17421.5    574.0   0.119098305   2.25058  -1.12300   0.88204   0.45984
   3   19815.3    504.7   0.243110926   4.03905   0.35296  -0.75664   1.82810
   4   21526.7    464.5   0.246117428   3.76393  -0.09763  -0.06203  -1.93663
   5   22450.9    445.4   0.253790723   3.72149  -1.38106   0.32057  -1.30821
   6   22761.1    439.3   0.038739651   0.56032   0.09107  -0.36186  -0.64891
   7   24390.5    410.0   0.116554380   1.57320  -0.81135   0.95117  -0.10093
   8   25105.9    398.3   0.141424492   1.85449   0.83072  -0.54576   0.93088
   9   25735.1    388.6   0.007915642   0.10126   0.02037  -0.24791   0.19845
  10   26080.4    383.4   0.128814984   1.62603   1.10002  -0.25418   0.59277
  11   26562.2    376.5   0.017967486   0.22269  -0.45180  -0.13544  -0.01501
  12   27218.3    367.4   0.081900496   0.99061  -0.36732   0.88444   0.27100
  13   27845.2    359.1   0.073977907   0.87464   0.08729  -0.80010  -0.47630
  14   28313.6    353.2   0.026556414   0.30878   0.02622  -0.53082  -0.16225
  15   28487.5    351.0   0.017859906   0.20640   0.29172  -0.34821   0.00687
  16   28607.0    349.6   0.132992314   1.53049  -0.83030   0.91474   0.06584
  17   29084.0    343.8   0.015871660   0.17966   0.31002   0.12553   0.26036
  18   29489.9    339.1   0.004230553   0.04723   0.01630  -0.04650  -0.21166
  19   29869.5    334.8   0.005107477   0.05629  -0.09601  -0.18854   0.10738
  20   30165.5    331.5   0.012008335   0.13105   0.15251  -0.04282   0.32552
  21   30546.0    327.4   0.183941261   1.98244  -1.39710  -0.07815  -0.15630
  22   30938.3    323.2   0.060136049   0.63990  -0.77328   0.20475  -0.00317
  23   30992.8    322.7   0.129246435   1.37288   1.06182  -0.37088   0.32844
  24   31391.0    318.6   0.017155525   0.17992   0.14706  -0.11597  -0.38058
  25   31920.9    313.3   0.016044237   0.16547  -0.18121   0.12634   0.34157
  26   32117.8    311.4   0.051502186   0.52790  -0.12902   0.31515   0.64183
  27   32150.2    311.0   0.007771205   0.07958   0.17749   0.16490   0.14451
  28   32433.4    308.3   0.043381251   0.44034  -0.24971  -0.02033  -0.61447
  29   32477.4    307.9   0.008514179   0.08631   0.09552   0.10136   0.25866
  30   33039.9    302.7   0.010902929   0.10864  -0.26610  -0.11794  -0.15466
  31   33144.5    301.7   0.200888607   1.99535   0.69835  -1.14275   0.44921
  32   33532.3    298.2   0.366664157   3.59982   1.04002  -1.56739   0.24793
  33   33779.3    296.0   0.116155888   1.13205   0.75375  -0.73552   0.15141
  34   34033.3    293.8   0.007900020   0.07642  -0.21607   0.03483   0.16888
  35   34101.0    293.2   0.075316160   0.72710   0.83501   0.08182   0.15219
  36   34491.7    289.9   0.081678945   0.77960   0.55163  -0.55519  -0.40875
  37   34819.0    287.2   0.041231624   0.38984   0.40668  -0.45200   0.14198
  38   34943.8    286.2   0.141400630   1.33216  -1.13787  -0.19193  -0.02394
  39   34996.0    285.7   0.084581492   0.79567   0.72754   0.30902   0.41336
  40   35306.3    283.2   0.088192842   0.82235  -0.70563   0.56549   0.06822
  41   35501.5    281.7   0.049571229   0.45968  -0.66935   0.10098   0.03823
  42   35980.9    277.9   0.058156326   0.53211   0.62107  -0.22406   0.31013
  43   36086.3    277.1   0.153116607   1.39687   1.04135  -0.34326   0.44118
  44   36283.8    275.6   0.043078761   0.39086   0.26758  -0.55748   0.09211
  45   36415.2    274.6   0.005810661   0.05253   0.02442  -0.21722   0.06892
  46   36753.0    272.1   0.020305459   0.18188   0.31217   0.26299   0.12359
  47   36987.9    270.4   0.010873526   0.09678  -0.05808   0.21291  -0.21927
  48   37712.8    265.2   0.043654732   0.38108   0.30891  -0.40388   0.35006
  49   37780.8    264.7   0.006858115   0.05976  -0.01934   0.19645   0.14420
  50   37967.5    263.4   0.012027928   0.10429  -0.02982   0.13921  -0.28987
  51   38039.7    262.9   0.027329057   0.23652  -0.20539   0.42416   0.12007
  52   38379.0    260.6   0.053123000   0.45568   0.48478  -0.06442   0.46532
  53   38451.4    260.1   0.089470331   0.76602  -0.07233  -0.36987   0.78993
  54   38802.5    257.7   0.037838525   0.32103   0.50467  -0.19128  -0.17249
  55   38868.9    257.3   0.034980087   0.29627   0.01576  -0.21786   0.49856
  56   39160.3    255.4   0.014346031   0.12060   0.01220   0.07301   0.33930
  57   39316.5    254.3   0.005886728   0.04929   0.05703   0.16899  -0.13222
  58   39709.9    251.8   0.001570457   0.01302   0.02515  -0.06025  -0.09358
  59   39874.9    250.8   0.029752976   0.24564  -0.17481   0.22271   0.40680
  60   39924.0    250.5   0.026276969   0.21668  -0.22270   0.33084   0.24006
  61   40258.9    248.4   0.059464312   0.48626   0.15467  -0.11159  -0.67074

-----------------------------------------------------------------------------
         ABSORPTION SPECTRUM VIA TRANSITION VELOCITY DIPOLE MOMENTS
-----------------------------------------------------------------------------
State   Energy  Wavelength   fosc         P2         PX        PY        PZ  
        (cm-1)    (nm)                  (au**2)     (au)      (au)      (au) 
-----------------------------------------------------------------------------
   0    9981.1   1001.9   4.692002678   0.32007   0.16515  -0.35307  -0.41005
   1   15536.1    643.7   0.811290702   0.08614   0.22172  -0.17141  -0.08720
   2   17421.5    574.0   0.128988348   0.01536  -0.09558   0.07052   0.03535
   3   19815.3    504.7   0.296330888   0.04013   0.04390  -0.07815   0.17915
   4   21526.7    464.5   0.293614757   0.04320  -0.00918  -0.01420  -0.20715
   5   22450.9    445.4   0.291965209   0.04480  -0.14083   0.02455  -0.15609
   6   22761.1    439.3   0.048559742   0.00755   0.01992  -0.04191  -0.07349
   7   24390.5    410.0   0.131869305   0.02198  -0.09525   0.11351  -0.00489
   8   25105.9    398.3   0.164427484   0.02821   0.10476  -0.07205   0.10976
   9   25735.1    388.6   0.009298093   0.00164   0.00656  -0.03066   0.02555
  10   26080.4    383.4   0.132869343   0.02368   0.13139  -0.02949   0.07450
  11   26562.2    376.5   0.017408619   0.00316  -0.05475  -0.01270   0.00108
  12   27218.3    367.4   0.068062034   0.01266  -0.03883   0.10228   0.02632
  13   27845.2    359.1   0.064074359   0.01219   0.00793  -0.09414  -0.05717
  14   28313.6    353.2   0.025520671   0.00494   0.00416  -0.06729  -0.01984
  15   28487.5    351.0   0.019164228   0.00373   0.03943  -0.04665   0.00090
  16   28607.0    349.6   0.144783956   0.02831  -0.11271   0.12444   0.01096
  17   29084.0    343.8   0.013606658   0.00270   0.03419   0.02080   0.03321
  18   29489.9    339.1   0.003356691   0.00068   0.00391  -0.00624  -0.02495
  19   29869.5    334.8   0.005439542   0.00111  -0.01087  -0.02787   0.01469
  20   30165.5    331.5   0.010511082   0.00217   0.01733  -0.00118   0.04319
  21   30546.0    327.4   0.166744496   0.03481  -0.18472  -0.00991  -0.02428
  22   30938.3    323.2   0.055332334   0.01170  -0.10449   0.02796   0.00035
  23   30992.8    322.7   0.124445003   0.02636   0.14586  -0.05320   0.04747
  24   31391.0    318.6   0.016011760   0.00344   0.02173  -0.01694  -0.05173
  25   31920.9    313.3   0.012509545   0.00273  -0.02848   0.02126   0.03829
  26   32117.8    311.4   0.036900720   0.00810  -0.01725   0.03955   0.07898
  27   32150.2    311.0   0.008535565   0.00188   0.02937   0.02142   0.02354
  28   32433.4    308.3   0.035439382   0.00786  -0.03748  -0.00152  -0.08030
  29   32477.4    307.9   0.006633450   0.00147   0.01402   0.01349   0.03307
  30   33039.9    302.7   0.009728079   0.00220  -0.04014  -0.01397  -0.01976
  31   33144.5    301.7   0.169896016   0.03849   0.09523  -0.15918   0.06387
  32   33532.3    298.2   0.328810665   0.07536   0.15025  -0.22559   0.04344
  33   33779.3    296.0   0.097203854   0.02244   0.10570  -0.10460   0.01805
  34   34033.3    293.8   0.006004993   0.00140  -0.02842   0.00515   0.02372
  35   34101.0    293.2   0.060158975   0.01402   0.11469   0.01463   0.02554
  36   34491.7    289.9   0.071517466   0.01686   0.08063  -0.07891  -0.06428
  37   34819.0    287.2   0.033502763   0.00797   0.05752  -0.06365   0.02477
  38   34943.8    286.2   0.122667624   0.02930  -0.16835  -0.03019  -0.00654
  39   34996.0    285.7   0.073778287   0.01765   0.10880   0.04438   0.06196
  40   35306.3    283.2   0.080034842   0.01931  -0.10813   0.08655   0.01141
  41   35501.5    281.7   0.045888644   0.01113  -0.10355   0.01914   0.00672
  42   35980.9    277.9   0.041085045   0.01010   0.08368  -0.02670   0.04888
  43   36086.3    277.1   0.128947419   0.03180   0.15672  -0.05269   0.06681
  44   36283.8    275.6   0.029769930   0.00738   0.03835  -0.07582   0.01279
  45   36415.2    274.6   0.003303991   0.00082  -0.00152  -0.02683   0.01000
  46   36753.0    272.1   0.013706235   0.00344   0.04562   0.03563   0.00958
  47   36987.9    270.4   0.009618576   0.00243  -0.00939   0.03147  -0.03678
  48   37712.8    265.2   0.032067008   0.00827   0.04547  -0.06172   0.04887
  49   37780.8    264.7   0.006099632   0.00158  -0.00174   0.03336   0.02143
  50   37967.5    263.4   0.009844688   0.00255  -0.00468   0.02090  -0.04578
  51   38039.7    262.9   0.022918229   0.00596  -0.03195   0.06578   0.02470
  52   38379.0    260.6   0.044116081   0.01157   0.07617  -0.01137   0.07511
  53   38451.4    260.1   0.066524439   0.01748  -0.00522  -0.06514   0.11494
  54   38802.5    257.7   0.035976816   0.00954   0.08536  -0.03445  -0.03266
  55   38868.9    257.3   0.023932821   0.00636  -0.00052  -0.03418   0.07204
  56   39160.3    255.4   0.009289435   0.00249  -0.00142   0.00802   0.04919
  57   39316.5    254.3   0.004640045   0.00125   0.01185   0.02320  -0.02383
  58   39709.9    251.8   0.001975433   0.00054   0.00476  -0.01352  -0.01818
  59   39874.9    250.8   0.021905531   0.00597  -0.02601   0.03330   0.06469
  60   39924.0    250.5   0.021776132   0.00594  -0.03607   0.05450   0.04087
  61   40258.9    248.4   0.041079336   0.01130   0.02185  -0.01484  -0.10298

-------------------------------------------------------------------
                             CD SPECTRUM
-------------------------------------------------------------------
State   Energy Wavelength       R         MX        MY        MZ   
        (cm-1)   (nm)       (1e40*cgs)   (au)      (au)      (au)  
-------------------------------------------------------------------
   0    9981.1   1001.9    -1530.17000  12.53993  11.99644  -6.04708
   1   15536.1    643.7    1241.08302  -1.60036  -0.93063   2.18754
   2   17421.5    574.0    182.36196   0.60514   0.43461  -1.03818
   3   19815.3    504.7    451.29436  -3.99987  -2.82348  -1.44363
   4   21526.7    464.5    -65.71773   4.79236   4.16969  -0.51912
   5   22450.9    445.4    -453.51361   4.06053   5.16888  -4.49073
   6   22761.1    439.3     -3.56198   1.44090   1.82484  -0.83867
   7   24390.5    410.0    -16.70059  -0.28211  -0.15132   0.13980
   8   25105.9    398.3     64.49581  -3.72419  -3.25856   1.11915
   9   25735.1    388.6    -11.90425  -1.12406  -0.72625  -0.53741
  10   26080.4    383.4    -386.64529  -1.43378  -3.12566   4.08750
  11   26562.2    376.5    108.54804   0.70402   1.29851  -2.22853
  12   27218.3    367.4    142.92673  -4.05204  -2.70737   1.10622
  13   27845.2    359.1    145.80181   2.44961   2.10474  -1.78806
  14   28313.6    353.2     69.29118   0.85582   1.17218  -1.88491
  15   28487.5    351.0    -24.58911   0.15117  -0.16573   0.36512
  16   28607.0    349.6    -79.51681  -0.07981   0.33046  -0.47419
  17   29084.0    343.8     -5.34987  -0.70222  -1.98945   1.88251
  18   29489.9    339.1      0.30589   0.53381   0.61103  -0.08698
  19   29869.5    334.8     47.26885   0.09736   0.48163  -0.93481
  20   30165.5    331.5    -51.44859  -0.29808  -0.74339   0.71238
  21   30546.0    327.4    530.15140   2.18254   4.93668  -7.58761
  22   30938.3    323.2    -141.77217  -0.35510   1.54641  -3.22575
  23   30992.8    322.7    -262.19550  -1.42036  -3.16788   4.40133
  24   31391.0    318.6    -24.29719   2.03081   0.60189   0.33046
  25   31920.9    313.3     18.46990  -0.75196  -0.33439  -0.50463
  26   32117.8    311.4     11.92102  -2.04103  -1.82393   0.40651
  27   32150.2    311.0      5.98070  -0.69364  -0.96074   1.77266
  28   32433.4    308.3    -27.12729   3.26009   3.44331  -1.62606
  29   32477.4    307.9     58.18775  -1.79484  -1.64406   0.35275
  30   33039.9    302.7    139.44373   2.30573   2.40107  -1.97318
  31   33144.5    301.7      7.93001  -0.38770  -0.59527  -0.98648
  32   33532.3    298.2    -529.96902   3.65989   0.98780  -0.03965
  33   33779.3    296.0    -394.69982   1.68340  -0.20821   1.66718
  34   34033.3    293.8     15.31546  -0.46374   0.12946  -1.00476
  35   34101.0    293.2    197.51950  -1.57969  -3.45687   5.02009
  36   34491.7    289.9    -72.88392   2.28318   1.29068   0.57176
  37   34819.0    287.2    -163.87767   1.24388  -0.14689   0.86608
  38   34943.8    286.2    808.49869   2.35225   4.90338  -7.84550
  39   34996.0    285.7    357.31080  -3.28297  -5.05533   5.89044
  40   35306.3    283.2    -97.97619  -0.33380   0.48727  -1.39902
  41   35501.5    281.7     17.10954   0.20277   2.13140  -3.97881
  42   35980.9    277.9    -186.89952  -0.83041  -2.24117   2.60035
  43   36086.3    277.1    -437.11288  -1.33273  -3.58076   4.56296
  44   36283.8    275.6    -19.53878   1.50934   0.55614  -0.11884
  45   36415.2    274.6     30.08507   0.33526   0.38465  -0.75833
  46   36753.0    272.1    161.63138  -1.42745  -2.47946   3.33361
  47   36987.9    270.4     22.72687  -0.03921   0.01073   0.46052
  48   37712.8    265.2    -29.50278  -0.00230  -0.42619  -0.13214
  49   37780.8    264.7      6.18942  -0.44391  -0.76596   0.80187
  50   37967.5    263.4     17.68554  -0.63729  -0.22152   0.21801
  51   38039.7    262.9     19.42345  -2.18924  -1.33575   0.28750
  52   38379.0    260.6    -345.87126  -0.14313  -2.08731   3.01342
  53   38451.4    260.1    395.04574   1.15684   0.54113  -1.76228
  54   38802.5    257.7     40.49158   0.13357  -0.68461   2.14579
  55   38868.9    257.3     96.89189  -0.12495  -0.04655  -0.84085
  56   39160.3    255.4     13.58411  -1.19319  -0.99084   0.08625
  57   39316.5    254.3     50.20928  -0.31491  -0.37655   0.99386
  58   39709.9    251.8      0.82783   0.36807   0.49214  -0.18038
  59   39874.9    250.8      7.60367  -1.19359  -0.58900  -0.26974
  60   39924.0    250.5    -14.74223  -0.82714  -0.32804  -0.05470
  61   40258.9    248.4     26.61736   0.58681   0.91410   0.15159

sTD-DFT done

Total run time:        4.843 sec

           *** ORCA-CIS/TD-DFT FINISHED WITHOUT ERROR ***

-------------------------   --------------------
FINAL SINGLE POINT ENERGY     -7314.678710364178
-------------------------   --------------------


                            ***************************************
                            *     ORCA property calculations      *
                            ***************************************

                                    ---------------------
                                    Active property flags
                                    ---------------------
   (+) Dipole Moment


------------------------------------------------------------------------------
                       ORCA ELECTRIC PROPERTIES CALCULATION
------------------------------------------------------------------------------

Dipole Moment Calculation                       ... on
Quadrupole Moment Calculation                   ... off
Polarizability Calculation                      ... off
GBWName                                         ... xtbopt.gbw
Electron density file                           ... xtbopt.scfp
The origin for moment calculation is the CENTER OF MASS  = (-20.425386, 22.253420  0.132192)

-------------
DIPOLE MOMENT
-------------
                                X             Y             Z
Electronic contribution:    145.91689    -210.35573    -199.01757
Nuclear contribution   :   -147.55111     209.87310     201.30797
                        -----------------------------------------
Total Dipole Moment    :     -1.63422      -0.48263       2.29040
                        -----------------------------------------
Magnitude (a.u.)       :      2.85474
Magnitude (Debye)      :      7.25617



--------------------
Rotational spectrum 
--------------------
 
Rotational constants in cm-1:     0.002016     0.000087     0.000085 
Rotational constants in MHz :    60.436640     2.614198     2.546128 

 Dipole components along the rotational axes: 
x,y,z [a.u.] :     1.823948     0.680374     2.088023 
x,y,z [Debye]:     4.636108     1.729373     5.307333 

 

Timings for individual modules:

Sum of individual times         ...      812.008 sec (=  13.533 min)
GTO integral calculation        ...        3.642 sec (=   0.061 min)   0.4 %
SCF iterations                  ...      802.768 sec (=  13.379 min)  98.9 %
CIS module                      ...        5.599 sec (=   0.093 min)   0.7 %
                             ****ORCA TERMINATED NORMALLY****
TOTAL RUN TIME: 0 days 0 hours 13 minutes 33 seconds 112 msec
