
                                 *****************
                                 * O   R   C   A *
                                 *****************

           --- An Ab Initio, DFT and Semiempirical electronic structure package ---

                  #######################################################
                  #                        -***-                        #
                  #          Department of theory and spectroscopy      #
                  #               Directorship: Frank Neese             #
                  #        Max Planck Institute fuer Kohlenforschung    #
                  #                Kaiser Wilhelm Platz 1               #
                  #                 D-45470 Muelheim/Ruhr               #
                  #                      Germany                        #
                  #                                                     #
                  #                  All rights reserved                #
                  #                        -***-                        #
                  #######################################################


                         Program Version 4.2.0 -  RELEASE  -


 With contributions from (in alphabetic order):
   Daniel Aravena         : Magnetic Suceptibility
   Michael Atanasov       : Ab Initio Ligand Field Theory (pilot matlab implementation)
   Alexander A. Auer      : GIAO ZORA, VPT2
   Ute Becker             : Parallelization
   Giovanni Bistoni       : ED, misc. LED, open-shell LED, HFLED
   Martin Brehm           : Molecular dynamics
   Dmytro Bykov           : SCF Hessian
   Vijay G. Chilkuri      : MRCI spin determinant printing, contributions to CSF-ICE
   Dipayan Datta          : RHF DLPNO-CCSD density
   Achintya Kumar Dutta   : EOM-CC, STEOM-CC
   Dmitry Ganyushin       : Spin-Orbit,Spin-Spin,Magnetic field MRCI
   Miquel Garcia          : C-PCM Hessian, Gaussian charge scheme
   Yang Guo               : DLPNO-NEVPT2, CIM, IAO-localization
   Andreas Hansen         : Spin unrestricted coupled pair/coupled cluster methods
   Benjamin Helmich-Paris : CASSCF linear response (MC-RPA)
   Lee Huntington         : MR-EOM, pCC
   Robert Izsak           : Overlap fitted RIJCOSX, COSX-SCS-MP3, EOM
   Christian Kollmar      : KDIIS, OOCD, Brueckner-CCSD(T), CCSD density
   Simone Kossmann        : Meta GGA functionals, TD-DFT gradient, OOMP2, MP2 Hessian
   Martin Krupicka        : AUTO-CI
   Lucas Lang             : DCDCAS
   Dagmar Lenk            : GEPOL surface, SMD
   Dimitrios Liakos       : Extrapolation schemes; Compound Job, initial MDCI parallelization
   Dimitrios Manganas     : Further ROCIS development; embedding schemes
   Dimitrios Pantazis     : SARC Basis sets
   Taras Petrenko         : DFT Hessian,TD-DFT gradient, ASA, ECA, R-Raman, ABS, FL, XAS/XES, NRVS
   Peter Pinski           : DLPNO-MP2, DLPNO-MP2 Gradient
   Christoph Reimann      : Effective Core Potentials
   Marius Retegan         : Local ZFS, SOC
   Christoph Riplinger    : Optimizer, TS searches, QM/MM, DLPNO-CCSD(T), (RO)-DLPNO pert. Triples
   Tobias Risthaus        : Range-separated hybrids, TD-DFT gradient, RPA, STAB
   Michael Roemelt        : Original ROCIS implementation
   Masaaki Saitow         : Open-shell DLPNO-CCSD energy and density
   Barbara Sandhoefer     : DKH picture change effects
   Avijit Sen             : IP-ROCIS
   Kantharuban Sivalingam : CASSCF convergence, NEVPT2, FIC-MRCI
   Bernardo de Souza      : ESD, SOC TD-DFT
   Georgi Stoychev        : AutoAux, RI-MP2 NMR
   Willem Van den Heuvel  : Paramagnetic NMR
   Boris Wezisla          : Elementary symmetry handling
   Frank Wennmohs         : Technical directorship


 We gratefully acknowledge several colleagues who have allowed us to
 interface, adapt or use parts of their codes:
   Stefan Grimme, W. Hujo, H. Kruse,             : VdW corrections, initial TS optimization,
                  C. Bannwarth                     DFT functionals, gCP, sTDA/sTD-DF
   Ed Valeev, F. Pavosevic, A. Kumar             : LibInt (2-el integral package), F12 methods
   Garnet Chan, S. Sharma, J. Yang, R. Olivares  : DMRG
   Ulf Ekstrom                                   : XCFun DFT Library
   Mihaly Kallay                                 : mrcc  (arbitrary order and MRCC methods)
   Andreas Klamt, Michael Diedenhofen            : otool_cosmo (COSMO solvation model)
   Jiri Pittner, Ondrej Demel                    : Mk-CCSD
   Frank Weinhold                                : gennbo (NPA and NBO analysis)
   Christopher J. Cramer and Donald G. Truhlar   : smd solvation model
   Lars Goerigk                                  : TD-DFT with DH, B97 family of functionals
   V. Asgeirsson, H. Jonsson                     : NEB implementation
   FAccTs GmbH                                   : IRC, NEB, NEB-TS, Multilevel, MM, QM/MM, CI optimization
   S Lehtola, MJT Oliveira, MAL Marques          : LibXC Library


 Your calculation uses the libint2 library for the computation of 2-el integrals
 For citations please refer to: http://libint.valeyev.net

 Your ORCA version has been built with support for libXC version: 4.2.3
 For citations please refer to: https://tddft.org/programs/libxc/

 This ORCA versions uses:
   CBLAS   interface :  Fast vector & matrix operations
   LAPACKE interface :  Fast linear algebra routines
   SCALAPACK package :  Parallel linear algebra routines


XCFun DFT library Copyright 2009-2010 Ulf Ekstrom and contributors.
See http://admol.org/xcfun for more information. This is free soft-
ware; see the source code for copying conditions. There is ABSOLUTELY
NO WARRANTY; not even for MERCHANTABILITY or FITNESS FOR A PARTICULAR
PURPOSE. For details see the documentation. Scientific users of this 
library should cite U. Ekstrom, L. Visscher, R. Bast, A. J. Thorvald-
sen and K. Ruud; J.Chem.Theor.Comp. 2010, DOI: 10.1021/ct100117s
XCFun Version 0.99 
----- Orbital basis set information -----
Your calculation utilizes the basis: def2-SVP
   F. Weigend and R. Ahlrichs, Phys. Chem. Chem. Phys. 7, 3297 (2005).

----- AuxJ basis set information -----
Your calculation utilizes the auxiliary basis: def2/J
   F. Weigend, Phys. Chem. Chem. Phys. 8, 1057 (2006).

================================================================================
                                        WARNINGS
                       Please study these warnings very carefully!
================================================================================

INFO   : Checking CIS options ...

WARNING: CIS/ROCIS methods need fully converged wavefunctions
  ===> : Setting SCFConvForced true
         You can overwrite this default with %scf ConvForced false 


INFO   : the flag for use of LIBINT has been found!

================================================================================
                                       INPUT FILE
================================================================================
NAME = 18_15_8_15_18.inp
|  1> # ORCA input file
|  2> # SCF done       -180.394128541960          0.000963073425
|  3> ! CAM-B3LYP def2-SVP def2/J RIJCOSX Grid4 TightSCF
|  4> %maxcore 5000
|  5> %tddft
|  6>     Mode sTDDFT
|  7>     Ethresh 5.0
|  8>     maxcore 5000
|  9> end
| 10> 
| 11> %pal
| 12>   nprocs 6
| 13>   end
| 14> * xyz 0 1
| 15>    C        3.13737         6.78110         0.57044
| 16>    C        2.71819         7.22939         1.92946
| 17>    O        2.11295         6.56716         2.74304
| 18>    C        3.24949         8.59876         2.05908
| 19>    C        3.79902         9.00361         0.84153
| 20>    C        3.59361         7.95293        -0.14870
| 21>    C        3.54915         8.12967        -1.50557
| 22>    C        3.05225         7.15040        -2.39215
| 23>    N        2.60205         6.39633        -3.13115
| 24>    C        3.89298         9.32942        -2.16030
| 25>    N        4.17447        10.27638        -2.74477
| 26>    C        4.39688        10.26301         0.70853
| 27>    C        4.42629        11.09432         1.79750
| 28>    C        3.86646        10.72301         3.03986
| 29>    C        3.26033         9.44123         3.18800
| 30>    C        2.70694         9.07500         4.43162
| 31>    C        2.74895         9.94546         5.48566
| 32>    C        3.34270        11.20998         5.34485
| 33>    C        3.88972        11.59082         4.15048
| 34>    C        3.13744         5.46198         0.25329
| 35>    C        3.85536         4.80561        -0.77969
| 36>    C        3.55648         3.57638        -1.33196
| 37>    C        4.47882         3.19851        -2.30542
| 38>    C        5.52602         4.11527        -2.47086
| 39>    S        5.34946         5.47254        -1.43132
| 40>    C        6.44038         3.70653        -3.44307
| 41>    C        6.08515         2.48623        -4.02947
| 42>    S        4.61847         1.82419        -3.36539
| 43>    C        6.97094         2.06040        -5.02231
| 44>    C        8.01388         2.93959        -5.20007
| 45>    S        7.89794         4.32349        -4.11524
| 46>    C        9.11983         2.87411        -6.11681
| 47>    C       10.20516         3.72355        -5.96183
| 48>    C       11.27971         3.72152        -6.83585
| 49>    C       11.34026         2.87984        -7.93653
| 50>    C       10.25117         1.97614        -8.12984
| 51>    N       10.27160         1.11418        -9.16263
| 52>    C        9.26551         0.29638        -9.31893
| 53>    C        8.17040         0.30673        -8.43990
| 54>    N        8.12356         1.12159        -7.42052
| 55>    C        9.14885         1.96986        -7.22198
| 56>    C       12.46391         2.94009        -8.83171
| 57>    C       12.60911         2.39575       -10.08712
| 58>    C       13.84395         2.70980       -10.65905
| 59>    C       14.66325         3.49254        -9.83763
| 60>    S       13.88948         3.85307        -8.34460
| 61>    C       15.88591         3.79888       -10.43890
| 62>    C       15.99435         3.24944       -11.72630
| 63>    S       14.58022         2.34764       -12.19525
| 64>    C       17.20533         3.52429       -12.35162
| 65>    C       18.04311         4.28459       -11.55386
| 66>    S       17.29306         4.68349       -10.01281
| 67>    C       19.32333         4.82086       -11.81687
| 68>    C       20.23354         4.50548       -12.77715
| 69>    C       21.31131         5.49021       -13.08477
| 70>    O       21.60661         6.45172       -12.40946
| 71>    C       21.87125         5.06133       -14.37785
| 72>    C       21.28283         3.85567       -14.76044
| 73>    C       20.37674         3.40697       -13.70518
| 74>    C       19.97180         2.11242       -13.50836
| 75>    C       19.34559         1.66577       -12.32728
| 76>    N       18.86700         1.25330       -11.36908
| 77>    C       20.21193         1.05855       -14.41352
| 78>    N       20.35997         0.16218       -15.11539
| 79>    C       21.62019         3.25330       -15.97915
| 80>    C       22.54758         3.86568       -16.78162
| 81>    C       23.17812         5.07427       -16.41334
| 82>    C       22.83633         5.70084       -15.17953
| 83>    C       23.46726         6.90770       -14.81489
| 84>    C       24.40294         7.46954       -15.63883
| 85>    C       24.74394         6.85662       -16.85542
| 86>    C       24.14537         5.68699       -17.23581
| 87>    H        4.83651        10.56773        -0.22741
| 88>    H        4.88810        12.06768         1.71573
| 89>    H        2.25387         8.10102         4.52816
| 90>    H        2.32361         9.66484         6.43752
| 91>    H        3.36429        11.88166         6.19028
| 92>    H        4.34679        12.56350         4.03944
| 93>    H        2.57643         4.81640         0.92220
| 94>    H        2.68533         3.00837        -1.06245
| 95>    H        6.86731         1.15976        -5.59572
| 96>    H       10.21524         4.41353        -5.13062
| 97>    H       12.09252         4.41064        -6.65827
| 98>    H        9.31932        -0.38506       -10.15718
| 99>    H        7.32713        -0.35834        -8.56921
|100>    H       11.84685         1.80262       -10.55389
|101>    H       17.44403         3.22365       -13.35511
|102>    H       19.60649         5.66715       -11.19686
|103>    H       21.15311         2.33248       -16.28874
|104>    H       22.81502         3.41733       -17.72762
|105>    H       23.19670         7.36912       -13.87832
|106>    H       24.88814         8.39238       -15.35799
|107>    H       25.48538         7.31827       -17.49063
|108>    H       24.40680         5.21336       -18.17108
|109> *
|110> 
|111>                          ****END OF INPUT****
================================================================================

                       ****************************
                       * Single Point Calculation *
                       ****************************

---------------------------------
CARTESIAN COORDINATES (ANGSTROEM)
---------------------------------
  C      3.137370    6.781100    0.570440
  C      2.718190    7.229390    1.929460
  O      2.112950    6.567160    2.743040
  C      3.249490    8.598760    2.059080
  C      3.799020    9.003610    0.841530
  C      3.593610    7.952930   -0.148700
  C      3.549150    8.129670   -1.505570
  C      3.052250    7.150400   -2.392150
  N      2.602050    6.396330   -3.131150
  C      3.892980    9.329420   -2.160300
  N      4.174470   10.276380   -2.744770
  C      4.396880   10.263010    0.708530
  C      4.426290   11.094320    1.797500
  C      3.866460   10.723010    3.039860
  C      3.260330    9.441230    3.188000
  C      2.706940    9.075000    4.431620
  C      2.748950    9.945460    5.485660
  C      3.342700   11.209980    5.344850
  C      3.889720   11.590820    4.150480
  C      3.137440    5.461980    0.253290
  C      3.855360    4.805610   -0.779690
  C      3.556480    3.576380   -1.331960
  C      4.478820    3.198510   -2.305420
  C      5.526020    4.115270   -2.470860
  S      5.349460    5.472540   -1.431320
  C      6.440380    3.706530   -3.443070
  C      6.085150    2.486230   -4.029470
  S      4.618470    1.824190   -3.365390
  C      6.970940    2.060400   -5.022310
  C      8.013880    2.939590   -5.200070
  S      7.897940    4.323490   -4.115240
  C      9.119830    2.874110   -6.116810
  C     10.205160    3.723550   -5.961830
  C     11.279710    3.721520   -6.835850
  C     11.340260    2.879840   -7.936530
  C     10.251170    1.976140   -8.129840
  N     10.271600    1.114180   -9.162630
  C      9.265510    0.296380   -9.318930
  C      8.170400    0.306730   -8.439900
  N      8.123560    1.121590   -7.420520
  C      9.148850    1.969860   -7.221980
  C     12.463910    2.940090   -8.831710
  C     12.609110    2.395750  -10.087120
  C     13.843950    2.709800  -10.659050
  C     14.663250    3.492540   -9.837630
  S     13.889480    3.853070   -8.344600
  C     15.885910    3.798880  -10.438900
  C     15.994350    3.249440  -11.726300
  S     14.580220    2.347640  -12.195250
  C     17.205330    3.524290  -12.351620
  C     18.043110    4.284590  -11.553860
  S     17.293060    4.683490  -10.012810
  C     19.323330    4.820860  -11.816870
  C     20.233540    4.505480  -12.777150
  C     21.311310    5.490210  -13.084770
  O     21.606610    6.451720  -12.409460
  C     21.871250    5.061330  -14.377850
  C     21.282830    3.855670  -14.760440
  C     20.376740    3.406970  -13.705180
  C     19.971800    2.112420  -13.508360
  C     19.345590    1.665770  -12.327280
  N     18.867000    1.253300  -11.369080
  C     20.211930    1.058550  -14.413520
  N     20.359970    0.162180  -15.115390
  C     21.620190    3.253300  -15.979150
  C     22.547580    3.865680  -16.781620
  C     23.178120    5.074270  -16.413340
  C     22.836330    5.700840  -15.179530
  C     23.467260    6.907700  -14.814890
  C     24.402940    7.469540  -15.638830
  C     24.743940    6.856620  -16.855420
  C     24.145370    5.686990  -17.235810
  H      4.836510   10.567730   -0.227410
  H      4.888100   12.067680    1.715730
  H      2.253870    8.101020    4.528160
  H      2.323610    9.664840    6.437520
  H      3.364290   11.881660    6.190280
  H      4.346790   12.563500    4.039440
  H      2.576430    4.816400    0.922200
  H      2.685330    3.008370   -1.062450
  H      6.867310    1.159760   -5.595720
  H     10.215240    4.413530   -5.130620
  H     12.092520    4.410640   -6.658270
  H      9.319320   -0.385060  -10.157180
  H      7.327130   -0.358340   -8.569210
  H     11.846850    1.802620  -10.553890
  H     17.444030    3.223650  -13.355110
  H     19.606490    5.667150  -11.196860
  H     21.153110    2.332480  -16.288740
  H     22.815020    3.417330  -17.727620
  H     23.196700    7.369120  -13.878320
  H     24.888140    8.392380  -15.357990
  H     25.485380    7.318270  -17.490630
  H     24.406800    5.213360  -18.171080

----------------------------
CARTESIAN COORDINATES (A.U.)
----------------------------
  NO LB      ZA    FRAG     MASS         X           Y           Z
   0 C     6.0000    0    12.011    5.928770   12.814422    1.077975
   1 C     6.0000    0    12.011    5.136635   13.661567    3.646151
   2 O     8.0000    0    15.999    3.992897   12.410134    5.183594
   3 C     6.0000    0    12.011    6.140646   16.249301    3.891097
   4 C     6.0000    0    12.011    7.179107   17.014357    1.590261
   5 C     6.0000    0    12.011    6.790939   15.028860   -0.281002
   6 C     6.0000    0    12.011    6.706922   15.362850   -2.845115
   7 C     6.0000    0    12.011    5.767917   13.512298   -4.520508
   8 N     7.0000    0    14.007    4.917162   12.087312   -5.917016
   9 C     6.0000    0    12.011    7.356666   17.630049   -4.082375
  10 N     7.0000    0    14.007    7.888605   19.419544   -5.186864
  11 C     6.0000    0    12.011    8.308899   19.394278    1.338928
  12 C     6.0000    0    12.011    8.364476   20.965226    3.396783
  13 C     6.0000    0    12.011    7.306551   20.263552    5.744503
  14 C     6.0000    0    12.011    6.161131   17.841339    6.024447
  15 C     6.0000    0    12.011    5.115375   17.149265    8.374548
  16 C     6.0000    0    12.011    5.194763   18.794196   10.366395
  17 C     6.0000    0    12.011    6.316788   21.183792   10.100303
  18 C     6.0000    0    12.011    7.350506   21.903475    7.843271
  19 C     6.0000    0    12.011    5.928902   10.321646    0.478649
  20 C     6.0000    0    12.011    7.285575    9.081287   -1.473401
  21 C     6.0000    0    12.011    6.720773    6.758379   -2.517040
  22 C     6.0000    0    12.011    8.463743    6.044308   -4.356612
  23 C     6.0000    0    12.011   10.442664    7.776733   -4.669249
  24 S    16.0000    0    32.060   10.109014   10.341602   -2.704803
  25 C     6.0000    0    12.011   12.170554    7.004327   -6.506459
  26 C     6.0000    0    12.011   11.499267    4.698294   -7.614595
  27 S    16.0000    0    32.060    8.727643    3.447220   -6.359665
  28 C     6.0000    0    12.011   13.173167    3.893592   -9.490790
  29 C     6.0000    0    12.011   15.144038    5.555020   -9.826708
  30 S    16.0000    0    32.060   14.924944    8.170212   -7.776677
  31 C     6.0000    0    12.011   17.233981    5.431281  -11.559096
  32 C     6.0000    0    12.011   19.284958    7.036490  -11.266226
  33 C     6.0000    0    12.011   21.315563    7.032654  -12.917884
  34 C     6.0000    0    12.011   21.429986    5.442109  -14.997868
  35 C     6.0000    0    12.011   19.371904    3.734363  -15.363171
  36 N     7.0000    0    14.007   19.410511    2.105495  -17.314861
  37 C     6.0000    0    12.011   17.509276    0.560077  -17.610226
  38 C     6.0000    0    12.011   15.439818    0.579636  -15.949100
  39 N     7.0000    0    14.007   15.351304    2.119498  -14.022751
  40 C     6.0000    0    12.011   17.288821    3.722496  -13.647564
  41 C     6.0000    0    12.011   23.553376    5.555965  -16.689513
  42 C     6.0000    0    12.011   23.827765    4.527311  -19.061894
  43 C     6.0000    0    12.011   26.161274    5.120780  -20.142685
  44 C     6.0000    0    12.011   27.709527    6.599944  -18.590427
  45 S    16.0000    0    32.060   26.247313    7.281247  -15.769009
  46 C     6.0000    0    12.011   30.020019    7.178843  -19.726662
  47 C     6.0000    0    12.011   30.224941    6.140552  -22.159496
  48 S    16.0000    0    32.060   27.552623    4.436397  -23.045683
  49 C     6.0000    0    12.011   32.513362    6.659943  -23.341179
  50 C     6.0000    0    12.011   34.096537    8.096702  -21.833631
  51 S    16.0000    0    32.060   32.679147    8.850513  -18.921469
  52 C     6.0000    0    12.011   36.515802    9.110105  -22.330648
  53 C     6.0000    0    12.011   38.235849    8.514123  -24.145314
  54 C     6.0000    0    12.011   40.272539   10.374993  -24.726632
  55 O     8.0000    0    15.999   40.830576   12.191984  -23.450481
  56 C     6.0000    0    12.011   41.330673    9.564528  -27.170199
  57 C     6.0000    0    12.011   40.218720    7.286160  -27.893189
  58 C     6.0000    0    12.011   38.506458    6.438240  -25.899037
  59 C     6.0000    0    12.011   37.741232    3.991895  -25.527101
  60 C     6.0000    0    12.011   36.557867    3.147849  -23.295183
  61 N     7.0000    0    14.007   35.653463    2.368394  -21.484448
  62 C     6.0000    0    12.011   38.195012    2.000370  -27.237605
  63 N     7.0000    0    14.007   38.474767    0.306476  -28.563948
  64 C     6.0000    0    12.011   40.856238    6.147846  -30.196217
  65 C     6.0000    0    12.011   42.608751    7.305077  -31.712666
  66 C     6.0000    0    12.011   43.800299    9.588981  -31.016718
  67 C     6.0000    0    12.011   43.154410   10.773026  -28.685155
  68 C     6.0000    0    12.011   44.346695   13.053661  -27.996085
  69 C     6.0000    0    12.011   46.114873   14.115385  -29.553106
  70 C     6.0000    0    12.011   46.759270   12.957134  -31.852128
  71 C     6.0000    0    12.011   45.628137   10.746854  -32.570961
  72 H     1.0000    0     1.008    9.139679   19.970116   -0.429743
  73 H     1.0000    0     1.008    9.237170   22.804610    3.242260
  74 H     1.0000    0     1.008    4.259197   15.308709    8.556982
  75 H     1.0000    0     1.008    4.390987   18.263901   12.165150
  76 H     1.0000    0     1.008    6.357587   22.453083   11.697934
  77 H     1.0000    0     1.008    8.214243   23.741574    7.633435
  78 H     1.0000    0     1.008    4.868747    9.101677    1.742705
  79 H     1.0000    0     1.008    5.074538    5.684995   -2.007740
  80 H     1.0000    0     1.008   12.977335    2.191629  -10.574378
  81 H     1.0000    0     1.008   19.304006    8.340363   -9.695467
  82 H     1.0000    0     1.008   22.851551    8.334902  -12.582307
  83 H     1.0000    0     1.008   17.610963   -0.727658  -19.194288
  84 H     1.0000    0     1.008   13.846269   -0.677164  -16.193460
  85 H     1.0000    0     1.008   22.387302    3.406458  -19.943962
  86 H     1.0000    0     1.008   32.964439    6.091816  -25.237500
  87 H     1.0000    0     1.008   37.050897   10.709361  -21.158999
  88 H     1.0000    0     1.008   39.973585    4.407748  -30.781258
  89 H     1.0000    0     1.008   43.114140    6.457818  -33.500347
  90 H     1.0000    0     1.008   43.835410   13.925619  -26.226224
  91 H     1.0000    0     1.008   47.031769   15.859300  -29.022395
  92 H     1.0000    0     1.008   48.160389   13.829526  -33.052501
  93 H     1.0000    0     1.008   46.122168    9.851823  -34.338365

--------------------------------
INTERNAL COORDINATES (ANGSTROEM)
--------------------------------
 C      0   0   0     0.000000000000     0.00000000     0.00000000
 C      1   0   0     1.491177775083     0.00000000     0.00000000
 O      2   1   0     1.211105464813   126.03845149     0.00000000
 C      2   1   3     1.474535598519   104.95227668   177.69313786
 C      4   2   1     1.395820456183   109.54427379     6.42001703
 C      1   2   3     1.448621008442   107.32439003   169.09742063
 C      6   1   2     1.369054387561   125.88882441   208.33179434
 C      7   6   1     1.411348092888   122.98697389   359.14777747
 N      8   7   6     1.147790313995   176.74927764   118.18833004
 C      7   6   1     1.409358188787   124.22181360   174.13988650
 N     10   7   6     1.147856716929   177.03115875   165.96262627
 C      5   4   2     1.400433482747   120.78043402   181.28423445
 C     12   5   4     1.370327305829   118.63629643   359.69405545
 C     13  12   5     1.412352333733   122.07531785   359.57262994
 C      4   2   1     1.408663754379   128.94912038   186.96871217
 C     15   4   2     1.409594129315   123.27400778   358.86462198
 C     16  15   4     1.367649726099   120.16738140   180.20234299
 C     17  16  15     1.404057459294   120.59122624   359.92513509
 C     18  17  16     1.367768139306   120.49524840   359.94986350
 C      1   2   3     1.356709881220   120.35522783   344.35159506
 C     20   1   2     1.418900413595   128.31492834   201.14218557
 C     21  20   1     1.380339740861   126.41789798   200.52508161
 C     22  21  20     1.393241251220   112.19323685   181.50115129
 C     23  22  21     1.401587361244   113.55922251     2.36954993
 S     24  23  22     1.718720075550   111.61604290   358.90299080
 C     24  23  22     1.395820504685   112.34081527   179.48703045
 C     26  24  23     1.399709042230   112.38629284     0.62120317
 S     27  26  24     1.740818609276   112.67873676   359.35819445
 C     27  26  24     1.397027694285   113.73843331   179.05761317
 C     29  27  26     1.375608053662   112.19379529     0.43650128
 S     26  24  23     1.719573582055   136.25756526   180.31181241
 C     30  29  27     1.437993484165   129.52228956   180.42059382
 C     32  30  29     1.386906025259   120.18069707   192.74282497
 C     33  32  30     1.385125548028   122.39001134   181.56211800
 C     34  33  32     1.386934745148   122.37963738     0.71069241
 C     35  34  33     1.428341511754   117.26296517   358.68003191
 N     36  35  34     1.345380098931   119.84590348   181.59272755
 C     37  36  35     1.305926344822   118.77604037   179.93682989
 C     38  37  36     1.404302950043   121.41590843     0.34792083
 N     39  38  37     1.305881460777   121.41241619   359.02004492
 C     40  39  38     1.345436623777   118.76846585     0.35289137
 C     35  34  33     1.437903549408   120.18240664   178.48005464
 C     42  35  34     1.376024470604   129.33645980   193.52669011
 C     43  42  35     1.396624914929   112.20723777   178.20741635
 C     44  43  42     1.399523209525   113.76655400     0.48408799
 S     45  44  43     1.719837339605   111.30837586   359.56638161
 C     45  44  43     1.396519704157   112.48967456   180.44610133
 C     47  45  44     1.403938142227   112.12237174     0.19896665
 S     48  47  45     1.741528351592   112.75903147   359.89803661
 C     48  47  45     1.390338155018   113.72438423   180.54756304
 C     50  48  47     1.384323819054   112.11726589     0.12735551
 S     47  45  44     1.715855082080   136.39942031   179.81164747
 C     51  50  48     1.412700612798   130.51412362   182.73112154
 C     53  51  50     1.360178101169   130.53032489   342.59581293
 C     54  53  51     1.491948863132   118.42061848   161.60293340
 O     55  54  53     1.211506156072   125.80157518    13.74984326
 C     55  54  53     1.472931344089   105.27463810   195.81043683
 C     57  55  54     1.395073202416   109.39357703   354.69551193
 C     54  53  51     1.445154019819   134.10105895   346.82597263
 C     59  54  53     1.370610892449   126.61675985   329.21666818
 C     60  59  54     1.409462717847   123.42899308   359.63600733
 N     61  60  59     1.147748722064   177.10076991   220.05154058
 C     60  59  54     1.409829429186   124.29923380   184.22149694
 N     63  60  59     1.148049003919   176.48645900   194.09223698
 C     58  57  55     1.400683922446   120.57665312   178.22650665
 C     65  58  57     1.370773350120   118.69742640     0.56413837
 C     66  65  58     1.412055465660   122.12655493     0.52373101
 C     57  55  54     1.408205691261   128.90835361   174.13186892
 C     68  57  55     1.409803551599   123.24480457     1.68163086
 C     69  68  57     1.367493463092   120.13807599   179.58062020
 C     70  69  68     1.404294539796   120.58462694     0.16678211
 C     71  70  69     1.367851210439   120.52225314     0.00000000
 H     12   5   4     1.078013218333   120.71422156   178.90655858
 H     13  12   5     1.080455690253   119.70603613   179.66354671
 H     16  15   4     1.078531147858   118.58854699     0.15402043
 H     17  16  15     1.079675488098   120.12789038   179.91110603
 H     18  17  16     1.079987053348   119.34528713   179.96776997
 H     19  18  17     1.080439377707   120.63730945   179.97180829
 H     20   1   2     1.085792956599   115.72536610    15.98813753
 H     22  21  20     1.074324589079   123.09582049     4.00565182
 H     29  27  26     1.072702481865   125.06867094   180.75728157
 H     33  32  30     1.080316653070   118.97676568     1.50948839
 H     34  33  32     1.080315290506   118.62164901   179.89630491
 H     38  37  36     1.081627963858   116.67672977   180.28880154
 H     39  38  37     1.081731701440   121.90812958   179.20350924
 H     43  42  35     1.072715124066   122.73380825   358.30172124
 H     50  48  47     1.074408804739   123.93593477   182.97965056
 H     53  51  50     1.086645641320   115.18607082   157.98173226
 H     65  58  57     1.077923544088   120.85757856   181.29319978
 H     66  65  58     1.080489646457   119.64524664   180.35054219
 H     69  68  57     1.078552036250   118.59152753   359.72006495
 H     70  69  68     1.079779519717   120.12505652   180.17883342
 H     71  70  69     1.079974879430   119.32026965   179.97913681
 H     72  71  70     1.080463324088   120.64217125   180.04612045

---------------------------
INTERNAL COORDINATES (A.U.)
---------------------------
 C      0   0   0     0.000000000000     0.00000000     0.00000000
 C      1   0   0     2.817917611896     0.00000000     0.00000000
 O      2   1   0     2.288657647792   126.03845149     0.00000000
 C      2   1   3     2.786468455919   104.95227668   177.69313786
 C      4   2   1     2.637718394312   109.54427379     6.42001703
 C      1   2   3     2.737496977801   107.32439003   169.09742063
 C      6   1   2     2.587137854934   125.88882441   208.33179434
 C      7   6   1     2.667061375191   122.98697389   359.14777747
 N      8   7   6     2.169009352617   176.74927764   118.18833004
 C      7   6   1     2.663301001406   124.22181360   174.13988650
 N     10   7   6     2.169134835979   177.03115875   165.96262627
 C      5   4   2     2.646435751166   120.78043402   181.28423445
 C     12   5   4     2.589543321851   118.63629643   359.69405545
 C     13  12   5     2.668959115359   122.07531785   359.57262994
 C      4   2   1     2.661988710557   128.94912038   186.96871217
 C     15   4   2     2.663746864389   123.27400778   358.86462198
 C     16  15   4     2.584483429460   120.16738140   180.20234299
 C     17  16  15     2.653284074356   120.59122624   359.92513509
 C     18  17  16     2.584707197991   120.49524840   359.94986350
 C      1   2   3     2.563810118691   120.35522783   344.35159506
 C     20   1   2     2.681333193002   128.31492834   201.14218557
 C     21  20   1     2.608464081995   126.41789798   200.52508161
 C     22  21  20     2.632844403287   112.19323685   181.50115129
 C     23  22  21     2.648616265517   113.55922251     2.36954993
 S     24  23  22     3.247910243663   111.61604290   358.90299080
 C     24  23  22     2.637718485967   112.34081527   179.48703045
 C     26  24  23     2.645066756988   112.38629284     0.62120317
 S     27  26  24     3.289670420364   112.67873676   359.35819445
 C     27  26  24     2.639999743703   113.73843331   179.05761317
 C     29  27  26     2.599522489038   112.19379529     0.43650128
 S     26  24  23     3.249523137209   136.25756526   180.31181241
 C     30  29  27     2.717413867434   129.52228956   180.42059382
 C     32  30  29     2.620872561225   120.18069707   192.74282497
 C     33  32  30     2.617507946871   122.39001134   181.56211800
 C     34  33  32     2.620926833950   122.37963738     0.71069241
 C     35  34  33     2.699174282926   117.26296517   358.68003191
 N     36  35  34     2.542399933008   119.84590348   181.59272755
 C     37  36  35     2.467843142786   118.77604037   179.93682989
 C     38  37  36     2.653747984639   121.41590843     0.34792083
 N     39  38  37     2.467758324233   121.41241619   359.02004492
 C     40  39  38     2.542506749486   118.76846585     0.35289137
 C     35  34  33     2.717243915374   120.18240664   178.48005464
 C     42  35  34     2.600309403015   129.33645980   193.52669011
 C     43  42  35     2.639238601027   112.20723777   178.20741635
 C     44  43  42     2.644715584069   113.76655400     0.48408799
 S     45  44  43     3.250021566745   111.30837586   359.56638161
 C     45  44  43     2.639039781482   112.48967456   180.44610133
 C     47  45  44     2.653058597775   112.12237174     0.19896665
 S     48  47  45     3.291011638969   112.75903147   359.89803661
 C     48  47  45     2.627358346526   113.72438423   180.54756304
 C     50  48  47     2.615992898676   112.11726589     0.12735551
 S     47  45  44     3.242496190628   136.39942031   179.81164747
 C     51  50  48     2.669617267411   130.51412362   182.73112154
 C     53  51  50     2.570364104567   130.53032489   342.59581293
 C     54  53  51     2.819374757134   118.42061848   161.60293340
 O     55  54  53     2.289414844535   125.80157518    13.74984326
 C     55  54  53     2.783436854397   105.27463810   195.81043683
 C     57  55  54     2.636306289339   109.39357703   354.69551193
 C     54  53  51     2.730945318794   134.10105895   346.82597263
 C     59  54  53     2.590079222898   126.61675985   329.21666818
 C     60  59  54     2.663498532703   123.42899308   359.63600733
 N     61  60  59     2.168930755259   177.10076991   220.05154058
 C     60  59  54     2.664191516705   124.29923380   184.22149694
 N     63  60  59     2.169498205728   176.48645900   194.09223698
 C     58  57  55     2.646909013610   120.57665312   178.22650665
 C     65  58  57     2.590386223405   118.69742640     0.56413837
 C     66  65  58     2.668398116004   122.12655493     0.52373101
 C     57  55  54     2.661123096713   128.90835361   174.13186892
 C     68  57  55     2.664142615151   123.24480457     1.68163086
 C     69  68  57     2.584188135172   120.13807599   179.58062020
 C     70  69  68     2.653732091575   120.58462694     0.16678211
 C     71  70  69     2.584864179683   120.52225314     0.00000000
 H     12   5   4     2.037149751396   120.71422156   178.90655858
 H     13  12   5     2.041765354415   119.70603613   179.66354671
 H     16  15   4     2.038128496355   118.58854699     0.15402043
 H     17  16  15     2.040290986013   120.12789038   179.91110603
 H     18  17  16     2.040879759009   119.34528713   179.96776997
 H     19  18  17     2.041734528171   120.63730945   179.97180829
 H     20   1   2     2.051851326113   115.72536610    15.98813753
 H     22  21  20     2.030179252297   123.09582049     4.00565182
 H     29  27  26     2.027113913903   125.06867094   180.75728157
 H     33  32  30     2.041502612216   118.97676568     1.50948839
 H     34  33  32     2.041500037343   118.62164901   179.89630491
 H     38  37  36     2.043980630483   116.67672977   180.28880154
 H     39  38  37     2.044176666102   121.90812958   179.20350924
 H     43  42  35     2.027137804200   122.73380825   358.30172124
 H     50  48  47     2.030338396830   123.93593477   182.97965056
 H     53  51  50     2.053462666714   115.18607082   157.98173226
 H     65  58  57     2.036980291633   120.85757856   181.29319978
 H     66  65  58     2.041829522340   119.64524664   180.35054219
 H     69  68  57     2.038167969696   118.59152753   359.72006495
 H     70  69  68     2.040487577282   120.12505652   180.17883342
 H     71  70  69     2.040856753637   119.32026965   179.97913681
 H     72  71  70     2.041779780273   120.64217125   180.04612045

---------------------
BASIS SET INFORMATION
---------------------
There are 5 groups of distinct atoms

 Group   1 Type C   : 7s4p1d contracted to 3s2p1d pattern {511/31/1}
 Group   2 Type O   : 7s4p1d contracted to 3s2p1d pattern {511/31/1}
 Group   3 Type N   : 7s4p1d contracted to 3s2p1d pattern {511/31/1}
 Group   4 Type S   : 10s7p1d contracted to 4s3p1d pattern {5311/511/1}
 Group   5 Type H   : 4s1p contracted to 2s1p pattern {31/1}

Atom   0C    basis set group =>   1
Atom   1C    basis set group =>   1
Atom   2O    basis set group =>   2
Atom   3C    basis set group =>   1
Atom   4C    basis set group =>   1
Atom   5C    basis set group =>   1
Atom   6C    basis set group =>   1
Atom   7C    basis set group =>   1
Atom   8N    basis set group =>   3
Atom   9C    basis set group =>   1
Atom  10N    basis set group =>   3
Atom  11C    basis set group =>   1
Atom  12C    basis set group =>   1
Atom  13C    basis set group =>   1
Atom  14C    basis set group =>   1
Atom  15C    basis set group =>   1
Atom  16C    basis set group =>   1
Atom  17C    basis set group =>   1
Atom  18C    basis set group =>   1
Atom  19C    basis set group =>   1
Atom  20C    basis set group =>   1
Atom  21C    basis set group =>   1
Atom  22C    basis set group =>   1
Atom  23C    basis set group =>   1
Atom  24S    basis set group =>   4
Atom  25C    basis set group =>   1
Atom  26C    basis set group =>   1
Atom  27S    basis set group =>   4
Atom  28C    basis set group =>   1
Atom  29C    basis set group =>   1
Atom  30S    basis set group =>   4
Atom  31C    basis set group =>   1
Atom  32C    basis set group =>   1
Atom  33C    basis set group =>   1
Atom  34C    basis set group =>   1
Atom  35C    basis set group =>   1
Atom  36N    basis set group =>   3
Atom  37C    basis set group =>   1
Atom  38C    basis set group =>   1
Atom  39N    basis set group =>   3
Atom  40C    basis set group =>   1
Atom  41C    basis set group =>   1
Atom  42C    basis set group =>   1
Atom  43C    basis set group =>   1
Atom  44C    basis set group =>   1
Atom  45S    basis set group =>   4
Atom  46C    basis set group =>   1
Atom  47C    basis set group =>   1
Atom  48S    basis set group =>   4
Atom  49C    basis set group =>   1
Atom  50C    basis set group =>   1
Atom  51S    basis set group =>   4
Atom  52C    basis set group =>   1
Atom  53C    basis set group =>   1
Atom  54C    basis set group =>   1
Atom  55O    basis set group =>   2
Atom  56C    basis set group =>   1
Atom  57C    basis set group =>   1
Atom  58C    basis set group =>   1
Atom  59C    basis set group =>   1
Atom  60C    basis set group =>   1
Atom  61N    basis set group =>   3
Atom  62C    basis set group =>   1
Atom  63N    basis set group =>   3
Atom  64C    basis set group =>   1
Atom  65C    basis set group =>   1
Atom  66C    basis set group =>   1
Atom  67C    basis set group =>   1
Atom  68C    basis set group =>   1
Atom  69C    basis set group =>   1
Atom  70C    basis set group =>   1
Atom  71C    basis set group =>   1
Atom  72H    basis set group =>   5
Atom  73H    basis set group =>   5
Atom  74H    basis set group =>   5
Atom  75H    basis set group =>   5
Atom  76H    basis set group =>   5
Atom  77H    basis set group =>   5
Atom  78H    basis set group =>   5
Atom  79H    basis set group =>   5
Atom  80H    basis set group =>   5
Atom  81H    basis set group =>   5
Atom  82H    basis set group =>   5
Atom  83H    basis set group =>   5
Atom  84H    basis set group =>   5
Atom  85H    basis set group =>   5
Atom  86H    basis set group =>   5
Atom  87H    basis set group =>   5
Atom  88H    basis set group =>   5
Atom  89H    basis set group =>   5
Atom  90H    basis set group =>   5
Atom  91H    basis set group =>   5
Atom  92H    basis set group =>   5
Atom  93H    basis set group =>   5
---------------------------------
AUXILIARY/J BASIS SET INFORMATION
---------------------------------
There are 5 groups of distinct atoms

 Group   1 Type C   : 12s5p4d2f1g contracted to 6s4p3d1f1g pattern {711111/2111/211/2/1}
 Group   2 Type O   : 12s5p4d2f1g contracted to 6s4p3d1f1g pattern {711111/2111/211/2/1}
 Group   3 Type N   : 12s5p4d2f1g contracted to 6s4p3d1f1g pattern {711111/2111/211/2/1}
 Group   4 Type S   : 14s5p5d2f1g contracted to 8s4p3d1f1g pattern {71111111/2111/311/2/1}
 Group   5 Type H   : 5s2p1d contracted to 3s1p1d pattern {311/2/1}

Atom   0C    basis set group =>   1
Atom   1C    basis set group =>   1
Atom   2O    basis set group =>   2
Atom   3C    basis set group =>   1
Atom   4C    basis set group =>   1
Atom   5C    basis set group =>   1
Atom   6C    basis set group =>   1
Atom   7C    basis set group =>   1
Atom   8N    basis set group =>   3
Atom   9C    basis set group =>   1
Atom  10N    basis set group =>   3
Atom  11C    basis set group =>   1
Atom  12C    basis set group =>   1
Atom  13C    basis set group =>   1
Atom  14C    basis set group =>   1
Atom  15C    basis set group =>   1
Atom  16C    basis set group =>   1
Atom  17C    basis set group =>   1
Atom  18C    basis set group =>   1
Atom  19C    basis set group =>   1
Atom  20C    basis set group =>   1
Atom  21C    basis set group =>   1
Atom  22C    basis set group =>   1
Atom  23C    basis set group =>   1
Atom  24S    basis set group =>   4
Atom  25C    basis set group =>   1
Atom  26C    basis set group =>   1
Atom  27S    basis set group =>   4
Atom  28C    basis set group =>   1
Atom  29C    basis set group =>   1
Atom  30S    basis set group =>   4
Atom  31C    basis set group =>   1
Atom  32C    basis set group =>   1
Atom  33C    basis set group =>   1
Atom  34C    basis set group =>   1
Atom  35C    basis set group =>   1
Atom  36N    basis set group =>   3
Atom  37C    basis set group =>   1
Atom  38C    basis set group =>   1
Atom  39N    basis set group =>   3
Atom  40C    basis set group =>   1
Atom  41C    basis set group =>   1
Atom  42C    basis set group =>   1
Atom  43C    basis set group =>   1
Atom  44C    basis set group =>   1
Atom  45S    basis set group =>   4
Atom  46C    basis set group =>   1
Atom  47C    basis set group =>   1
Atom  48S    basis set group =>   4
Atom  49C    basis set group =>   1
Atom  50C    basis set group =>   1
Atom  51S    basis set group =>   4
Atom  52C    basis set group =>   1
Atom  53C    basis set group =>   1
Atom  54C    basis set group =>   1
Atom  55O    basis set group =>   2
Atom  56C    basis set group =>   1
Atom  57C    basis set group =>   1
Atom  58C    basis set group =>   1
Atom  59C    basis set group =>   1
Atom  60C    basis set group =>   1
Atom  61N    basis set group =>   3
Atom  62C    basis set group =>   1
Atom  63N    basis set group =>   3
Atom  64C    basis set group =>   1
Atom  65C    basis set group =>   1
Atom  66C    basis set group =>   1
Atom  67C    basis set group =>   1
Atom  68C    basis set group =>   1
Atom  69C    basis set group =>   1
Atom  70C    basis set group =>   1
Atom  71C    basis set group =>   1
Atom  72H    basis set group =>   5
Atom  73H    basis set group =>   5
Atom  74H    basis set group =>   5
Atom  75H    basis set group =>   5
Atom  76H    basis set group =>   5
Atom  77H    basis set group =>   5
Atom  78H    basis set group =>   5
Atom  79H    basis set group =>   5
Atom  80H    basis set group =>   5
Atom  81H    basis set group =>   5
Atom  82H    basis set group =>   5
Atom  83H    basis set group =>   5
Atom  84H    basis set group =>   5
Atom  85H    basis set group =>   5
Atom  86H    basis set group =>   5
Atom  87H    basis set group =>   5
Atom  88H    basis set group =>   5
Atom  89H    basis set group =>   5
Atom  90H    basis set group =>   5
Atom  91H    basis set group =>   5
Atom  92H    basis set group =>   5
Atom  93H    basis set group =>   5


           ************************************************************
           *        Program running with 6 parallel MPI-processes     *
           *              working on a common directory               *
           ************************************************************
------------------------------------------------------------------------------
                           ORCA GTO INTEGRAL CALCULATION
                           -- RI-GTO INTEGRALS CHOSEN --
------------------------------------------------------------------------------

                         BASIS SET STATISTICS AND STARTUP INFO

Gaussian basis set:
 # of primitive gaussian shells          ... 1010
 # of primitive gaussian functions       ... 1954
 # of contracted shells                  ...  510
 # of contracted basis functions         ... 1142
 Highest angular momentum                ...    2
 Maximum contraction depth               ...    5
Auxiliary gaussian basis set:
 # of primitive gaussian shells          ... 1922
 # of primitive gaussian functions       ... 5434
 # of contracted shells                  ... 1202
 # of contracted aux-basis functions     ... 3782
 Highest angular momentum                ...    4
 Maximum contraction depth               ...    7
Ratio of auxiliary to basis functions    ...  3.31
Integral package used                  ... LIBINT
 One Electron integrals                  ... done
 Ordering auxiliary basis shells         ... done
 Integral threshhold             Thresh  ...  2.500e-11
 Primitive cut-off               TCut    ...  2.500e-12
 Pre-screening matrix                    ... done
 Shell pair data                         ... 
 Ordering of the shell pairs             ... done (   0.008 sec) 38222 of 130305 pairs
 Determination of significant pairs      ... done (   0.000 sec)
 Creation of shell pair data             ... done (   0.005 sec)
 Storage of shell pair data              ... done (   0.028 sec)
 Shell pair data done in (   0.042 sec)
 Computing two index integrals           ... done
 Cholesky decomposition of the V-matrix  ... done


Timings:
 Total evaluation time                   ...   2.117 sec (  0.035 min)
 One electron matrix time                ...   0.492 sec (  0.008 min) = 23.2%
 Schwartz matrix evaluation time         ...   0.670 sec (  0.011 min) = 31.7%
 Two index repulsion integral time       ...   0.339 sec (  0.006 min) = 16.0%
 Cholesky decomposition of V             ...   0.558 sec (  0.009 min) = 26.3%
 Three index repulsion integral time     ...   0.000 sec (  0.000 min) =  0.0%



           ************************************************************
           *        Program running with 6 parallel MPI-processes     *
           *              working on a common directory               *
           ************************************************************
-------------------------------------------------------------------------------
                                 ORCA SCF
-------------------------------------------------------------------------------

------------
SCF SETTINGS
------------
Hamiltonian:
 Density Functional     Method          .... DFT(GTOs)
 Exchange Functional    Exchange        .... WB88
 Correlation Functional Correlation     .... LYP
 LDA part of GGA corr.  LDAOpt          .... VWN-5
 Gradients option       PostSCFGGA      .... off
 Hybrid DFT is turned on
   Fraction HF Exchange ScalHFX         ....  0.190000
   Scaling of DF-GGA-X  ScalDFX         ....  0.350000
   Scaling of DF-GGA-C  ScalDFC         ....  0.810000
   Scaling of DF-LDA-C  ScalLDAC        ....  1.000000
   Perturbative correction              ....  0.000000
   Density functional embedding theory  .... OFF
 Long-range corrected/Screened/Range-Separated Hybrid DFT is turned on
   Amount of maximum screened exact exchange              ....  0.460000
   Range separation parameter mu (erf(mu*r12)/r12)        ....  0.330000
 RI-approximation to the Coulomb term is turned on
   Number of auxiliary basis functions  .... 3782
   RIJ-COSX (HFX calculated with COS-X)).... on


General Settings:
 Integral files         IntName         .... 18_15_8_15_18
 Hartree-Fock type      HFTyp           .... RHF
 Total Charge           Charge          ....    0
 Multiplicity           Mult            ....    1
 Number of Electrons    NEL             ....  524
 Basis Dimension        Dim             .... 1142
 Nuclear Repulsion      ENuc            ....  10076.4923550195 Eh

Convergence Acceleration:
 DIIS                   CNVDIIS         .... on
   Start iteration      DIISMaxIt       ....    12
   Startup error        DIISStart       ....  0.200000
   # of expansion vecs  DIISMaxEq       ....     5
   Bias factor          DIISBfac        ....   1.050
   Max. coefficient     DIISMaxC        ....  10.000
 Newton-Raphson         CNVNR           .... off
 SOSCF                  CNVSOSCF        .... on
   Start iteration      SOSCFMaxIt      ....   150
   Startup grad/error   SOSCFStart      ....  0.003300
 Level Shifting         CNVShift        .... on
   Level shift para.    LevelShift      ....    0.2500
   Turn off err/grad.   ShiftErr        ....    0.0010
 Zerner damping         CNVZerner       .... off
 Static damping         CNVDamp         .... on
   Fraction old density DampFac         ....    0.7000
   Max. Damping (<1)    DampMax         ....    0.9800
   Min. Damping (>=0)   DampMin         ....    0.0000
   Turn off err/grad.   DampErr         ....    0.1000
 Fernandez-Rico         CNVRico         .... off

SCF Procedure:
 Maximum # iterations   MaxIter         ....   125
 SCF integral mode      SCFMode         .... Direct
   Integral package                     .... LIBINT
 Reset frequency        DirectResetFreq ....    20
 Integral Threshold     Thresh          ....  2.500e-11 Eh
 Primitive CutOff       TCut            ....  2.500e-12 Eh

Convergence Tolerance:
 Convergence Check Mode ConvCheckMode   .... Total+1el-Energy
 Convergence forced     ConvForced      .... 1
 Energy Change          TolE            ....  1.000e-08 Eh
 1-El. energy change                    ....  1.000e-05 Eh
 Orbital Gradient       TolG            ....  1.000e-05
 Orbital Rotation angle TolX            ....  1.000e-05
 DIIS Error             TolErr          ....  5.000e-07


Diagonalization of the overlap matrix:
Smallest eigenvalue                        ... 1.488e-04
Time for diagonalization                   ...    0.210 sec
Threshold for overlap eigenvalues          ... 1.000e-08
Number of eigenvalues below threshold      ... 0
Time for construction of square roots      ...    0.142 sec
Total time needed                          ...    0.356 sec

-------------------
DFT GRID GENERATION
-------------------

General Integration Accuracy     IntAcc      ...  4.670
Radial Grid Type                 RadialGrid  ... Gauss-Chebyshev
Angular Grid (max. acc.)         AngularGrid ... Lebedev-302
Angular grid pruning method      GridPruning ... 3 (G Style)
Weight generation scheme         WeightScheme... Becke
Basis function cutoff            BFCut       ...    1.0000e-11
Integration weight cutoff        WCut        ...    1.0000e-14
Grids for H and He will be reduced by one unit

# of grid points (after initial pruning)     ... 525736 (   0.0 sec)
# of grid points (after weights+screening)   ... 455451 (   5.7 sec)
nearest neighbour list constructed           ...    0.0 sec
Grid point re-assignment to atoms done       ...    0.1 sec
Grid point division into batches done        ...    1.6 sec
Reduced shell lists constructed in    2.5 sec

Total number of grid points                  ...   455451
Total number of batches                      ...     7168
Average number of points per batch           ...       63
Average number of grid points per atom       ...     4845
Average number of shells per batch           ...    92.30 (18.10%)
Average number of basis functions per batch  ...   198.68 (17.40%)
Average number of large shells per batch     ...    59.58 (64.55%)
Average number of large basis fcns per batch ...   129.01 (64.93%)
Maximum spatial batch extension              ...  22.06, 19.38, 18.41 au
Average spatial batch extension              ...   0.37,  0.33,  0.33 au

Time for grid setup =    8.537 sec

------------------------------
INITIAL GUESS: MODEL POTENTIAL
------------------------------
Loading Hartree-Fock densities                     ... done
Calculating cut-offs                               ... done
Setting up the integral package                    ... done
Initializing the effective Hamiltonian             ... done
Starting the Coulomb interaction                   ... done (   1.1 sec)
Reading the grid                                   ... done
Mapping shells                                     ... done
Starting the XC term evaluation                    ... done (   1.5 sec)
  promolecular density results
     # of electrons  =    523.989438424
     EX              =   -508.332608087
     EC              =    -18.316087463
     EX+EC           =   -526.648695550
Transforming the Hamiltonian                       ... done (   0.1 sec)
Diagonalizing the Hamiltonian                      ... done (   0.2 sec)
Back transforming the eigenvectors                 ... done (   0.1 sec)
Now organizing SCF variables                       ... done
                      ------------------
                      INITIAL GUESS DONE (  11.6 sec)
                      ------------------
--------------------
COSX GRID GENERATION
--------------------

General Integration Accuracy     IntAcc      ...  3.340
Radial Grid Type                 RadialGrid  ... Gauss-Chebyshev
Angular Grid (max. acc.)         AngularGrid ... Lebedev-50
Angular grid pruning method      GridPruning ... 3 (G Style)
Weight generation scheme         WeightScheme... Becke
Basis function cutoff            BFCut       ...    1.0000e-11
Integration weight cutoff        WCut        ...    1.0000e-14
Grids for H and He will be reduced by one unit

# of grid points (after initial pruning)     ...  49472 (   0.0 sec)
# of grid points (after weights+screening)   ...  44677 (   0.5 sec)
nearest neighbour list constructed           ...    0.0 sec
Grid point re-assignment to atoms done       ...    0.0 sec
Grid point division into batches done        ...    0.0 sec
Reduced shell lists constructed in    0.1 sec

Total number of grid points                  ...    44677
Total number of batches                      ...      743
Average number of points per batch           ...       60
Average number of grid points per atom       ...      475
Average number of shells per batch           ...   110.94 (21.75%)
Average number of basis functions per batch  ...   241.88 (21.18%)
Average number of large shells per batch     ...    71.25 (64.22%)
Average number of large basis fcns per batch ...   156.45 (64.68%)
Maximum spatial batch extension              ...  15.43, 18.16, 17.91 au
Average spatial batch extension              ...   0.84,  0.70,  0.65 au

Overlap Fitting                  UseSFitting ... on
Constructing numerical overlap ... done (      0.1 sec)
Inverting numerical overlap    ... done (      0.1 sec)
Obtaining analytic overlap     ... done (      0.0 sec)
Final contraction and storage  ... done (      0.1 sec)


General Integration Accuracy     IntAcc      ...  3.670
Radial Grid Type                 RadialGrid  ... Gauss-Chebyshev
Angular Grid (max. acc.)         AngularGrid ... Lebedev-50
Angular grid pruning method      GridPruning ... 3 (G Style)
Weight generation scheme         WeightScheme... Becke
Basis function cutoff            BFCut       ...    1.0000e-11
Integration weight cutoff        WCut        ...    1.0000e-14
Grids for H and He will be reduced by one unit

# of grid points (after initial pruning)     ...  61456 (   0.0 sec)
# of grid points (after weights+screening)   ...  55310 (   0.7 sec)
nearest neighbour list constructed           ...    0.0 sec
Grid point re-assignment to atoms done       ...    0.0 sec
Grid point division into batches done        ...    0.0 sec
Reduced shell lists constructed in    0.2 sec

Total number of grid points                  ...    55310
Total number of batches                      ...      913
Average number of points per batch           ...       60
Average number of grid points per atom       ...      588
Average number of shells per batch           ...   108.60 (21.29%)
Average number of basis functions per batch  ...   236.26 (20.69%)
Average number of large shells per batch     ...    69.92 (64.38%)
Average number of large basis fcns per batch ...   153.37 (64.92%)
Maximum spatial batch extension              ...  17.88, 18.60, 19.59 au
Average spatial batch extension              ...   0.76,  0.65,  0.60 au

Overlap Fitting                  UseSFitting ... on
Constructing numerical overlap ... done (      0.1 sec)
Inverting numerical overlap    ... done (      0.1 sec)
Obtaining analytic overlap     ... done (      0.0 sec)
Final contraction and storage  ... done (      0.1 sec)


General Integration Accuracy     IntAcc      ...  4.010
Radial Grid Type                 RadialGrid  ... Gauss-Chebyshev
Angular Grid (max. acc.)         AngularGrid ... Lebedev-110
Angular grid pruning method      GridPruning ... 3 (G Style)
Weight generation scheme         WeightScheme... Becke
Basis function cutoff            BFCut       ...    1.0000e-11
Integration weight cutoff        WCut        ...    1.0000e-14
Grids for H and He will be reduced by one unit

# of grid points (after initial pruning)     ... 121284 (   0.0 sec)
# of grid points (after weights+screening)   ... 108020 (   1.3 sec)
nearest neighbour list constructed           ...    0.0 sec
Grid point re-assignment to atoms done       ...    0.0 sec
Grid point division into batches done        ...    0.1 sec
Reduced shell lists constructed in    0.3 sec

Total number of grid points                  ...   108020
Total number of batches                      ...     1734
Average number of points per batch           ...       62
Average number of grid points per atom       ...     1149
Average number of shells per batch           ...   102.68 (20.13%)
Average number of basis functions per batch  ...   222.85 (19.51%)
Average number of large shells per batch     ...    66.78 (65.04%)
Average number of large basis fcns per batch ...   145.90 (65.47%)
Maximum spatial batch extension              ...  19.45, 17.70, 18.08 au
Average spatial batch extension              ...   0.63,  0.53,  0.51 au

Overlap Fitting                  UseSFitting ... on
Constructing numerical overlap ... done (      0.2 sec)
Inverting numerical overlap    ... done (      0.1 sec)
Obtaining analytic overlap     ... done (      0.0 sec)
Final contraction and storage  ... done (      0.1 sec)

Time for X-Grid setup             =    4.068 sec
--------------
SCF ITERATIONS
--------------
ITER       Energy         Delta-E        Max-DP      RMS-DP      [F,P]     Damp
               ***  Starting incremental Fock matrix formation  ***
  0  -5086.0573365411   0.000000000000 0.07774938  0.00100196  0.2187964 0.7000
  1  -5086.6145787124  -0.557242171248 0.04295898  0.00069675  0.0920494 0.7000
                               ***Turning on DIIS***
  2  -5086.8458425212  -0.231263808877 0.07227063  0.00126018  0.0336763 0.0000
  3  -5087.2436672644  -0.397824743204 0.04351015  0.00050558  0.0468196 0.0000
  4  -5087.3092612771  -0.065594012649 0.01654406  0.00015869  0.0221522 0.0000
  5  -5087.3161071136  -0.006845836560 0.00707690  0.00006675  0.0056416 0.0000
                      *** Initiating the SOSCF procedure ***
                           *** Shutting down DIIS ***
                      *** Re-Reading the Fockian *** 
                      *** Removing any level shift *** 
ITER      Energy       Delta-E        Grad      Rot      Max-DP    RMS-DP
  6  -5087.31716830  -0.0010611894  0.003143  0.003143  0.002705  0.000039
               *** Restarting incremental Fock matrix formation ***
  7  -5087.31759890  -0.0004306002  0.002224  0.014057  0.002468  0.000044
  8  -5087.31794987  -0.0003509620  0.000788  0.012346  0.004091  0.000050
  9  -5087.31798098  -0.0000311115  0.000852  0.002368  0.001533  0.000015
 10  -5087.31804374  -0.0000627603  0.000247  0.001594  0.000886  0.000009
 11  -5087.31804382  -0.0000000851  0.000159  0.000643  0.000325  0.000005
 12  -5087.31804948  -0.0000056565  0.000039  0.000249  0.000234  0.000003
 13  -5087.31804959  -0.0000001105  0.000036  0.000101  0.000138  0.000001
 14  -5087.31804995  -0.0000003609  0.000009  0.000073  0.000056  0.000001
 15  -5087.31804998  -0.0000000294  0.000007  0.000029  0.000031  0.000000
                  ***Gradient check signals convergence***
              ***Rediagonalizing the Fockian in SOSCF/NRSCF***

               *****************************************************
               *                     SUCCESS                       *
               *           SCF CONVERGED AFTER  16 CYCLES          *
               *****************************************************

Setting up the final grid:

General Integration Accuracy     IntAcc      ...  5.010
Radial Grid Type                 RadialGrid  ... Gauss-Chebyshev
Angular Grid (max. acc.)         AngularGrid ... Lebedev-434
Angular grid pruning method      GridPruning ... 3 (G Style)
Weight generation scheme         WeightScheme... Becke
Basis function cutoff            BFCut       ...    1.0000e-11
Integration weight cutoff        WCut        ...    1.0000e-14
Grids for H and He will be reduced by one unit

# of grid points (after initial pruning)     ... 923372 (   0.0 sec)
# of grid points (after weights+screening)   ... 797510 (   9.8 sec)
nearest neighbour list constructed           ...    0.0 sec
Grid point re-assignment to atoms done       ...    0.1 sec
Grid point division into batches done        ...    5.2 sec
Reduced shell lists constructed in    6.7 sec

Total number of grid points                  ...   797510
Total number of batches                      ...    12509
Average number of points per batch           ...       63
Average number of grid points per atom       ...     8484
Average number of shells per batch           ...    89.46 (17.54%)
Average number of basis functions per batch  ...   192.00 (16.81%)
Average number of large shells per batch     ...    57.72 (64.53%)
Average number of large basis fcns per batch ...   124.78 (64.99%)
Maximum spatial batch extension              ...  23.72, 18.53, 18.32 au
Average spatial batch extension              ...   0.29,  0.28,  0.27 au

Final grid set up in   17.2 sec
Final integration                            ... done (   3.1 sec)
Change in XC energy                          ...    -0.000037457
Integrated number of electrons               ...   523.999915083
Previous integrated no of electrons          ...   524.000015608
Old exchange energy                            =   -138.935500570 Eh
New exchange energy                            =   -138.932654920 Eh
Exchange energy change after final integration =      0.002845650 Eh
Total energy after final integration           =  -5087.315241813 Eh
Final COS-X integration done in                =    56.294 sec

----------------
TOTAL SCF ENERGY
----------------

Total Energy       :        -5087.31524181 Eh         -138432.88552 eV

Components:
Nuclear Repulsion  :        10076.49235502 Eh          274195.29680 eV
Electronic Energy  :       -15163.80759683 Eh         -412628.18232 eV
One Electron Energy:       -27029.36519216 Eh         -735506.41930 eV
Two Electron Energy:        11865.55759533 Eh          322878.23698 eV

Virial components:
Potential Energy   :       -10144.07008249 Eh         -276034.18025 eV
Kinetic Energy     :         5056.75484068 Eh          137601.29473 eV
Virial Ratio       :            2.00604348


DFT components:
N(Alpha)           :      261.999957541375 electrons
N(Beta)            :      261.999957541375 electrons
N(Total)           :      523.999915082749 electrons
E(XC)              :     -395.435525138567 Eh       
DFET-embed. en.    :        0.000000000000 Eh       

---------------
SCF CONVERGENCE
---------------

  Last Energy change         ...   -2.5708e-08  Tolerance :   1.0000e-08
  Last MAX-Density change    ...    7.9936e-15  Tolerance :   1.0000e-07
  Last RMS-Density change    ...    3.7775e-17  Tolerance :   5.0000e-09
  Last Orbital Gradient      ...    1.5837e-06  Tolerance :   1.0000e-05
  Last Orbital Rotation      ...    1.5695e-05  Tolerance :   1.0000e-05

             **** THE GBW FILE WAS UPDATED (18_15_8_15_18.gbw) ****
             **** DENSITY FILE WAS UPDATED (18_15_8_15_18.scfp) ****
             **** ENERGY FILE WAS UPDATED (18_15_8_15_18.en.tmp) ****
             **** THE GBW FILE WAS UPDATED (18_15_8_15_18.gbw) ****
             **** DENSITY FILE WAS UPDATED (18_15_8_15_18.scfp) ****
----------------
ORBITAL ENERGIES
----------------

  NO   OCC          E(Eh)            E(eV) 
   0   2.0000     -88.968613     -2420.9590 
   1   2.0000     -88.968365     -2420.9523 
   2   2.0000     -88.964475     -2420.8464 
   3   2.0000     -88.964083     -2420.8358 
   4   2.0000     -88.962549     -2420.7940 
   5   2.0000     -88.962070     -2420.7810 
   6   2.0000     -19.214901      -522.8640 
   7   2.0000     -19.214586      -522.8555 
   8   2.0000     -14.434982      -392.7958 
   9   2.0000     -14.434856      -392.7924 
  10   2.0000     -14.413262      -392.2048 
  11   2.0000     -14.412600      -392.1868 
  12   2.0000     -14.412049      -392.1718 
  13   2.0000     -14.408758      -392.0822 
  14   2.0000     -10.366106      -282.0761 
  15   2.0000     -10.364884      -282.0428 
  16   2.0000     -10.341778      -281.4141 
  17   2.0000     -10.341424      -281.4045 
  18   2.0000     -10.339696      -281.3574 
  19   2.0000     -10.338124      -281.3147 
  20   2.0000     -10.330856      -281.1169 
  21   2.0000     -10.330543      -281.1084 
  22   2.0000     -10.329375      -281.0766 
  23   2.0000     -10.329073      -281.0684 
  24   2.0000     -10.318514      -280.7810 
  25   2.0000     -10.317428      -280.7515 
  26   2.0000     -10.316705      -280.7318 
  27   2.0000     -10.316483      -280.7258 
  28   2.0000     -10.316114      -280.7157 
  29   2.0000     -10.315817      -280.7077 
  30   2.0000     -10.315125      -280.6888 
  31   2.0000     -10.315054      -280.6869 
  32   2.0000     -10.313950      -280.6568 
  33   2.0000     -10.313501      -280.6446 
  34   2.0000     -10.312913      -280.6286 
  35   2.0000     -10.310964      -280.5756 
  36   2.0000     -10.310795      -280.5710 
  37   2.0000     -10.310619      -280.5662 
  38   2.0000     -10.309365      -280.5321 
  39   2.0000     -10.308919      -280.5200 
  40   2.0000     -10.307961      -280.4939 
  41   2.0000     -10.307656      -280.4856 
  42   2.0000     -10.306859      -280.4639 
  43   2.0000     -10.306703      -280.4597 
  44   2.0000     -10.305229      -280.4195 
  45   2.0000     -10.305096      -280.4159 
  46   2.0000     -10.300835      -280.3000 
  47   2.0000     -10.300430      -280.2890 
  48   2.0000     -10.294584      -280.1299 
  49   2.0000     -10.294394      -280.1247 
  50   2.0000     -10.294073      -280.1160 
  51   2.0000     -10.293686      -280.1054 
  52   2.0000     -10.293675      -280.1051 
  53   2.0000     -10.293595      -280.1030 
  54   2.0000     -10.293531      -280.1012 
  55   2.0000     -10.293096      -280.0894 
  56   2.0000     -10.292964      -280.0858 
  57   2.0000     -10.292928      -280.0848 
  58   2.0000     -10.292759      -280.0802 
  59   2.0000     -10.292487      -280.0728 
  60   2.0000     -10.289428      -279.9896 
  61   2.0000     -10.289386      -279.9884 
  62   2.0000     -10.281978      -279.7868 
  63   2.0000     -10.281914      -279.7851 
  64   2.0000     -10.281467      -279.7730 
  65   2.0000     -10.281376      -279.7705 
  66   2.0000     -10.281347      -279.7697 
  67   2.0000     -10.281232      -279.7665 
  68   2.0000     -10.279617      -279.7226 
  69   2.0000     -10.279433      -279.7176 
  70   2.0000     -10.275479      -279.6100 
  71   2.0000     -10.275330      -279.6059 
  72   2.0000      -8.063968      -219.4317 
  73   2.0000      -8.063162      -219.4098 
  74   2.0000      -8.059594      -219.3127 
  75   2.0000      -8.059223      -219.3026 
  76   2.0000      -8.057722      -219.2618 
  77   2.0000      -8.057292      -219.2501 
  78   2.0000      -6.033435      -164.1781 
  79   2.0000      -6.032769      -164.1600 
  80   2.0000      -6.029408      -164.0685 
  81   2.0000      -6.029144      -164.0614 
  82   2.0000      -6.028790      -164.0517 
  83   2.0000      -6.028654      -164.0480 
  84   2.0000      -6.027461      -164.0155 
  85   2.0000      -6.027014      -164.0034 
  86   2.0000      -6.025597      -163.9648 
  87   2.0000      -6.025107      -163.9515 
  88   2.0000      -6.024713      -163.9408 
  89   2.0000      -6.024665      -163.9395 
  90   2.0000      -6.023586      -163.9101 
  91   2.0000      -6.023193      -163.8994 
  92   2.0000      -6.021137      -163.8435 
  93   2.0000      -6.020768      -163.8334 
  94   2.0000      -6.018703      -163.7772 
  95   2.0000      -6.018233      -163.7644 
  96   2.0000      -1.129833       -30.7443 
  97   2.0000      -1.129680       -30.7402 
  98   2.0000      -1.092264       -29.7220 
  99   2.0000      -1.025684       -27.9103 
 100   2.0000      -1.025300       -27.8998 
 101   2.0000      -1.016446       -27.6589 
 102   2.0000      -1.015699       -27.6386 
 103   2.0000      -1.014298       -27.6005 
 104   2.0000      -0.996533       -27.1170 
 105   2.0000      -0.995953       -27.1013 
 106   2.0000      -0.992113       -26.9968 
 107   2.0000      -0.990649       -26.9569 
 108   2.0000      -0.987552       -26.8727 
 109   2.0000      -0.983646       -26.7664 
 110   2.0000      -0.967966       -26.3397 
 111   2.0000      -0.966051       -26.2876 
 112   2.0000      -0.963018       -26.2051 
 113   2.0000      -0.937489       -25.5104 
 114   2.0000      -0.928756       -25.2727 
 115   2.0000      -0.919116       -25.0104 
 116   2.0000      -0.917978       -24.9795 
 117   2.0000      -0.900892       -24.5145 
 118   2.0000      -0.900507       -24.5040 
 119   2.0000      -0.886147       -24.1133 
 120   2.0000      -0.885522       -24.0963 
 121   2.0000      -0.885228       -24.0883 
 122   2.0000      -0.870680       -23.6924 
 123   2.0000      -0.865248       -23.5446 
 124   2.0000      -0.859772       -23.3956 
 125   2.0000      -0.852663       -23.2021 
 126   2.0000      -0.847608       -23.0646 
 127   2.0000      -0.840719       -22.8771 
 128   2.0000      -0.838592       -22.8193 
 129   2.0000      -0.835494       -22.7349 
 130   2.0000      -0.833851       -22.6902 
 131   2.0000      -0.805591       -21.9212 
 132   2.0000      -0.798053       -21.7161 
 133   2.0000      -0.793098       -21.5813 
 134   2.0000      -0.788261       -21.4497 
 135   2.0000      -0.776865       -21.1396 
 136   2.0000      -0.770527       -20.9671 
 137   2.0000      -0.768863       -20.9218 
 138   2.0000      -0.761587       -20.7238 
 139   2.0000      -0.755657       -20.5625 
 140   2.0000      -0.749298       -20.3894 
 141   2.0000      -0.728779       -19.8311 
 142   2.0000      -0.712045       -19.3757 
 143   2.0000      -0.711652       -19.3650 
 144   2.0000      -0.710405       -19.3311 
 145   2.0000      -0.705190       -19.1892 
 146   2.0000      -0.699796       -19.0424 
 147   2.0000      -0.687177       -18.6990 
 148   2.0000      -0.674841       -18.3634 
 149   2.0000      -0.673531       -18.3277 
 150   2.0000      -0.665566       -18.1110 
 151   2.0000      -0.661689       -18.0055 
 152   2.0000      -0.656128       -17.8542 
 153   2.0000      -0.655584       -17.8393 
 154   2.0000      -0.645058       -17.5529 
 155   2.0000      -0.643197       -17.5023 
 156   2.0000      -0.636517       -17.3205 
 157   2.0000      -0.630408       -17.1543 
 158   2.0000      -0.628385       -17.0992 
 159   2.0000      -0.626827       -17.0568 
 160   2.0000      -0.626297       -17.0424 
 161   2.0000      -0.624175       -16.9847 
 162   2.0000      -0.607345       -16.5267 
 163   2.0000      -0.604672       -16.4540 
 164   2.0000      -0.593171       -16.1410 
 165   2.0000      -0.592501       -16.1228 
 166   2.0000      -0.586568       -15.9613 
 167   2.0000      -0.586040       -15.9470 
 168   2.0000      -0.585538       -15.9333 
 169   2.0000      -0.576707       -15.6930 
 170   2.0000      -0.571603       -15.5541 
 171   2.0000      -0.568893       -15.4804 
 172   2.0000      -0.567760       -15.4495 
 173   2.0000      -0.557242       -15.1633 
 174   2.0000      -0.554247       -15.0818 
 175   2.0000      -0.545647       -14.8478 
 176   2.0000      -0.545339       -14.8394 
 177   2.0000      -0.543415       -14.7871 
 178   2.0000      -0.539482       -14.6801 
 179   2.0000      -0.534384       -14.5413 
 180   2.0000      -0.533566       -14.5191 
 181   2.0000      -0.533022       -14.5043 
 182   2.0000      -0.531237       -14.4557 
 183   2.0000      -0.525106       -14.2889 
 184   2.0000      -0.524512       -14.2727 
 185   2.0000      -0.523708       -14.2508 
 186   2.0000      -0.521069       -14.1790 
 187   2.0000      -0.519981       -14.1494 
 188   2.0000      -0.514762       -14.0074 
 189   2.0000      -0.513161       -13.9638 
 190   2.0000      -0.509608       -13.8671 
 191   2.0000      -0.507226       -13.8023 
 192   2.0000      -0.503983       -13.7141 
 193   2.0000      -0.503683       -13.7059 
 194   2.0000      -0.499956       -13.6045 
 195   2.0000      -0.497714       -13.5435 
 196   2.0000      -0.496913       -13.5217 
 197   2.0000      -0.494289       -13.4503 
 198   2.0000      -0.488013       -13.2795 
 199   2.0000      -0.487282       -13.2596 
 200   2.0000      -0.482311       -13.1243 
 201   2.0000      -0.481944       -13.1144 
 202   2.0000      -0.479795       -13.0559 
 203   2.0000      -0.477450       -12.9921 
 204   2.0000      -0.473893       -12.8953 
 205   2.0000      -0.473032       -12.8719 
 206   2.0000      -0.469292       -12.7701 
 207   2.0000      -0.468586       -12.7509 
 208   2.0000      -0.467320       -12.7164 
 209   2.0000      -0.464669       -12.6443 
 210   2.0000      -0.460075       -12.5193 
 211   2.0000      -0.456399       -12.4192 
 212   2.0000      -0.453483       -12.3399 
 213   2.0000      -0.448671       -12.2090 
 214   2.0000      -0.447478       -12.1765 
 215   2.0000      -0.445916       -12.1340 
 216   2.0000      -0.444416       -12.0932 
 217   2.0000      -0.442153       -12.0316 
 218   2.0000      -0.438736       -11.9386 
 219   2.0000      -0.437671       -11.9096 
 220   2.0000      -0.436512       -11.8781 
 221   2.0000      -0.435885       -11.8610 
 222   2.0000      -0.431289       -11.7360 
 223   2.0000      -0.430810       -11.7229 
 224   2.0000      -0.428188       -11.6516 
 225   2.0000      -0.428012       -11.6468 
 226   2.0000      -0.426206       -11.5977 
 227   2.0000      -0.424698       -11.5566 
 228   2.0000      -0.423671       -11.5287 
 229   2.0000      -0.421047       -11.4573 
 230   2.0000      -0.419902       -11.4261 
 231   2.0000      -0.418992       -11.4014 
 232   2.0000      -0.414249       -11.2723 
 233   2.0000      -0.413684       -11.2569 
 234   2.0000      -0.412620       -11.2280 
 235   2.0000      -0.411551       -11.1989 
 236   2.0000      -0.403898       -10.9906 
 237   2.0000      -0.399673       -10.8757 
 238   2.0000      -0.393772       -10.7151 
 239   2.0000      -0.390923       -10.6376 
 240   2.0000      -0.389176       -10.5900 
 241   2.0000      -0.378016       -10.2863 
 242   2.0000      -0.375319       -10.2129 
 243   2.0000      -0.368150       -10.0179 
 244   2.0000      -0.361255        -9.8302 
 245   2.0000      -0.352060        -9.5800 
 246   2.0000      -0.343750        -9.3539 
 247   2.0000      -0.337992        -9.1972 
 248   2.0000      -0.336976        -9.1696 
 249   2.0000      -0.335333        -9.1249 
 250   2.0000      -0.332703        -9.0533 
 251   2.0000      -0.329204        -8.9581 
 252   2.0000      -0.328938        -8.9509 
 253   2.0000      -0.317263        -8.6332 
 254   2.0000      -0.312460        -8.5025 
 255   2.0000      -0.302025        -8.2185 
 256   2.0000      -0.292163        -7.9502 
 257   2.0000      -0.291375        -7.9287 
 258   2.0000      -0.287286        -7.8174 
 259   2.0000      -0.286507        -7.7962 
 260   2.0000      -0.265819        -7.2333 
 261   2.0000      -0.242126        -6.5886 
 262   0.0000      -0.092235        -2.5098 
 263   0.0000      -0.083973        -2.2850 
 264   0.0000      -0.072698        -1.9782 
 265   0.0000      -0.066635        -1.8132 
 266   0.0000      -0.058432        -1.5900 
 267   0.0000      -0.018842        -0.5127 
 268   0.0000      -0.014785        -0.4023 
 269   0.0000      -0.007138        -0.1942 
 270   0.0000       0.003303         0.0899 
 271   0.0000       0.011478         0.3123 
 272   0.0000       0.021180         0.5763 
 273   0.0000       0.021867         0.5950 
 274   0.0000       0.036249         0.9864 
 275   0.0000       0.044464         1.2099 
 276   0.0000       0.047760         1.2996 
 277   0.0000       0.048591         1.3222 
 278   0.0000       0.053148         1.4462 
 279   0.0000       0.057129         1.5546 
 280   0.0000       0.062521         1.7013 
 281   0.0000       0.064551         1.7565 
 282   0.0000       0.066385         1.8064 
 283   0.0000       0.072125         1.9626 
 284   0.0000       0.081556         2.2193 
 285   0.0000       0.085984         2.3397 
 286   0.0000       0.088733         2.4146 
 287   0.0000       0.091334         2.4853 
 288   0.0000       0.094117         2.5610 
 289   0.0000       0.098269         2.6740 
 290   0.0000       0.101157         2.7526 
 291   0.0000       0.101652         2.7661 
 292   0.0000       0.101769         2.7693 
 293   0.0000       0.104253         2.8369 
 294   0.0000       0.105765         2.8780 
 295   0.0000       0.111665         3.0386 
 296   0.0000       0.112997         3.0748 
 297   0.0000       0.117767         3.2046 
 298   0.0000       0.119419         3.2496 
 299   0.0000       0.121176         3.2974 
 300   0.0000       0.121778         3.3138 
 301   0.0000       0.122836         3.3425 
 302   0.0000       0.125075         3.4035 
 303   0.0000       0.129361         3.5201 
 304   0.0000       0.130679         3.5560 
 305   0.0000       0.132750         3.6123 
 306   0.0000       0.137558         3.7431 
 307   0.0000       0.141347         3.8462 
 308   0.0000       0.143360         3.9010 
 309   0.0000       0.149993         4.0815 
 310   0.0000       0.152476         4.1491 
 311   0.0000       0.152913         4.1610 
 312   0.0000       0.154245         4.1972 
 313   0.0000       0.163064         4.4372 
 314   0.0000       0.164932         4.4880 
 315   0.0000       0.168091         4.5740 
 316   0.0000       0.169276         4.6062 
 317   0.0000       0.173446         4.7197 
 318   0.0000       0.173856         4.7309 
 319   0.0000       0.178479         4.8567 
 320   0.0000       0.179746         4.8911 
 321   0.0000       0.182414         4.9637 
 322   0.0000       0.184023         5.0075 
 323   0.0000       0.189397         5.1538 
 324   0.0000       0.197825         5.3831 
[...]
  24      4.60     269.5    87 ->  95      gap,J,K:    6.227     1.690     0.031

average / max PT2 energy lowering (eV):       0.038       0.064

CSF included by PT:                   246 
total number of CSF included:         285 
 
sTD-DFT procedure...
setting up A+B and A-B matrices...  done
estimated time (min):    0.001
calculating (A-B)^0.5 ... done
calculating (A+B)*(A-B)^0.5 ... done
calculating (A-B)^0.5 *(A+B)*(A-B)^0.5 ... done
diagonalizing ...using LAPACKE_ssyevr ...done

   43 roots found, lowest/highest eigenvalue :     2.193     4.946

excitation energies, transition moments and amplitudes

molecular weight: 1027.214
state   eV        nm        fL         fV        Rl        RV
   0   2.193     565.2   2.153338   2.400616  527.525892  554.486967     0.82 (  90->  91)    0.14 (  89->  92)    0.01 (  90->  95)
   1   2.468     502.4   0.216364   0.241674  -395.254193  -416.536370     0.62 (  90->  92)    0.26 (  89->  91)    0.06 (  89->  93)
   2   2.753     450.4   0.234692   0.254020  -204.942958  -206.850305     0.62 (  90->  93)    0.15 (  89->  92)    0.08 (  90->  95)
   3   3.055     405.8   0.171773   0.169944  -207.454260  -203.011732     0.52 (  90->  94)    0.23 (  89->  93)    0.08 (  89->  91)
   4   3.128     396.4   0.216658   0.191350  152.979712  145.377062     0.61 (  90->  95)    0.18 (  89->  94)    0.03 (  90->  96)
   5   3.191     388.5   0.032383   0.026686  18.838303  15.053189     0.31 (  89->  91)    0.17 (  90->  92)    0.12 (  88->  91)
   6   3.258     380.6   0.085783   0.076152  93.768198  88.397512     0.38 (  88->  91)    0.18 (  89->  91)    0.13 (  88->  92)
   7   3.305     375.2   0.122025   0.103118  40.501078  14.529072     0.59 (  87->  91)    0.25 (  87->  92)    0.07 (  88->  92)
   8   3.437     360.7   0.198338   0.191057  -259.220367  -248.551097     0.24 (  86->  91)    0.23 (  85->  92)    0.14 (  85->  91)
   9   3.461     358.2   0.160973   0.159223  202.322460  222.424019     0.25 (  86->  92)    0.24 (  85->  91)    0.14 (  86->  91)
  10   3.600     344.4   0.105257   0.098912  -72.031831  -46.759043     0.41 (  89->  92)    0.18 (  84->  91)    0.11 (  90->  91)
  11   3.736     331.9   0.011639   0.010789  90.748038  98.424877     0.14 (  89->  93)    0.10 (  84->  92)    0.10 (  86->  94)
  12   3.757     330.0   0.004499   0.004017  34.871308  31.984477     0.35 (  80->  91)    0.22 (  80->  95)    0.14 (  80->  93)
  13   3.786     327.5   0.062955   0.049210  -243.089609  -214.852254     0.15 (  85->  94)    0.11 (  86->  93)    0.07 (  83->  92)
  14   3.812     325.2   0.066767   0.060319  182.832747  162.172076     0.11 (  86->  93)    0.09 (  87->  93)    0.08 (  86->  94)
  15   3.817     324.9   0.080278   0.075753  -82.316577  -73.981729     0.16 (  79->  93)    0.07 (  79->  94)    0.06 (  76->  94)
  16   3.835     323.3   0.042619   0.040747  -83.613071  -87.752815     0.16 (  79->  94)    0.07 (  79->  93)    0.06 (  81->  94)
  17   3.856     321.5   0.019099   0.017223  -76.980672  -82.702301     0.21 (  87->  93)    0.14 (  87->  92)    0.09 (  88->  93)
  18   3.878     319.7   0.012936   0.010938  123.900432  122.905098     0.16 (  89->  93)    0.12 (  89->  95)    0.09 (  88->  93)
  19   3.954     313.6   0.290994   0.253585  -485.373014  -457.729710     0.12 (  83->  92)    0.09 (  84->  91)    0.08 (  85->  94)
  20   3.977     311.7   0.120808   0.109381  747.655447  713.068770     0.16 (  83->  91)    0.12 (  86->  94)    0.10 (  82->  92)
  21   4.062     305.2   0.069722   0.064389  -182.891114  -183.551084     0.15 (  90->  96)    0.13 (  84->  91)    0.11 (  89->  94)
  22   4.083     303.6   0.002783   0.002499  -6.416775  -4.055316     0.68 (  90->  98)    0.08 (  75->  91)    0.04 (  75->  95)
  23   4.096     302.7   0.572535   0.484320  -478.403220  -424.317635     0.19 (  90->  96)    0.11 (  81->  92)    0.07 (  79->  91)
  24   4.114     301.4   0.433716   0.376068  448.859622  417.918538     0.16 (  79->  92)    0.11 (  82->  92)    0.10 (  81->  91)
  25   4.125     300.6   0.032526   0.028352  53.812052  63.675614     0.20 (  88->  94)    0.09 (  79->  91)    0.07 (  88->  95)
  26   4.168     297.5   0.131468   0.109883  -169.035242  -147.309179     0.21 (  87->  94)    0.15 (  87->  95)    0.08 (  87->  93)
  27   4.226     293.4   0.032150   0.031315  -373.480479  -364.395575     0.13 (  87->  94)    0.10 (  89->  94)    0.09 (  84->  93)
  28   4.263     290.8   0.114829   0.097830  398.078278  361.412936     0.25 (  89->  95)    0.11 (  88->  94)    0.10 (  90->  94)
  29   4.313     287.5   0.306250   0.277502  -278.491582  -263.444101     0.25 (  90->  96)    0.12 (  84->  91)    0.09 (  89->  94)
  30   4.363     284.2   0.195573   0.167738  589.522665  548.703206     0.19 (  82->  94)    0.12 (  83->  93)    0.11 (  83->  91)
  31   4.407     281.3   0.048506   0.041875  -272.629777  -250.306487     0.22 (  83->  94)    0.15 (  82->  91)    0.11 (  82->  93)
  32   4.456     278.2   0.030970   0.026394  148.374385  136.424065     0.30 (  84->  92)    0.13 (  82->  92)    0.11 (  89->  93)
  33   4.566     271.5   0.035282   0.029419  -98.740348  -88.616578     0.55 (  90->  97)    0.13 (  89->  96)    0.03 (  90-> 100)
  34   4.596     269.8   0.006592   0.005605  -8.231867  -6.089091     0.21 (  78->  91)    0.19 (  88->  92)    0.11 (  78->  92)
  35   4.609     269.0   0.012090   0.010653   2.472035   3.708202     0.36 (  87->  92)    0.10 (  87->  95)    0.10 (  87->  91)
  36   4.668     265.6   0.009577   0.006929  36.849892  32.561747     0.18 (  88->  92)    0.12 (  88->  91)    0.10 (  88->  93)
  37   4.685     264.7   0.043079   0.036065  -150.855813  -135.260112     0.21 (  84->  93)    0.10 (  86->  91)    0.08 (  85->  91)
  38   4.714     263.0   0.002485   0.001837  16.122498  13.559262     0.29 (  77->  91)    0.16 (  77->  92)    0.08 (  78->  91)
  39   4.727     262.3   0.111976   0.095611  84.417197  80.393619     0.14 (  84->  93)    0.10 (  85->  91)    0.05 (  86->  92)
  40   4.774     259.7   0.061037   0.054413  22.942760  27.750485     0.23 (  86->  91)    0.16 (  85->  91)    0.13 (  85->  92)
  41   4.880     254.1   0.016956   0.015150  31.568304  27.178041     0.13 (  81->  91)    0.07 (  83->  91)    0.06 (  81->  93)
  42   4.946     250.7   0.207413   0.173291  303.970768  273.667887     0.23 (  84->  94)    0.07 (  83->  91)    0.05 (  84->  92)

-----------------------------------------------------------------------------
         ABSORPTION SPECTRUM VIA TRANSITION ELECTRIC DIPOLE MOMENTS
-----------------------------------------------------------------------------
State   Energy  Wavelength   fosc         T2         TX        TY        TZ  
        (cm-1)    (nm)                  (au**2)     (au)      (au)      (au) 
-----------------------------------------------------------------------------
   0   17691.5    565.2   2.153337839  40.07039   4.84918  -1.29621  -3.85690
   1   19904.0    502.4   0.216363672   3.57864   1.10535   1.53431  -0.05234
   2   22203.1    450.4   0.234691626   3.47984   1.28622   0.70719  -1.15125
   3   24640.5    405.8   0.171772922   2.29499  -0.86334  -1.22760  -0.20645
   4   25228.7    396.4   0.216658168   2.82720   1.29986  -0.59772  -0.88335
   5   25737.0    388.5   0.032383494   0.41423  -0.06875   0.37474   0.51872
   6   26275.2    380.6   0.085782570   1.07480  -0.38585  -0.85116  -0.44883
   7   26652.6    375.2   0.122024876   1.50724   0.03528   0.74746   0.97330
   8   27724.2    360.7   0.198337751   2.35517   0.33223  -0.38683  -1.44746
   9   27914.6    358.2   0.160972951   1.89844   0.87967   0.99876  -0.35649
  10   29033.7    344.4   0.105257162   1.19351  -0.00826  -1.04341   0.32364
  11   30129.7    331.9   0.011638916   0.12717  -0.06220  -0.35098   0.01093
  12   30301.7    330.0   0.004498699   0.04888  -0.14196   0.12844  -0.11058
  13   30533.0    327.5   0.062954682   0.67879  -0.38762  -0.72457  -0.05948
  14   30746.8    325.2   0.066766994   0.71489  -0.04237   0.55504   0.63641
  15   30782.7    324.9   0.080278073   0.85855  -0.54735  -0.53051   0.52679
  16   30931.1    323.3   0.042619316   0.45361  -0.06916  -0.15906  -0.65079
  17   31100.7    321.5   0.019098664   0.20217  -0.21802  -0.39300  -0.01369
  18   31279.7    319.7   0.012935760   0.13615  -0.01453  -0.08773  -0.35810
  19   31889.1    313.6   0.290994364   3.00413  -0.77847  -0.77443   1.34103
  20   32079.9    311.7   0.120807985   1.23976   0.44447   0.82957   0.59500
  21   32764.9    305.2   0.069722068   0.70055  -0.27316   0.09133  -0.78587
  22   32933.4    303.6   0.002783173   0.02782  -0.09966   0.11081  -0.07490
  23   33034.2    302.7   0.572534939   5.70576   0.86037  -0.82580  -2.06968
  24   33183.0    301.4   0.433715941   4.30294   1.29253   1.32957  -0.92980
  25   33269.3    300.6   0.032526228   0.32186  -0.28548   0.34625   0.34710
  26   33615.8    297.5   0.131468266   1.28752   0.77742   0.31412  -0.76450
  27   34083.9    293.4   0.032149866   0.31053   0.12404   0.08510  -0.53657
  28   34382.6    290.8   0.114829396   1.09949  -0.48732  -0.71576  -0.59135
  29   34787.2    287.5   0.306250345   2.89823   1.25274   0.71035  -0.90790
  30   35186.6    284.2   0.195573262   1.82982  -0.60965  -1.05333  -0.59047
  31   35543.4    281.3   0.048505642   0.44927  -0.02318  -0.30340   0.59723
  32   35944.0    278.2   0.030969937   0.28365  -0.25821  -0.20553   0.41802
  33   36826.2    271.5   0.035281815   0.31541  -0.09529  -0.38719  -0.39548
  34   37067.6    269.8   0.006592163   0.05855  -0.08619  -0.00015   0.22610
  35   37176.9    269.0   0.012089713   0.10706  -0.19201   0.03730   0.26229
  36   37646.2    265.6   0.009577415   0.08375  -0.12354  -0.26164   0.00587
  37   37783.8    264.7   0.043078956   0.37535   0.17150  -0.14774   0.56931
  38   38019.5    263.0   0.002485010   0.02152   0.09928   0.06305  -0.08767
  39   38125.4    262.3   0.111976102   0.96691   0.02974   0.86303   0.47033
  40   38506.5    259.7   0.061036874   0.52184  -0.48070  -0.34824   0.41170
  41   39355.9    254.1   0.016955680   0.14183  -0.02217   0.02184   0.37532
  42   39892.9    250.7   0.207412611   1.71165  -0.47170  -0.93146  -0.78837

-----------------------------------------------------------------------------
         ABSORPTION SPECTRUM VIA TRANSITION VELOCITY DIPOLE MOMENTS
-----------------------------------------------------------------------------
State   Energy  Wavelength   fosc         P2         PX        PY        PZ  
        (cm-1)    (nm)                  (au**2)     (au)      (au)      (au) 
-----------------------------------------------------------------------------
   0   17691.5    565.2   2.400615815   0.29026   0.41225  -0.11285  -0.32800
   1   19904.0    502.4   0.241673560   0.03288   0.10601   0.14691  -0.00736
   2   22203.1    450.4   0.254020306   0.03855   0.13548   0.07896  -0.11814
   3   24640.5    405.8   0.169943781   0.02862  -0.09627  -0.13688  -0.02480
   4   25228.7    396.4   0.191350345   0.03299   0.13865  -0.06933  -0.09468
   5   25737.0    388.5   0.026686417   0.00469  -0.01122   0.03709   0.05650
   6   26275.2    380.6   0.076152251   0.01368  -0.04159  -0.09539  -0.05336
   7   26652.6    375.2   0.103118051   0.01878   0.00120   0.08493   0.10756
   8   27724.2    360.7   0.191057253   0.03620   0.04038  -0.04634  -0.18007
   9   27914.6    358.2   0.159223328   0.03038   0.11047   0.12827  -0.04147
  10   29033.7    344.4   0.098912390   0.01963   0.00518  -0.13566   0.03461
  11   30129.7    331.9   0.010789141   0.00222  -0.00542  -0.04658  -0.00474
  12   30301.7    330.0   0.004016948   0.00083  -0.01729   0.01650  -0.01614
  13   30533.0    327.5   0.049209618   0.01027  -0.04499  -0.09062  -0.00567
  14   30746.8    325.2   0.060318752   0.01268  -0.00732   0.07394   0.08459
  15   30782.7    324.9   0.075752668   0.01594  -0.07400  -0.07414   0.07046
  16   30931.1    323.3   0.040747485   0.00861  -0.00632  -0.01657  -0.09110
  17   31100.7    321.5   0.017222525   0.00366  -0.02761  -0.05383  -0.00028
  18   31279.7    319.7   0.010937704   0.00234  -0.00295  -0.00991  -0.04724
  19   31889.1    313.6   0.253585238   0.05527  -0.10607  -0.10336   0.18257
  20   32079.9    311.7   0.109381263   0.02398   0.06218   0.11532   0.08257
  21   32764.9    305.2   0.064389056   0.01442  -0.03699   0.01063  -0.11374
  22   32933.4    303.6   0.002498879   0.00056  -0.01125   0.01864  -0.00942
  23   33034.2    302.7   0.484320067   0.10935   0.11733  -0.11296  -0.28778
  24   33183.0    301.4   0.376068415   0.08529   0.18114   0.18815  -0.13068
  25   33269.3    300.6   0.028352400   0.00645  -0.03708   0.05147   0.04922
  26   33615.8    297.5   0.109882809   0.02525   0.10992   0.04653  -0.10487
  27   34083.9    293.4   0.031315474   0.00729   0.02037   0.01245  -0.08200
  28   34382.6    290.8   0.097830381   0.02299  -0.07127  -0.10455  -0.08354
  29   34787.2    287.5   0.277502407   0.06598   0.18974   0.10575  -0.13708
  30   35186.6    284.2   0.167738180   0.04034  -0.08869  -0.15583  -0.09050
  31   35543.4    281.3   0.041874753   0.01017  -0.00336  -0.04688   0.08924
  32   35944.0    278.2   0.026394480   0.00648  -0.03922  -0.03203   0.06261
  33   36826.2    271.5   0.029419015   0.00740  -0.01336  -0.05875  -0.06144
  34   37067.6    269.8   0.005605380   0.00142  -0.01287  -0.00267   0.03532
  35   37176.9    269.0   0.010652539   0.00271  -0.02970   0.00591   0.04230
  36   37646.2    265.6   0.006928547   0.00178  -0.01574  -0.03918  -0.00018
  37   37783.8    264.7   0.036065477   0.00931   0.02911  -0.02300   0.08909
  38   38019.5    263.0   0.001837052   0.00048   0.01647   0.00954  -0.01073
  39   38125.4    262.3   0.095610787   0.02491   0.00235   0.13730   0.07782
  40   38506.5    259.7   0.054412748   0.01432  -0.07954  -0.05947   0.06675
  41   39355.9    254.1   0.015150243   0.00408  -0.00259   0.00523   0.06357
  42   39892.9    250.7   0.173290579   0.04725  -0.07720  -0.15493  -0.13147

-------------------------------------------------------------------
                             CD SPECTRUM
-------------------------------------------------------------------
State   Energy Wavelength       R         MX        MY        MZ   
        (cm-1)   (nm)       (1e40*cgs)   (au)      (au)      (au)  
-------------------------------------------------------------------
   0   17691.5    565.2    527.52589   1.99567  -0.37120   3.21409
   1   19904.0    502.4    -395.25419  -0.02863   1.11771   0.12414
   2   22203.1    450.4    -204.94296  -0.07664  -0.02776  -0.85789
   3   24640.5    405.8    -207.45426   0.70763  -1.35020   0.80652
   4   25228.7    396.4    152.97971   0.42053   0.20055   1.21780
   5   25737.0    388.5     18.83830  -0.66632   0.34014  -0.48811
   6   26275.2    380.6     93.76820   1.28223  -0.53261   0.79403
   7   26652.6    375.2     40.50108  -2.10725   2.49090  -2.01308
   8   27724.2    360.7    -259.22037   1.92474  -0.99065  -0.05320
   9   27914.6    358.2    202.32246  -3.31971   0.56541  -4.19992
  10   29033.7    344.4    -72.03183   0.82004   0.47374   2.49243
  11   30129.7    331.9     90.74804   0.72484   1.01010   1.33883
  12   30301.7    330.0     34.87131   0.15996  -1.03043  -0.06438
  13   30533.0    327.5    -243.08961  -0.63864  -1.08386   0.02736
  14   30746.8    325.2    182.83275  -3.73066   2.51528  -3.66079
  15   30782.7    324.9    -82.31658   0.87944   0.62213   2.20319
  16   30931.1    323.3    -83.61307   1.20119  -0.21531  -0.62008
  17   31100.7    321.5    -76.98067   1.02935  -1.46041   1.67634
  18   31279.7    319.7    123.90043   1.90680  -1.80214   1.83196
  19   31889.1    313.6    -485.37301  -1.09616   0.82548   1.37583
  20   32079.9    311.7    747.65545  -5.08905   2.54656  -5.07959
  21   32764.9    305.2    -182.89111   1.23881  -0.30707  -1.45358
  22   32933.4    303.6     -6.41678  -0.03917  -0.16803  -0.55990
  23   33034.2    302.7    -478.40322   3.04643  -2.27644   1.19411
  24   33183.0    301.4    448.85962  -3.10096  -1.62018  -4.57954
  25   33269.3    300.6     53.81205  -2.67276   0.21486  -3.07033
  26   33615.8    297.5    -169.03524  -1.16485   0.33769  -1.98378
  27   34083.9    293.4    -373.48048  -1.17208   0.77336  -3.10118
  28   34382.6    290.8    398.07828   3.22746  -1.81450   2.39232
  29   34787.2    287.5    -278.49158  -0.25357   0.72289  -1.08558
  30   35186.6    284.2    589.52266   4.22054  -1.76690   3.02980
  31   35543.4    281.3    -272.62978   0.07448   0.55255   2.22017
  32   35944.0    278.2    148.37438  -2.43223   1.46428  -2.28819
  33   36826.2    271.5    -98.74035   0.60874  -2.04766   0.79889
  34   37067.6    269.8     -8.23187  -0.31753   0.34076   0.03365
  35   37176.9    269.0      2.47204  -0.72893   0.48510  -0.64259
  36   37646.2    265.6     36.84989  -0.29227   0.72455  -0.48725
  37   37783.8    264.7    -150.85581  -0.62876   0.51818   1.44802
  38   38019.5    263.0     16.12250   0.00954  -0.89635   0.14638
  39   38125.4    262.3     84.41720  -2.65432   1.24013  -2.86914
  40   38506.5    259.7     22.94276   1.51244   0.81624   2.21991
  41   39355.9    254.1     31.56830  -0.90492   2.01039  -0.52727
  42   39892.9    250.7    303.97077   3.47535  -2.68591   2.72972

sTD-DFT done

Total run time:        3.400 sec

           *** ORCA-CIS/TD-DFT FINISHED WITHOUT ERROR ***

-------------------------   --------------------
FINAL SINGLE POINT ENERGY     -5087.315241812865
-------------------------   --------------------


                            ***************************************
                            *     ORCA property calculations      *
                            ***************************************

                                    ---------------------
                                    Active property flags
                                    ---------------------
   (+) Dipole Moment


------------------------------------------------------------------------------
                       ORCA ELECTRIC PROPERTIES CALCULATION
------------------------------------------------------------------------------

Dipole Moment Calculation                       ... on
Quadrupole Moment Calculation                   ... off
Polarizability Calculation                      ... off
GBWName                                         ... 18_15_8_15_18.gbw
Electron density file                           ... 18_15_8_15_18.scfp
The origin for moment calculation is the CENTER OF MASS  = (21.493826,  9.115671 -12.811050)

-------------
DIPOLE MOMENT
-------------
                                X             Y             Z
Electronic contribution:    -12.66339     -18.81207      -1.15425
Nuclear contribution   :     12.98924      19.44427       1.43787
                        -----------------------------------------
Total Dipole Moment    :      0.32585       0.63220       0.28362
                        -----------------------------------------
Magnitude (a.u.)       :      0.76569
Magnitude (Debye)      :      1.94624



--------------------
Rotational spectrum 
--------------------
 
Rotational constants in cm-1:     0.001824     0.000178     0.000165 
Rotational constants in MHz :    54.686858     5.335114     4.956106 

 Dipole components along the rotational axes: 
x,y,z [a.u.] :    -0.029713    -0.761190    -0.077419 
x,y,z [Debye]:    -0.075524    -1.934792    -0.196784 

 

Timings for individual modules:

Sum of individual times         ...      574.130 sec (=   9.569 min)
GTO integral calculation        ...        2.842 sec (=   0.047 min)   0.5 %
SCF iterations                  ...      566.375 sec (=   9.440 min)  98.6 %
CIS module                      ...        4.914 sec (=   0.082 min)   0.9 %
                             ****ORCA TERMINATED NORMALLY****
TOTAL RUN TIME: 0 days 0 hours 9 minutes 35 seconds 122 msec
