      -----------------------------------------------------------      
     |                   =====================                   |     
     |                           x T B                           |     
     |                   =====================                   |     
     |                         S. Grimme                         |     
     |          Mulliken Center for Theoretical Chemistry        |     
     |                    University of Bonn                     |     
     |                Version 6.2 RC2 (SAW190805)                |     
      -----------------------------------------------------------      

   This program is distributed in the hope that it will be useful,
   but WITHOUT ANY WARRANTY; without even the implied warranty of
   MERCHANTABILITY or FITNESS FOR A PARTICULAR PURPOSE.
   
   FOR NON-COMMERCIAL, ACADEMIA USE ONLY.
   
   Cite this work as:
   * S. Grimme, C. Bannwarth, P. Shushkov, J. Chem. Theory Comput., 2017,
     13, 1989-2009. DOI: 10.1021/acs.jctc.7b00118
   * C. Bannwarth, S. Ehlert and S. Grimme., J. Chem. Theory Comput., 2019,
     15, 1652-1671. DOI: 10.1021/acs.jctc.8b01176
   * P. Pracht, E. Caldeweyher, S. Ehlert, S. Grimme, ChemRxiv, 2019, preprint.
     DOI: 10.26434/chemrxiv.8326202.v1
   
   for DFT-D4:
   * E. Caldeweyher, C. Bannwarth and S. Grimme, J. Chem. Phys., 2017,
     147, 034112. DOI: 10.1063/1.4993215
   * E. Caldeweyher, S. Ehlert, A. Hansen, H. Neugebauer, S. Spicher,
     C. Bannwarth and S. Grimme, J. Chem. Phys., 2019, 150, 154122.
     DOI: 10.1063/1.5090222
   
   for sTDA-xTB:
   * S. Grimme and C. Bannwarth, J. Chem. Phys., 2016, 145, 054103.
     DOI: 10.1063/1.4959605
   
   in the mass-spec context:
   * V. Asgeirsson, C. Bauer and S. Grimme, Chem. Sci., 2017, 8, 4879.
     DOI: 10.1039/c7sc00601b
   
   for metadynamics refer to:
   * S. Grimme, J. Chem. Theory Comput., 2019, 155, 2847-2862
     DOI: 10.1021/acs.jctc.9b00143
   
   with help from (in alphabetical order)
   C. Bannwarth, F. Bohle, G. Brandenburg, E. Caldeweyher, M. Checinski,
   S. Dohm, S. Ehlert, S. Ehrlich, F. März, H. Neugebauer, J. Pisarek,
   P. Pracht, P. Shushkov, and S. Spicher.
   
 * started run on 2021/05/20 at 21:02:15.534     

           -------------------------------------------------
          |                Calculation Setup                |
           -------------------------------------------------

          program call               : /ihome/ghutchison/geoffh/xtb/xtb /ihome/ghutchison/blp62/GA/running_GA/more_units/generations/16/12_637_59_637_12.xyz -opt
          hostname                   : smp-n150
          coordinate file            : /ihome/ghutchison/blp62/GA/running_GA/more_units/generations/16/12_637_59_637_12.xyz
          omp threads                :                    12
          number of atoms            :                   112
          number of electrons        :                   354
          charge                     :                     0
          spin                       :                   0.0
          first test random number   :      0.57007799272268


########################################################################
# WARNING! Please study the warnings concerning your input carefully
#  - XTBPATH is not set, using XTBHOME instead
#  - the use of '-opt' is discouraged, please use '--opt' next time
########################################################################

           ------------------------------------------------- 
          |                 G F N 2 - x T B                 |
          | Geometry, Frequencies, Noncovalent interactions |
          |            JCTC 2019 parametrisation            |
           ------------------------------------------------- 
             KAB for C  - Si     :                1.0500
             KAB for H  - Pd     :                0.9500
             k(s)              :                1.8500
             k(p)              :                2.2300
             k(d)              :                2.2300
             k(f)              :                2.0000
             kEN (H0ij)        :               -2.0000
             D4 a1             :                0.5200
             D4 a2             :                5.0000
             D4 s6             :                1.0000
             D4 s8             :                2.7000
             D4 s9             :                5.0000
             alphaj            :                2.0000

  Z AO/shell   Hii/eV     exponent
  1     Wed Apr 25 08:07:45 CEST 2018   EN: 2.200 GM2: 0.406  GM3: 0.0800  RAES: 1.40
     1s    -10.707211    1.230000
  6     Wed Apr 25 08:07:45 CEST 2018   EN: 2.550 GM2: 0.538  GM3: 0.1500  RAES: 3.00
     2s    -13.970922    2.096432
     2p    -10.063292    1.800000
  7     Wed Apr 25 08:07:45 CEST 2018   EN: 3.040 GM2: 0.461  GM3:-0.0640  RAES: 1.90
     2s    -16.686243    2.339881
     2p    -12.523956    2.014332
  8     Wed Apr 25 08:07:45 CEST 2018   EN: 3.440 GM2: 0.452  GM3:-0.0517  RAES: 1.80
     2s    -20.229985    2.439742
     2p    -15.503117    2.137023
  9     Mon Apr 23 13:58:50 CEST 2018   EN: 3.980 GM2: 0.532  GM3: 0.1426  RAES: 2.40
     2s    -23.458179    2.416361
     2p    -15.746583    2.308399
 16     Tue Apr 24 11:44:34 CEST 2018   EN: 2.580 GM2: 0.340  GM3:-0.0502  RAES: 3.10
     3s    -20.029654    1.981333
     3p    -11.377694    2.025643
     3d     -0.420282    1.702555

           ------------------------------------------------- 
          |        Self-Consistent Charge Iterations        |
           ------------------------------------------------- 

          ...................................................
          :                      SETUP                      :
          :.................................................:
          :  # basis functions                 340          :
          :  # atomic orbitals                 338          :
          :  # shells                          186          :
          :  # electrons                       354          :
          :  max. iterations                   250          :
          :  Hamiltonian                  GFN2-xTB          :
          :  restarted?                      false          :
          :  GBSA solvation                  false          :
          :  PC potential                    false          :
          :  electronic temp.          300.0000000     K    :
          :  accuracy                    1.0000000          :
          :  -> integral cutoff          0.2500000E+02      :
          :  -> integral neglect         0.1000000E-07      :
          :  -> SCF convergence          0.1000000E-05 Eh   :
          :  -> wf. convergence          0.1000000E-03 e    :
          :  Broyden damping             0.4000000          :
          ...................................................

 iter      E             dE          RMSdq      gap      omega  full diag
   1   -198.0463525 -0.198046E+03  0.491E+00    1.83       0.0  T
   2   -198.1962833 -0.149931E+00  0.314E+00    0.87       1.0  T
   3   -198.0210907  0.175193E+00  0.215E+00    0.11       1.0  T
   4   -198.3277787 -0.306688E+00  0.853E-01    0.73       1.0  T
   5   -198.3999188 -0.721401E-01  0.231E-01    0.20       1.0  T
   6   -198.4012423 -0.132347E-02  0.125E-01    0.14       1.0  T
   7   -198.4014234 -0.181105E-03  0.845E-02    0.31       1.0  T
   8   -198.4028542 -0.143082E-02  0.386E-02    0.18       1.0  T
   9   -198.4028994 -0.451823E-04  0.270E-02    0.19       1.0  T
  10   -198.4029454 -0.460018E-04  0.191E-02    0.18       1.0  T
  11   -198.4030287 -0.833724E-04  0.801E-03    0.19       1.2  T
  12   -198.4030453 -0.165728E-04  0.275E-03    0.19       3.4  T
  13   -198.4030460 -0.680460E-06  0.126E-03    0.19       7.5  T
  14   -198.4030461 -0.693696E-07  0.660E-04    0.19      14.3  T
  15   -198.4030461 -0.546945E-08  0.409E-04    0.19      23.1  T

   *** convergence criteria satisfied after 15 iterations ***

         #    Occupation            Energy/Eh            Energy/eV
      -------------------------------------------------------------
         1        2.0000           -0.8529080             -23.2088
       ...           ...                  ...                  ...
       171        2.0000           -0.4000923             -10.8871
       172        2.0000           -0.3912883             -10.6475
       173        2.0000           -0.3876849             -10.5494
       174        2.0000           -0.3846865             -10.4679
       175        2.0000           -0.3752144             -10.2101
       176        2.0000           -0.3708703             -10.0919
       177        1.9318           -0.3475180              -9.4564 (HOMO)
       178        0.0365           -0.3405559              -9.2670 (LUMO)
       179        0.0317           -0.3404201              -9.2633
       180                         -0.3280300              -8.9262
       181                         -0.3275630              -8.9134
       182                         -0.2823114              -7.6821
       ...                                ...                  ...
       338                          1.0760227              29.2801
      -------------------------------------------------------------
                  HL-Gap            0.0069621 Eh            0.1894 eV
             Fermi-level           -0.3443418 Eh           -9.3700 eV

 SCC (total)                   0 d,  0 h,  0 min,  0.229 sec
 SCC setup                      ...        0 min,  0.002 sec (  1.007%)
 Dispersion                     ...        0 min,  0.006 sec (  2.584%)
 integral evaluation            ...        0 min,  0.019 sec (  8.114%)
 zeroth order Hamiltonian       ...        0 min,  0.001 sec (  0.532%)
 iterations                     ...        0 min,  0.180 sec ( 78.448%)
 molecular gradient             ...        0 min,  0.020 sec (  8.800%)
 printout                       ...        0 min,  0.001 sec (  0.472%)

         :::::::::::::::::::::::::::::::::::::::::::::::::::::
         ::                     SUMMARY                     ::
         :::::::::::::::::::::::::::::::::::::::::::::::::::::
         :: total energy            -195.354460424513 Eh    ::
         :: gradient norm              0.163289164137 Eh/a0 ::
         :: HOMO-LUMO gap              0.189447784639 eV    ::
         ::.................................................::
         :: SCC energy              -198.403046074295 Eh    ::
         :: -> isotropic ES            0.131844409346 Eh    ::
         :: -> anisotropic ES          0.018476368332 Eh    ::
         :: -> anisotropic XC          0.121251808818 Eh    ::
         :: -> dispersion             -0.144415026126 Eh    ::
         :: repulsion energy           3.049139741782 Eh    ::
         :: add. restraining           0.000000000000 Eh    ::
         :::::::::::::::::::::::::::::::::::::::::::::::::::::

      ----------------------------------------------------------- 
     |                   =====================                   |
     |                        A N C O P T                        |
     |                   =====================                   |
     |               Approximate Normal Coordinate               |
     |                Rational Function Optimizer                |
      ----------------------------------------------------------- 

          ...................................................
          :                      SETUP                      :
          :.................................................:
          :   optimization level            normal          :
          :   max. optcycles                   336          :
          :   ANC micro-cycles                  20          :
          :   degrees of freedom               330          :
          :.................................................:
          :   RF solver                   davidson          :
          :   input Hessian                  false          :
          :   write xtbopt.log                true          :
          :   linear?                        false          :
          :   energy convergence         0.5000000E-05 Eh   :
          :   grad. convergence          0.1000000E-02 Eh/α :
          :   maximium RF displ.         2.0000000          :
          :   Hlow (freq-cutoff)         0.5000000E-02      :
          :   Hmax (freq-cutoff)         5.0000000          :
          :   S6 in model hess.         20.0000000          :
          ...................................................

generating ANC from model Hessian ...
Using Lindh-Hessian (1995)
 Shifting diagonal of input Hessian by   4.992597175603235E-003
 Lowest  eigenvalues of input Hessian
   -0.000000   -0.000000   -0.000000   -0.000000    0.000000    0.000000
    0.005000    0.005006    0.005013    0.005022    0.005040    0.005080
    0.005134    0.005169    0.005187    0.005300    0.005331    0.005425
 Highest eigenvalues
    2.272320    2.272649    2.506963    2.510376    2.566337    2.576504
 

........................................................................
.............................. CYCLE    1 ..............................
........................................................................
   1   -198.4030461 -0.198403E+03  0.218E-04    0.19       0.0  T
   2   -198.4030460  0.619736E-07  0.471E-04    0.19      20.0  T
   3   -198.4030461 -0.693206E-07  0.101E-04    0.19      93.3  T
     SCC iter.                  ...        0 min,  0.037 sec
     gradient                   ...        0 min,  0.020 sec
 * total energy  :  -195.3544605 Eh     change       -0.2928815E-07 Eh
   gradient norm :     0.1632826 Eh/α   predicted     0.0000000E+00 (-100.00%)
   displ. norm   :     0.4141404 α      lambda       -0.3271208E-01
   maximum displ.:     0.0951553 α      in ANC's #70, #59, #64, ...

........................................................................
.............................. CYCLE    2 ..............................
........................................................................
   1   -198.5006643 -0.198501E+03  0.252E-01    0.15       0.0  T
   2   -198.5000495  0.614844E-03  0.147E-01    0.31       1.0  T
   3   -198.3616473  0.138402E+00  0.628E-01    0.03       1.0  T
   4   -198.4996696 -0.138022E+00  0.999E-02    0.31       1.0  T
   5   -198.5005062 -0.836582E-03  0.701E-02    0.29       1.0  T
   6   -198.5006884 -0.182217E-03  0.606E-02    0.27       1.0  T
   7   -198.5009910 -0.302524E-03  0.518E-02    0.25       1.0  T
   8   -198.5011830 -0.192043E-03  0.436E-02    0.24       1.0  T
   9   -198.5014562 -0.273205E-03  0.302E-02    0.22       1.0  T
  10   -198.5016498 -0.193619E-03  0.167E-02    0.20       1.0  T
  11   -198.5017293 -0.794782E-04  0.435E-03    0.18       2.2  T
  12   -198.5017337 -0.444605E-05  0.197E-03    0.18       4.8  T
  13   -198.5017348 -0.106424E-05  0.761E-04    0.18      12.4  T
     SCC iter.                  ...        0 min,  0.143 sec
     gradient                   ...        0 min,  0.020 sec
 * total energy  :  -195.3768769 Eh     change       -0.2241642E-01 Eh
   gradient norm :     0.0644842 Eh/α   predicted    -0.1916139E-01 ( -14.52%)
   displ. norm   :     0.5201477 α      lambda       -0.1333294E-01
   maximum displ.:     0.1748843 α      in ANC's #33, #64, #70, ...

........................................................................
.............................. CYCLE    3 ..............................
........................................................................
   1   -198.5212721 -0.198521E+03  0.285E-01    0.10       0.0  T
   2   -198.5209502  0.321890E-03  0.217E-01    0.59       1.0  T
   3   -198.5276130 -0.666287E-02  0.134E-01    0.22       1.0  T
   4   -198.5230142  0.459890E-02  0.149E-01    0.11       1.0  T
   5   -198.5277717 -0.475756E-02  0.660E-02    0.19       1.0  T
   6   -198.5281387 -0.366971E-03  0.536E-02    0.21       1.0  T
   7   -198.5286163 -0.477673E-03  0.297E-02    0.18       1.0  T
   8   -198.5286668 -0.504534E-04  0.197E-02    0.16       1.0  T
   9   -198.5287977 -0.130850E-03  0.596E-03    0.17       1.6  T
  10   -198.5287972  0.497790E-06  0.435E-03    0.18       2.2  T
  11   -198.5287997 -0.250518E-05  0.276E-03    0.17       3.4  T
     SCC iter.                  ...        0 min,  0.123 sec
     gradient                   ...        0 min,  0.020 sec
 * total energy  :  -195.3851667 Eh     change       -0.8289780E-02 Eh
   gradient norm :     0.0265526 Eh/α   predicted    -0.8470122E-02 (   2.18%)
   displ. norm   :     0.7162071 α      lambda       -0.1039557E-01
   maximum displ.:     0.2629938 α      in ANC's #40, #44, #33, ...

........................................................................
.............................. CYCLE    4 ..............................
........................................................................
   1   -198.4993634 -0.198499E+03  0.451E-01    0.08       0.0  T
   2   -198.5003365 -0.973148E-03  0.341E-01    0.61       1.0  T
   3   -198.5132491 -0.129126E-01  0.225E-01    0.19       1.0  T
   4   -198.4997273  0.135218E-01  0.244E-01    0.08       1.0  T
   5   -198.5140048 -0.142775E-01  0.100E-01    0.22       1.0  T
   6   -198.5147106 -0.705801E-03  0.790E-02    0.20       1.0  T
   7   -198.5150469 -0.336269E-03  0.657E-02    0.19       1.0  T
   8   -198.5158161 -0.769173E-03  0.257E-02    0.16       1.0  T
   9   -198.5159561 -0.140036E-03  0.132E-02    0.16       1.0  T
  10   -198.5159087  0.474368E-04  0.177E-02    0.17       1.0  T
  11   -198.5159207 -0.120113E-04  0.155E-02    0.15       1.0  T
  12   -198.5159650 -0.443493E-04  0.108E-02    0.17       1.0  T
  13   -198.5160036 -0.386168E-04  0.174E-03    0.16       5.4  T
  14   -198.5160039 -0.308556E-06  0.136E-03    0.16       6.9  T
  15   -198.5160046 -0.608863E-06  0.180E-04    0.16      52.4  T
     SCC iter.                  ...        0 min,  0.169 sec
     gradient                   ...        0 min,  0.020 sec
 * total energy  :  -195.3852607 Eh     change       -0.9407784E-04 Eh
   gradient norm :     0.0757655 Eh/α   predicted    -0.7864002E-02 (8259.04%)
   displ. norm   :     0.4090850 α      lambda       -0.1327108E-01
   maximum displ.:     0.1448158 α      in ANC's #33, #8, #28, ...

........................................................................
.............................. CYCLE    5 ..............................
........................................................................
   1   -198.5334366 -0.198533E+03  0.269E-01    0.17       0.0  T
   2   -198.5279055  0.553110E-02  0.198E-01    0.10       1.0  T
   3   -198.5271725  0.733024E-03  0.188E-01    0.25       1.0  T
   4   -198.5299090 -0.273647E-02  0.127E-01    0.12       1.0  T
   5   -198.5308899 -0.980977E-03  0.106E-01    0.31       1.0  T
   6   -198.5320889 -0.119895E-02  0.816E-02    0.21       1.0  T
   7   -198.5325872 -0.498345E-03  0.673E-02    0.19       1.0  T
   8   -198.5328495 -0.262269E-03  0.577E-02    0.18       1.0  T
   9   -198.5331948 -0.345322E-03  0.432E-02    0.18       1.0  T
  10   -198.5336732 -0.478374E-03  0.155E-02    0.15       1.0  T
  11   -198.5336429  0.302721E-04  0.181E-02    0.18       1.0  T
  12   -198.5335575  0.854527E-04  0.237E-02    0.15       1.0  T
  13   -198.5337449 -0.187430E-03  0.421E-03    0.17       2.2  T
  14   -198.5337506 -0.568479E-05  0.708E-04    0.16      13.3  T
  15   -198.5337507 -0.132980E-06  0.195E-04    0.16      48.5  T
     SCC iter.                  ...        0 min,  0.173 sec
     gradient                   ...        0 min,  0.021 sec
 * total energy  :  -195.3922688 Eh     change       -0.7008048E-02 Eh
   gradient norm :     0.0420505 Eh/α   predicted    -0.7745997E-02 (  10.53%)
   displ. norm   :     0.5033862 α      lambda       -0.5389698E-02
   maximum displ.:     0.2278445 α      in ANC's #33, #40, #21, ...

........................................................................
.............................. CYCLE    6 ..............................
........................................................................
   1   -198.5229453 -0.198523E+03  0.199E-01    0.13       0.0  T
   2   -198.5214534  0.149193E-02  0.137E-01    0.25       1.0  T
   3   -198.2206253  0.300828E+00  0.918E-01    0.06       1.0  T
   4   -198.5213639 -0.300739E+00  0.103E-01    0.16       1.0  T
   5   -198.5214415 -0.775514E-04  0.908E-02    0.27       1.0  T
   6   -198.5219173 -0.475765E-03  0.796E-02    0.22       1.0  T
   7   -198.5221745 -0.257216E-03  0.744E-02    0.21       1.0  T
   8   -198.5222142 -0.397516E-04  0.721E-02    0.21       1.0  T
   9   -198.5223365 -0.122303E-03  0.676E-02    0.21       1.0  T
  10   -198.5224853 -0.148817E-03  0.616E-02    0.21       1.0  T
  11   -198.5228058 -0.320424E-03  0.506E-02    0.20       1.0  T
  12   -198.5234864 -0.680657E-03  0.179E-02    0.18       1.0  T
  13   -198.5233243  0.162170E-03  0.286E-02    0.19       1.0  T
  14   -198.5235861 -0.261821E-03  0.330E-03    0.16       2.9  T
  15   -198.5235726  0.134526E-04  0.718E-03    0.17       1.3  T
  16   -198.5235807 -0.810775E-05  0.515E-03    0.16       1.8  T
  17   -198.5235876 -0.690303E-05  0.245E-03    0.16       3.9  T
  18   -198.5235894 -0.172866E-05  0.894E-04    0.16      10.6  T
  19   -198.5235896 -0.246559E-06  0.232E-04    0.16      40.8  T
     SCC iter.                  ...        0 min,  0.216 sec
     gradient                   ...        0 min,  0.020 sec
 * total energy  :  -195.3956926 Eh     change       -0.3423787E-02 Eh
   gradient norm :     0.0239035 Eh/α   predicted    -0.3377715E-02 (  -1.35%)
   displ. norm   :     0.6829619 α      lambda       -0.5171881E-02
   maximum displ.:     0.2676745 α      in ANC's #33, #40, #43, ...

........................................................................
.............................. CYCLE    7 ..............................
........................................................................
   1   -198.5091197 -0.198509E+03  0.227E-01    0.13       0.0  T
   2   -198.5071785  0.194122E-02  0.158E-01    0.32       1.0  T
   3   -198.1764908  0.330688E+00  0.962E-01    0.06       1.0  T
   4   -198.5038598 -0.327369E+00  0.154E-01    0.13       1.0  T
   5   -198.5076418 -0.378197E-02  0.992E-02    0.36       1.0  T
   6   -198.5079841 -0.342329E-03  0.866E-02    0.29       1.0  T
   7   -198.5083716 -0.387517E-03  0.796E-02    0.25       1.0  T
   8   -198.5085887 -0.217005E-03  0.736E-02    0.23       1.0  T
   9   -198.5087122 -0.123562E-03  0.697E-02    0.22       1.0  T
  10   -198.5088018 -0.896254E-04  0.658E-02    0.22       1.0  T
  11   -198.5089729 -0.171081E-03  0.602E-02    0.22       1.0  T
  12   -198.5092982 -0.325328E-03  0.491E-02    0.22       1.0  T
  13   -198.5100214 -0.723125E-03  0.880E-03    0.17       1.1  T
  14   -198.5099432  0.781496E-04  0.176E-02    0.18       1.0  T
  15   -198.5099975 -0.542940E-04  0.118E-02    0.15       1.0  T
  16   -198.5100335 -0.359491E-04  0.590E-03    0.16       1.6  T
  17   -198.5100448 -0.113239E-04  0.409E-04    0.16      23.1  T
  18   -198.5100447  0.121228E-06  0.717E-04    0.16      13.2  T
  19   -198.5100448 -0.164548E-06  0.133E-04    0.16      71.1  T
     SCC iter.                  ...        0 min,  0.216 sec
     gradient                   ...        0 min,  0.020 sec
 * total energy  :  -195.3993534 Eh     change       -0.3660809E-02 Eh
   gradient norm :     0.0401808 Eh/α   predicted    -0.3792127E-02 (   3.59%)
   displ. norm   :     0.6308425 α      lambda       -0.5337759E-02
   maximum displ.:     0.2353621 α      in ANC's #33, #40, #21, ...

........................................................................
.............................. CYCLE    8 ..............................
........................................................................
   1   -198.5207463 -0.198521E+03  0.198E-01    0.16       0.0  T
   2   -198.5200746  0.671622E-03  0.128E-01    0.22       1.0  T
   3   -198.3183458  0.201729E+00  0.755E-01    0.02       1.0  T
   4   -198.5171626 -0.198817E+00  0.127E-01    0.17       1.0  T
   5   -198.5203580 -0.319538E-02  0.622E-02    0.25       1.0  T
   6   -198.5205097 -0.151762E-03  0.533E-02    0.25       1.0  T
   7   -198.5207699 -0.260136E-03  0.452E-02    0.23       1.0  T
   8   -198.5209142 -0.144349E-03  0.388E-02    0.22       1.0  T
   9   -198.5210835 -0.169329E-03  0.309E-02    0.20       1.0  T
  10   -198.5212273 -0.143792E-03  0.219E-02    0.19       1.0  T
  11   -198.5213422 -0.114870E-03  0.111E-02    0.18       1.0  T
  12   -198.5213790 -0.368437E-04  0.277E-03    0.17       3.4  T
  13   -198.5213814 -0.239399E-05  0.346E-04    0.17      27.3  T
  14   -198.5213814 -0.962942E-08  0.233E-04    0.17      40.6  T
     SCC iter.                  ...        0 min,  0.159 sec
     gradient                   ...        0 min,  0.020 sec
 * total energy  :  -195.4033482 Eh     change       -0.3994805E-02 Eh
   gradient norm :     0.0250120 Eh/α   predicted    -0.3730995E-02 (  -6.60%)
   displ. norm   :     0.6523563 α      lambda       -0.4498649E-02
   maximum displ.:     0.2165518 α      in ANC's #33, #40, #29, ...

........................................................................
.............................. CYCLE    9 ..............................
........................................................................
   1   -198.5310978 -0.198531E+03  0.217E-01    0.17       0.0  T
   2   -198.5303877  0.710079E-03  0.137E-01    0.25       1.0  T
   3   -198.3345296  0.195858E+00  0.743E-01    0.02       1.0  T
   4   -198.5284953 -0.193966E+00  0.124E-01    0.23       1.0  T
   5   -198.5310928 -0.259749E-02  0.600E-02    0.29       1.0  T
   6   -198.5311426 -0.498368E-04  0.521E-02    0.28       1.0  T
   7   -198.5313964 -0.253802E-03  0.442E-02    0.26       1.0  T
   8   -198.5315036 -0.107187E-03  0.384E-02    0.24       1.0  T
   9   -198.5316182 -0.114645E-03  0.326E-02    0.23       1.0  T
  10   -198.5317463 -0.128026E-03  0.250E-02    0.21       1.0  T
  11   -198.5318720 -0.125754E-03  0.147E-02    0.20       1.0  T
  12   -198.5319385 -0.665122E-04  0.731E-04    0.18      12.9  T
  13   -198.5319384  0.754266E-07  0.672E-04    0.18      14.1  T
  14   -198.5319386 -0.105270E-06  0.241E-04    0.18      39.3  T
     SCC iter.                  ...        0 min,  0.155 sec
     gradient                   ...        0 min,  0.020 sec
 * total energy  :  -195.4071483 Eh     change       -0.3800141E-02 Eh
   gradient norm :     0.0261614 Eh/α   predicted    -0.3206566E-02 ( -15.62%)
   displ. norm   :     0.7930696 α      lambda       -0.5295617E-02
   maximum displ.:     0.2583751 α      in ANC's #33, #63, #40, ...

........................................................................
.............................. CYCLE   10 ..............................
........................................................................
   1   -198.5400583 -0.198540E+03  0.256E-01    0.19       0.0  T
   2   -198.5393445  0.713754E-03  0.159E-01    0.33       1.0  T
   3   -198.4453225  0.940220E-01  0.519E-01    0.05       1.0  T
   4   -198.5385448 -0.932223E-01  0.121E-01    0.36       1.0  T
   5   -198.5403608 -0.181594E-02  0.660E-02    0.40       1.0  T
   6   -198.5404212 -0.604166E-04  0.558E-02    0.38       1.0  T
   7   -198.5406688 -0.247593E-03  0.477E-02    0.34       1.0  T
   8   -198.5407913 -0.122542E-03  0.407E-02    0.31       1.0  T
   9   -198.5409383 -0.146972E-03  0.322E-02    0.28       1.0  T
  10   -198.5411093 -0.171005E-03  0.202E-02    0.25       1.0  T
  11   -198.5412216 -0.112345E-03  0.274E-03    0.21       3.4  T
  12   -198.5412231 -0.150389E-05  0.845E-04    0.21      11.2  T
  13   -198.5412231  0.381308E-08  0.690E-04    0.21      13.7  T
     SCC iter.                  ...        0 min,  0.142 sec
     gradient                   ...        0 min,  0.020 sec
 * total energy  :  -195.4112614 Eh     change       -0.4113081E-02 Eh
   gradient norm :     0.0323334 Eh/α   predicted    -0.4313177E-02 (   4.86%)
   displ. norm   :     0.7167096 α      lambda       -0.5170619E-02
   maximum displ.:     0.2211506 α      in ANC's #63, #29, #33, ...

........................................................................
.............................. CYCLE   11 ..............................
........................................................................
   1   -198.5395510 -0.198540E+03  0.276E-01    0.22       0.0  T
   2   -198.5391828  0.368115E-03  0.165E-01    0.39       1.0  T
   3   -198.5183683  0.208145E-01  0.263E-01    0.12       1.0  T
   4   -198.5393873 -0.210189E-01  0.818E-02    0.50       1.0  T
   5   -198.5402324 -0.845166E-03  0.461E-02    0.42       1.0  T
   6   -198.5403980 -0.165579E-03  0.335E-02    0.37       1.0  T
   7   -198.5405928 -0.194829E-03  0.209E-02    0.32       1.0  T
   8   -198.5406566 -0.637536E-04  0.105E-02    0.29       1.0  T
   9   -198.5406747 -0.181077E-04  0.369E-03    0.27       2.6  T
  10   -198.5406758 -0.113375E-05  0.204E-03    0.27       4.6  T
  11   -198.5406762 -0.373042E-06  0.591E-04    0.27      16.0  T
     SCC iter.                  ...        0 min,  0.122 sec
     gradient                   ...        0 min,  0.020 sec
 * total energy  :  -195.4152294 Eh     change       -0.3968040E-02 Eh
   gradient norm :     0.0324355 Eh/α   predicted    -0.3913309E-02 (  -1.38%)
   displ. norm   :     0.7493528 α      lambda       -0.4834120E-02
   maximum displ.:     0.2151549 α      in ANC's #33, #63, #43, ...

........................................................................
.............................. CYCLE   12 ..............................
........................................................................
   1   -198.5252940 -0.198525E+03  0.250E-01    0.28       0.0  T
   2   -198.5248456  0.448371E-03  0.157E-01    0.46       1.0  T
   3   -198.5220065  0.283913E-02  0.153E-01    0.25       1.0  T
   4   -198.5265002 -0.449370E-02  0.356E-02    0.38       1.0  T
   5   -198.5266415 -0.141316E-03  0.143E-02    0.36       1.0  T
   6   -198.5266452 -0.372735E-05  0.833E-03    0.34       1.1  T
   7   -198.5266533 -0.809617E-05  0.406E-03    0.35       2.3  T
   8   -198.5266551 -0.175049E-05  0.161E-03    0.35       5.9  T
   9   -198.5266552 -0.171400E-06  0.748E-04    0.35      12.6  T
     SCC iter.                  ...        0 min,  0.100 sec
     gradient                   ...        0 min,  0.020 sec
 * total energy  :  -195.4185588 Eh     change       -0.3329380E-02 Eh
   gradient norm :     0.0401358 Eh/α   predicted    -0.3774312E-02 (  13.36%)
   displ. norm   :     0.6155846 α      lambda       -0.6913842E-02
   maximum displ.:     0.1883670 α      in ANC's #14, #63, #19, ...

........................................................................
.............................. CYCLE   13 ..............................
........................................................................
   1   -198.5657389 -0.198566E+03  0.226E-01    0.37       0.0  T
   2   -198.5657691 -0.302171E-04  0.132E-01    0.49       1.0  T
   3   -198.5639715  0.179757E-02  0.119E-01    0.35       1.0  T
   4   -198.5662619 -0.229031E-02  0.240E-02    0.46       1.0  T
   5   -198.5663057 -0.438873E-04  0.118E-02    0.44       1.0  T
   6   -198.5663124 -0.663596E-05  0.546E-03    0.44       1.7  T
   7   -198.5663148 -0.240627E-05  0.235E-03    0.44       4.0  T
   8   -198.5663154 -0.575056E-06  0.109E-03    0.44       8.6  T
     SCC iter.                  ...        0 min,  0.090 sec
     gradient                   ...        0 min,  0.020 sec
 * total energy  :  -195.4201667 Eh     change       -0.1607846E-02 Eh
   gradient norm :     0.0691200 Eh/α   predicted    -0.4766903E-02 ( 196.48%)
   displ. norm   :     0.5239133 α      lambda       -0.7592954E-02
   maximum displ.:     0.2065591 α      in ANC's #33, #26, #14, ...

........................................................................
.............................. CYCLE   14 ..............................
........................................................................
   1   -198.5396720 -0.198540E+03  0.184E-01    0.43       0.0  T
   2   -198.5395591  0.112933E-03  0.111E-01    0.52       1.0  T
   3   -198.5378935  0.166554E-02  0.114E-01    0.42       1.0  T
   4   -198.5400660 -0.217243E-02  0.224E-02    0.47       1.0  T
   5   -198.5401134 -0.474027E-04  0.927E-03    0.48       1.0  T
   6   -198.5401181 -0.475727E-05  0.472E-03    0.48       2.0  T
   7   -198.5401205 -0.238835E-05  0.184E-03    0.48       5.1  T
     SCC iter.                  ...        0 min,  0.079 sec
     gradient                   ...        0 min,  0.020 sec
 * total energy  :  -195.4232604 Eh     change       -0.3093698E-02 Eh
   gradient norm :     0.0498429 Eh/α   predicted    -0.4838553E-02 (  56.40%)
   displ. norm   :     0.4416558 α      lambda       -0.6429147E-02
   maximum displ.:     0.1420372 α      in ANC's #14, #29, #17, ...

........................................................................
.............................. CYCLE   15 ..............................
........................................................................
   1   -198.5277346 -0.198528E+03  0.157E-01    0.46       0.0  T
   2   -198.5277600 -0.253892E-04  0.925E-02    0.51       1.0  T
   3   -198.5269151  0.844938E-03  0.785E-02    0.44       1.0  T
   4   -198.5279032 -0.988093E-03  0.178E-02    0.49       1.0  T
   5   -198.5279353 -0.321630E-04  0.875E-03    0.49       1.1  T
   6   -198.5279407 -0.541125E-05  0.463E-03    0.49       2.0  T
   7   -198.5279428 -0.210737E-05  0.178E-03    0.49       5.3  T
     SCC iter.                  ...        0 min,  0.079 sec
     gradient                   ...        0 min,  0.020 sec
 * total energy  :  -195.4241974 Eh     change       -0.9370060E-03 Eh
   gradient norm :     0.0566137 Eh/α   predicted    -0.3841606E-02 ( 309.99%)
   displ. norm   :     0.3995964 α      lambda       -0.6515762E-02
   maximum displ.:     0.1297984 α      in ANC's #14, #48, #29, ...

........................................................................
.............................. CYCLE   16 ..............................
........................................................................
   1   -198.5405467 -0.198541E+03  0.114E-01    0.49       0.0  T
   2   -198.5405672 -0.205107E-04  0.662E-02    0.54       1.0  T
   3   -198.5402433  0.323866E-03  0.614E-02    0.49       1.0  T
   4   -198.5407031 -0.459802E-03  0.151E-02    0.53       1.0  T
   5   -198.5407213 -0.181648E-04  0.743E-03    0.52       1.3  T
   6   -198.5407259 -0.457820E-05  0.391E-03    0.52       2.4  T
   7   -198.5407274 -0.147749E-05  0.171E-03    0.52       5.5  T
     SCC iter.                  ...        0 min,  0.079 sec
     gradient                   ...        0 min,  0.020 sec
 * total energy  :  -195.4257167 Eh     change       -0.1519372E-02 Eh
   gradient norm :     0.0532195 Eh/α   predicted    -0.3778093E-02 ( 148.66%)
   displ. norm   :     0.3563812 α      lambda       -0.6980965E-02
   maximum displ.:     0.1006062 α      in ANC's #14, #48, #19, ...

........................................................................
.............................. CYCLE   17 ..............................
........................................................................
   1   -198.5442346 -0.198544E+03  0.126E-01    0.52       0.0  T
   2   -198.5442742 -0.395841E-04  0.747E-02    0.55       1.0  T
   3   -198.5439212  0.352973E-03  0.612E-02    0.52       1.0  T
   4   -198.5443766 -0.455317E-03  0.135E-02    0.55       1.0  T
   5   -198.5443949 -0.182976E-04  0.556E-03    0.54       1.7  T
   6   -198.5443967 -0.180488E-05  0.335E-03    0.54       2.8  T
   7   -198.5443978 -0.116186E-05  0.137E-03    0.54       6.9  T
     SCC iter.                  ...        0 min,  0.080 sec
     gradient                   ...        0 min,  0.020 sec
 * total energy  :  -195.4273213 Eh     change       -0.1604535E-02 Eh
   gradient norm :     0.0551846 Eh/α   predicted    -0.3933801E-02 ( 145.17%)
   displ. norm   :     0.4088518 α      lambda       -0.5989749E-02
   maximum displ.:     0.1528602 α      in ANC's #14, #43, #26, ...

........................................................................
.............................. CYCLE   18 ..............................
........................................................................
   1   -198.5455688 -0.198546E+03  0.129E-01    0.55       0.0  T
   2   -198.5456200 -0.511952E-04  0.733E-02    0.57       1.0  T
   3   -198.5452456  0.374359E-03  0.595E-02    0.54       1.0  T
   4   -198.5456975 -0.451911E-03  0.175E-02    0.56       1.0  T
   5   -198.5457284 -0.309130E-04  0.767E-03    0.56       1.2  T
   6   -198.5457331 -0.466451E-05  0.384E-03    0.56       2.5  T
   7   -198.5457346 -0.151146E-05  0.159E-03    0.56       5.9  T
     SCC iter.                  ...        0 min,  0.079 sec
     gradient                   ...        0 min,  0.020 sec
 * total energy  :  -195.4274022 Eh     change       -0.8092353E-04 Eh
   gradient norm :     0.0610322 Eh/α   predicted    -0.3495500E-02 (4219.51%)
   displ. norm   :     0.4094960 α      lambda       -0.8590006E-02
   maximum displ.:     0.1035299 α      in ANC's #14, #50, #42, ...

........................................................................
.............................. CYCLE   19 ..............................
........................................................................
   1   -198.5400199 -0.198540E+03  0.132E-01    0.54       0.0  T
   2   -198.5400219 -0.199666E-05  0.759E-02    0.56       1.0  T
   3   -198.5393860  0.635975E-03  0.687E-02    0.52       1.0  T
   4   -198.5401159 -0.729956E-03  0.127E-02    0.55       1.0  T
   5   -198.5401302 -0.142909E-04  0.732E-03    0.55       1.3  T
   6   -198.5401352 -0.495622E-05  0.349E-03    0.55       2.7  T
   7   -198.5401363 -0.110098E-05  0.132E-03    0.55       7.1  T
     SCC iter.                  ...        0 min,  0.080 sec
     gradient                   ...        0 min,  0.020 sec
 * total energy  :  -195.4288941 Eh     change       -0.1491909E-02 Eh
   gradient norm :     0.0528385 Eh/α   predicted    -0.5015222E-02 ( 236.16%)
   displ. norm   :     0.3422007 α      lambda       -0.6475467E-02
   maximum displ.:     0.1191068 α      in ANC's #14, #19, #46, ...

........................................................................
.............................. CYCLE   20 ..............................
........................................................................
   1   -198.5378756 -0.198538E+03  0.124E-01    0.56       0.0  T
   2   -198.5379047 -0.291284E-04  0.748E-02    0.60       1.0  T
   3   -198.5375300  0.374690E-03  0.604E-02    0.56       1.0  T
   4   -198.5380166 -0.486626E-03  0.132E-02    0.60       1.0  T
   5   -198.5380304 -0.137710E-04  0.605E-03    0.59       1.6  T
   6   -198.5380326 -0.225147E-05  0.288E-03    0.59       3.3  T
   7   -198.5380332 -0.586435E-06  0.129E-03    0.59       7.3  T
     SCC iter.                  ...        0 min,  0.086 sec
     gradient                   ...        0 min,  0.021 sec
 * total energy  :  -195.4307091 Eh     change       -0.1814963E-02 Eh
   gradient norm :     0.0461327 Eh/α   predicted    -0.3616875E-02 (  99.28%)
   displ. norm   :     0.3401585 α      lambda       -0.4985824E-02
   maximum displ.:     0.1317331 α      in ANC's #14, #19, #13, ...
 * RMSD in coord.:     0.7365340 α      energy gain  -0.7624865E-01 Eh

generating ANC from model Hessian ...
Using Lindh-Hessian (1995)
 Shifting diagonal of input Hessian by   5.055798453842774E-003
 Lowest  eigenvalues of input Hessian
    0.005000    0.005055   -0.000000   -0.000000   -0.000000    0.000000
    0.000000    0.000000    0.005063    0.005077    0.005080    0.005139
    0.005191    0.005214    0.005323    0.005402    0.005454    0.005474
 Highest eigenvalues
    2.268702    2.283347    2.592960    2.601879    2.636399    2.657442
 

........................................................................
.............................. CYCLE   21 ..............................
........................................................................
   1   -198.5459030 -0.198546E+03  0.130E-01    0.58       0.0  T
   2   -198.5459568 -0.537868E-04  0.730E-02    0.60       1.0  T
   3   -198.5456998  0.257008E-03  0.479E-02    0.57       1.0  T
   4   -198.5459956 -0.295826E-03  0.114E-02    0.59       1.0  T
   5   -198.5459995 -0.388753E-05  0.695E-03    0.59       1.4  T
   6   -198.5460032 -0.375629E-05  0.381E-03    0.59       2.5  T
   7   -198.5460048 -0.156876E-05  0.173E-03    0.59       5.5  T
   8   -198.5460050 -0.183689E-06  0.844E-04    0.59      11.2  T
   9   -198.5460050 -0.321379E-07  0.499E-04    0.59      19.0  T
     SCC iter.                  ...        0 min,  0.101 sec
     gradient                   ...        0 min,  0.020 sec
 * total energy  :  -195.4312932 Eh     change       -0.5841670E-03 Eh
   gradient norm :     0.0534094 Eh/α   predicted     0.0000000E+00 (-100.00%)
   displ. norm   :     0.3292913 α      lambda       -0.4108248E-02
   maximum displ.:     0.1231671 α      in ANC's #29, #15, #28, ...

........................................................................
.............................. CYCLE   22 ..............................
........................................................................
   1   -198.5505383 -0.198551E+03  0.111E-01    0.60       0.0  T
   2   -198.5505576 -0.192455E-04  0.634E-02    0.60       1.0  T
   3   -198.5503993  0.158299E-03  0.335E-02    0.60       1.0  T
   4   -198.5505674 -0.168119E-03  0.853E-03    0.60       1.1  T
   5   -198.5505743 -0.688228E-05  0.476E-03    0.60       2.0  T
   6   -198.5505763 -0.204734E-05  0.188E-03    0.60       5.0  T
   7   -198.5505766 -0.256266E-06  0.854E-04    0.60      11.1  T
     SCC iter.                  ...        0 min,  0.080 sec
     gradient                   ...        0 min,  0.020 sec
 * total energy  :  -195.4339553 Eh     change       -0.2662097E-02 Eh
   gradient norm :     0.0152027 Eh/α   predicted    -0.2276860E-02 ( -14.47%)
   displ. norm   :     0.4453678 α      lambda       -0.2532135E-02
   maximum displ.:     0.1471419 α      in ANC's #13, #28, #15, ...

........................................................................
.............................. CYCLE   23 ..............................
........................................................................
   1   -198.5489987 -0.198549E+03  0.219E-01    0.60       0.0  T
   2   -198.5490562 -0.574800E-04  0.122E-01    0.61       1.0  T
   3   -198.5486925  0.363727E-03  0.488E-02    0.59       1.0  T
   4   -198.5491001 -0.407618E-03  0.101E-02    0.61       1.0  T
   5   -198.5491066 -0.647890E-05  0.608E-03    0.60       1.6  T
   6   -198.5491086 -0.206611E-05  0.277E-03    0.61       3.4  T
   7   -198.5491095 -0.891021E-06  0.123E-03    0.60       7.7  T
     SCC iter.                  ...        0 min,  0.081 sec
     gradient                   ...        0 min,  0.020 sec
 * total energy  :  -195.4335959 Eh     change        0.3594165E-03 Eh
   gradient norm :     0.0297393 Eh/α   predicted    -0.1517197E-02 (-522.13%)
   displ. norm   :     0.3081804 α      lambda       -0.3799002E-02
   maximum displ.:     0.1370594 α      in ANC's #29, #12, #15, ...

........................................................................
.............................. CYCLE   24 ..............................
........................................................................
   1   -198.5557254 -0.198556E+03  0.178E-01    0.61       0.0  T
   2   -198.5557648 -0.394430E-04  0.989E-02    0.62       1.0  T
   3   -198.5557125  0.523297E-04  0.214E-02    0.60       1.0  T
   4   -198.5557841 -0.716013E-04  0.599E-03    0.61       1.6  T
   5   -198.5557854 -0.134262E-05  0.397E-03    0.61       2.4  T
   6   -198.5557862 -0.738870E-06  0.179E-03    0.61       5.3  T
     SCC iter.                  ...        0 min,  0.069 sec
     gradient                   ...        0 min,  0.020 sec
 * total energy  :  -195.4355461 Eh     change       -0.1950219E-02 Eh
   gradient norm :     0.0210590 Eh/α   predicted    -0.2079904E-02 (   6.65%)
   displ. norm   :     0.3614918 α      lambda       -0.2140442E-02
   maximum displ.:     0.1230577 α      in ANC's #15, #13, #32, ...

........................................................................
.............................. CYCLE   25 ..............................
........................................................................
   1   -198.5464534 -0.198546E+03  0.202E-01    0.61       0.0  T
   2   -198.5464934 -0.400239E-04  0.113E-01    0.63       1.0  T
   3   -198.5458349  0.658509E-03  0.623E-02    0.59       1.0  T
   4   -198.5465619 -0.726992E-03  0.860E-03    0.62       1.1  T
   5   -198.5465675 -0.554699E-05  0.528E-03    0.62       1.8  T
   6   -198.5465693 -0.185579E-05  0.256E-03    0.62       3.7  T
     SCC iter.                  ...        0 min,  0.070 sec
     gradient                   ...        0 min,  0.020 sec
 * total energy  :  -195.4357641 Eh     change       -0.2179160E-03 Eh
   gradient norm :     0.0236575 Eh/α   predicted    -0.1210082E-02 ( 455.30%)
   displ. norm   :     0.3540781 α      lambda       -0.2589353E-02
   maximum displ.:     0.1309423 α      in ANC's #15, #29, #13, ...

........................................................................
.............................. CYCLE   26 ..............................
........................................................................
   1   -198.5518746 -0.198552E+03  0.162E-01    0.62       0.0  T
   2   -198.5518943 -0.197670E-04  0.909E-02    0.63       1.0  T
   3   -198.5514794  0.414952E-03  0.486E-02    0.61       1.0  T
   4   -198.5519298 -0.450416E-03  0.651E-03    0.63       1.5  T
   5   -198.5519319 -0.212741E-05  0.416E-03    0.63       2.3  T
   6   -198.5519330 -0.109293E-05  0.192E-03    0.63       4.9  T
     SCC iter.                  ...        0 min,  0.070 sec
     gradient                   ...        0 min,  0.020 sec
 * total energy  :  -195.4371634 Eh     change       -0.1399338E-02 Eh
   gradient norm :     0.0125873 Eh/α   predicted    -0.1456991E-02 (   4.12%)
   displ. norm   :     0.5287529 α      lambda       -0.2380105E-02
   maximum displ.:     0.1967677 α      in ANC's #15, #13, #29, ...

........................................................................
.............................. CYCLE   27 ..............................
........................................................................
   1   -198.5503264 -0.198550E+03  0.209E-01    0.63       0.0  T
   2   -198.5503769 -0.504671E-04  0.117E-01    0.65       1.0  T
   3   -198.5500626  0.314267E-03  0.500E-02    0.62       1.0  T
   4   -198.5504163 -0.353713E-03  0.993E-03    0.64       1.0  T
   5   -198.5504243 -0.799302E-05  0.588E-03    0.64       1.6  T
   6   -198.5504261 -0.178202E-05  0.292E-03    0.64       3.2  T
   7   -198.5504272 -0.112764E-05  0.116E-03    0.64       8.1  T
     SCC iter.                  ...        0 min,  0.081 sec
     gradient                   ...        0 min,  0.020 sec
 * total energy  :  -195.4381427 Eh     change       -0.9792626E-03 Eh
   gradient norm :     0.0159848 Eh/α   predicted    -0.1522767E-02 (  55.50%)
   displ. norm   :     0.4932391 α      lambda       -0.1673527E-02
   maximum displ.:     0.2104539 α      in ANC's #13, #15, #29, ...

........................................................................
.............................. CYCLE   28 ..............................
........................................................................
   1   -198.5513248 -0.198551E+03  0.132E-01    0.64       0.0  T
   2   -198.5513221  0.270155E-05  0.760E-02    0.66       1.0  T
   3   -198.5507269  0.595225E-03  0.586E-02    0.62       1.0  T
   4   -198.5513715 -0.644659E-03  0.841E-03    0.65       1.1  T
   5   -198.5513751 -0.359859E-05  0.542E-03    0.66       1.7  T
   6   -198.5513777 -0.258347E-05  0.243E-03    0.65       3.9  T
   7   -198.5513783 -0.610322E-06  0.953E-04    0.65       9.9  T
     SCC iter.                  ...        0 min,  0.081 sec
     gradient                   ...        0 min,  0.020 sec
 * total energy  :  -195.4395113 Eh     change       -0.1368666E-02 Eh
   gradient norm :     0.0134868 Eh/α   predicted    -0.1040344E-02 ( -23.99%)
   displ. norm   :     0.6922567 α      lambda       -0.1895383E-02
   maximum displ.:     0.3180785 α      in ANC's #13, #15, #11, ...

........................................................................
.............................. CYCLE   29 ..............................
........................................................................
   1   -198.5527817 -0.198553E+03  0.178E-01    0.65       0.0  T
   2   -198.5527856 -0.393651E-05  0.102E-01    0.68       1.0  T
   3   -198.5518350  0.950656E-03  0.757E-02    0.63       1.0  T
   4   -198.5528716 -0.103666E-02  0.109E-02    0.67       1.0  T
   5   -198.5528752 -0.353820E-05  0.775E-03    0.67       1.2  T
   6   -198.5528814 -0.622880E-05  0.360E-03    0.67       2.6  T
   7   -198.5528827 -0.135362E-05  0.135E-03    0.67       7.0  T
   8   -198.5528828 -0.958742E-07  0.675E-04    0.67      14.0  T
     SCC iter.                  ...        0 min,  0.091 sec
     gradient                   ...        0 min,  0.020 sec
 * total energy  :  -195.4408072 Eh     change       -0.1295891E-02 Eh
   gradient norm :     0.0122497 Eh/α   predicted    -0.1401856E-02 (   8.18%)
   displ. norm   :     0.7394541 α      lambda       -0.1730300E-02
   maximum displ.:     0.3206434 α      in ANC's #13, #15, #29, ...

........................................................................
.............................. CYCLE   30 ..............................
........................................................................
   1   -198.5499862 -0.198550E+03  0.187E-01    0.67       0.0  T
   2   -198.5499950 -0.887856E-05  0.108E-01    0.70       1.0  T
   3   -198.5491577  0.837337E-03  0.700E-02    0.65       1.0  T
   4   -198.5500561 -0.898413E-03  0.111E-02    0.69       1.0  T
   5   -198.5500608 -0.470334E-05  0.749E-03    0.69       1.3  T
   6   -198.5500656 -0.478446E-05  0.348E-03    0.69       2.7  T
   7   -198.5500669 -0.130484E-05  0.139E-03    0.69       6.8  T
   8   -198.5500670 -0.103062E-06  0.659E-04    0.69      14.3  T
     SCC iter.                  ...        0 min,  0.091 sec
     gradient                   ...        0 min,  0.020 sec
 * total energy  :  -195.4419943 Eh     change       -0.1187132E-02 Eh
   gradient norm :     0.0130411 Eh/α   predicted    -0.1338209E-02 (  12.73%)
   displ. norm   :     0.6910623 α      lambda       -0.1355278E-02
   maximum displ.:     0.3177121 α      in ANC's #15, #13, #11, ...

........................................................................
.............................. CYCLE   31 ..............................
........................................................................
   1   -198.5471805 -0.198547E+03  0.170E-01    0.69       0.0  T
   2   -198.5471953 -0.148705E-04  0.977E-02    0.71       1.0  T
   3   -198.5467367  0.458645E-03  0.536E-02    0.68       1.0  T
   4   -198.5472263 -0.489631E-03  0.105E-02    0.70       1.0  T
   5   -198.5472318 -0.546401E-05  0.689E-03    0.70       1.4  T
   6   -198.5472356 -0.386304E-05  0.308E-03    0.70       3.1  T
   7   -198.5472367 -0.106115E-05  0.129E-03    0.70       7.3  T
   8   -198.5472368 -0.103982E-06  0.629E-04    0.70      15.0  T
     SCC iter.                  ...        0 min,  0.092 sec
     gradient                   ...        0 min,  0.020 sec
 * total energy  :  -195.4429437 Eh     change       -0.9493498E-03 Eh
   gradient norm :     0.0148786 Eh/α   predicted    -0.1001266E-02 (   5.47%)
   displ. norm   :     0.6073642 α      lambda       -0.1615664E-02
   maximum displ.:     0.2925622 α      in ANC's #15, #13, #11, ...

........................................................................
.............................. CYCLE   32 ..............................
........................................................................
   1   -198.5705159 -0.198571E+03  0.144E-01    0.71       0.0  T
   2   -198.5705287 -0.127766E-04  0.823E-02    0.71       1.0  T
   3   -198.5701556  0.373060E-03  0.483E-02    0.71       1.0  T
   4   -198.5705522 -0.396618E-03  0.106E-02    0.71       1.0  T
   5   -198.5705596 -0.738877E-05  0.590E-03    0.72       1.6  T
   6   -198.5705625 -0.286143E-05  0.289E-03    0.71       3.3  T
   7   -198.5705635 -0.965574E-06  0.106E-03    0.71       8.9  T
     SCC iter.                  ...        0 min,  0.081 sec
     gradient                   ...        0 min,  0.020 sec
 * total energy  :  -195.4438996 Eh     change       -0.9558764E-03 Eh
   gradient norm :     0.0193837 Eh/α   predicted    -0.1105832E-02 (  15.69%)
   displ. norm   :     0.7065130 α      lambda       -0.1211562E-02
   maximum displ.:     0.3404578 α      in ANC's #15, #13, #11, ...

........................................................................
.............................. CYCLE   33 ..............................
........................................................................
   1   -198.5589554 -0.198559E+03  0.175E-01    0.71       0.0  T
   2   -198.5589678 -0.124456E-04  0.100E-01    0.73       1.0  T
   3   -198.5585390  0.428857E-03  0.512E-02    0.70       1.0  T
   4   -198.5589971 -0.458144E-03  0.935E-03    0.72       1.0  T
   5   -198.5589983 -0.112233E-05  0.684E-03    0.72       1.4  T
   6   -198.5590033 -0.508512E-05  0.291E-03    0.72       3.3  T
   7   -198.5590042 -0.890871E-06  0.110E-03    0.72       8.6  T
   8   -198.5590043 -0.386779E-07  0.623E-04    0.72      15.2  T
     SCC iter.                  ...        0 min,  0.091 sec
     gradient                   ...        0 min,  0.020 sec
 * total energy  :  -195.4448548 Eh     change       -0.9552317E-03 Eh
   gradient norm :     0.0100767 Eh/α   predicted    -0.9081676E-03 (  -4.93%)
   displ. norm   :     0.7200530 α      lambda       -0.1023364E-02
   maximum displ.:     0.3610350 α      in ANC's #15, #13, #11, ...

........................................................................
.............................. CYCLE   34 ..............................
........................................................................
   1   -198.5601527 -0.198560E+03  0.169E-01    0.72       0.0  T
   2   -198.5601746 -0.219450E-04  0.966E-02    0.73       1.0  T
   3   -198.5600996  0.749949E-04  0.258E-02    0.72       1.0  T
   4   -198.5601797 -0.800696E-04  0.966E-03    0.73       1.0  T
   5   -198.5601848 -0.505488E-05  0.569E-03    0.72       1.7  T
   6   -198.5601876 -0.289371E-05  0.273E-03    0.73       3.5  T
   7   -198.5601886 -0.957560E-06  0.100E-03    0.73       9.4  T
     SCC iter.                  ...        0 min,  0.081 sec
     gradient                   ...        0 min,  0.020 sec
 * total energy  :  -195.4456308 Eh     change       -0.7760188E-03 Eh
   gradient norm :     0.0130371 Eh/α   predicted    -0.7769794E-03 (   0.12%)
   displ. norm   :     0.7497340 α      lambda       -0.9810088E-03
   maximum displ.:     0.3814908 α      in ANC's #15, #13, #11, ...

........................................................................
.............................. CYCLE   35 ..............................
........................................................................
   1   -198.5570853 -0.198557E+03  0.180E-01    0.73       0.0  T
   2   -198.5571086 -0.232548E-04  0.104E-01    0.73       1.0  T
   3   -198.5569936  0.114992E-03  0.316E-02    0.72       1.0  T
   4   -198.5571229 -0.129288E-03  0.939E-03    0.73       1.0  T
   5   -198.5571262 -0.339057E-05  0.481E-03    0.73       2.0  T
   6   -198.5571274 -0.117867E-05  0.186E-03    0.73       5.1  T
   7   -198.5571276 -0.210437E-06  0.108E-03    0.73       8.7  T
     SCC iter.                  ...        0 min,  0.082 sec
     gradient                   ...        0 min,  0.020 sec
 * total energy  :  -195.4464068 Eh     change       -0.7759939E-03 Eh
   gradient norm :     0.0123048 Eh/α   predicted    -0.7662246E-03 (  -1.26%)
   displ. norm   :     0.6612962 α      lambda       -0.1040945E-02
   maximum displ.:     0.3270226 α      in ANC's #15, #13, #10, ...

........................................................................
.............................. CYCLE   36 ..............................
........................................................................
   1   -198.5750858 -0.198575E+03  0.159E-01    0.74       0.0  T
   2   -198.5751113 -0.255052E-04  0.903E-02    0.73       1.0  T
   3   -198.5748227  0.288610E-03  0.452E-02    0.74       1.0  T
   4   -198.5751255 -0.302862E-03  0.123E-02    0.73       1.0  T
   5   -198.5751397 -0.141156E-04  0.597E-03    0.73       1.6  T
   6   -198.5751417 -0.200412E-05  0.321E-03    0.73       2.9  T
   7   -198.5751431 -0.142503E-05  0.110E-03    0.73       8.6  T
   8   -198.5751432 -0.101837E-06  0.605E-04    0.73      15.6  T
     SCC iter.                  ...        0 min,  0.092 sec
     gradient                   ...        0 min,  0.020 sec
 * total energy  :  -195.4471140 Eh     change       -0.7071461E-03 Eh
   gradient norm :     0.0110429 Eh/α   predicted    -0.7480809E-03 (   5.79%)
   displ. norm   :     0.7604626 α      lambda       -0.9316287E-03
   maximum displ.:     0.3790713 α      in ANC's #15, #13, #11, ...

........................................................................
.............................. CYCLE   37 ..............................
........................................................................
   1   -198.5661023 -0.198566E+03  0.189E-01    0.73       0.0  T
   2   -198.5661298 -0.274890E-04  0.108E-01    0.73       1.0  T
   3   -198.5659638  0.165999E-03  0.368E-02    0.72       1.0  T
   4   -198.5661471 -0.183305E-03  0.107E-02    0.73       1.0  T
   5   -198.5661507 -0.357601E-05  0.653E-03    0.73       1.4  T
   6   -198.5661538 -0.305567E-05  0.322E-03    0.73       2.9  T
   7   -198.5661551 -0.138917E-05  0.124E-03    0.73       7.6  T
   8   -198.5661552 -0.436012E-07  0.724E-04    0.73      13.0  T
     SCC iter.                  ...        0 min,  0.092 sec
     gradient                   ...        0 min,  0.020 sec
 * total energy  :  -195.4476978 Eh     change       -0.5837977E-03 Eh
   gradient norm :     0.0148863 Eh/α   predicted    -0.7352001E-03 (  25.93%)
   displ. norm   :     0.6258539 α      lambda       -0.7821626E-03
   maximum displ.:     0.3007948 α      in ANC's #15, #13, #10, ...

........................................................................
.............................. CYCLE   38 ..............................
........................................................................
   1   -198.5620300 -0.198562E+03  0.148E-01    0.73       0.0  T
   2   -198.5620459 -0.158969E-04  0.841E-02    0.73       1.0  T
   3   -198.5619184  0.127528E-03  0.305E-02    0.73       1.0  T
   4   -198.5620536 -0.135199E-03  0.906E-03    0.73       1.0  T
   5   -198.5620582 -0.458488E-05  0.540E-03    0.73       1.7  T
   6   -198.5620609 -0.278875E-05  0.248E-03    0.73       3.8  T
   7   -198.5620618 -0.812606E-06  0.810E-04    0.73      11.7  T
     SCC iter.                  ...        0 min,  0.082 sec
     gradient                   ...        0 min,  0.020 sec
 * total energy  :  -195.4482394 Eh     change       -0.5416509E-03 Eh
   gradient norm :     0.0096805 Eh/α   predicted    -0.5442663E-03 (   0.48%)
   displ. norm   :     0.5746162 α      lambda       -0.6963537E-03
   maximum displ.:     0.2439253 α      in ANC's #15, #13, #10, ...

........................................................................
.............................. CYCLE   39 ..............................
........................................................................
   1   -198.5701221 -0.198570E+03  0.143E-01    0.73       0.0  T
   2   -198.5701373 -0.152228E-04  0.813E-02    0.73       1.0  T
   3   -198.5699703  0.167024E-03  0.347E-02    0.73       1.0  T
   4   -198.5701501 -0.179852E-03  0.997E-03    0.73       1.0  T
   5   -198.5701556 -0.546420E-05  0.570E-03    0.73       1.7  T
   6   -198.5701579 -0.228623E-05  0.257E-03    0.73       3.7  T
   7   -198.5701586 -0.773937E-06  0.110E-03    0.73       8.6  T
     SCC iter.                  ...        0 min,  0.083 sec
     gradient                   ...        0 min,  0.020 sec
 * total energy  :  -195.4486045 Eh     change       -0.3650917E-03 Eh
   gradient norm :     0.0162578 Eh/α   predicted    -0.4631420E-03 (  26.86%)
   displ. norm   :     0.5499409 α      lambda       -0.7675011E-03
   maximum displ.:     0.2312811 α      in ANC's #15, #13, #10, ...

........................................................................
.............................. CYCLE   40 ..............................
........................................................................
   1   -198.5736036 -0.198574E+03  0.141E-01    0.73       0.0  T
   2   -198.5736399 -0.363346E-04  0.803E-02    0.74       1.0  T
   3   -198.5734491  0.190872E-03  0.391E-02    0.73       1.0  T
   4   -198.5736593 -0.210235E-03  0.101E-02    0.73       1.0  T
   5   -198.5736674 -0.813153E-05  0.475E-03    0.73       2.0  T
   6   -198.5736681 -0.703113E-06  0.304E-03    0.73       3.1  T
   7   -198.5736694 -0.127630E-05  0.105E-03    0.73       9.0  T
   8   -198.5736695 -0.120710E-06  0.488E-04    0.73      19.4  T
     SCC iter.                  ...        0 min,  0.094 sec
     gradient                   ...        0 min,  0.020 sec
 * total energy  :  -195.4490427 Eh     change       -0.4381944E-03 Eh
   gradient norm :     0.0121056 Eh/α   predicted    -0.4998054E-03 (  14.06%)
   displ. norm   :     0.5821705 α      lambda       -0.6277844E-03
   maximum displ.:     0.2426634 α      in ANC's #15, #13, #9, ...

........................................................................
.............................. CYCLE   41 ..............................
........................................................................
   1   -198.5686399 -0.198569E+03  0.147E-01    0.73       0.0  T
   2   -198.5686613 -0.213521E-04  0.841E-02    0.73       1.0  T
   3   -198.5685586  0.102664E-03  0.315E-02    0.73       1.0  T
   4   -198.5686755 -0.116866E-03  0.855E-03    0.73       1.1  T
   5   -198.5686776 -0.209690E-05  0.480E-03    0.73       2.0  T
   6   -198.5686788 -0.127123E-05  0.186E-03    0.73       5.1  T
   7   -198.5686791 -0.228076E-06  0.105E-03    0.73       9.0  T
     SCC iter.                  ...        0 min,  0.083 sec
     gradient                   ...        0 min,  0.020 sec
 * total energy  :  -195.4493468 Eh     change       -0.3041249E-03 Eh
   gradient norm :     0.0118364 Eh/α   predicted    -0.4202784E-03 (  38.19%)
   displ. norm   :     0.4483944 α      lambda       -0.4718143E-03
   maximum displ.:     0.1761367 α      in ANC's #13, #15, #9, ...

........................................................................
.............................. CYCLE   42 ..............................
........................................................................
   1   -198.5642621 -0.198564E+03  0.111E-01    0.73       0.0  T
   2   -198.5642691 -0.699082E-05  0.646E-02    0.74       1.0  T
   3   -198.5641082  0.160944E-03  0.318E-02    0.72       1.0  T
   4   -198.5642801 -0.171988E-03  0.632E-03    0.73       1.5  T
   5   -198.5642828 -0.268070E-05  0.391E-03    0.73       2.4  T
   6   -198.5642840 -0.118775E-05  0.188E-03    0.73       5.0  T
   7   -198.5642844 -0.421585E-06  0.617E-04    0.73      15.3  T
     SCC iter.                  ...        0 min,  0.080 sec
     gradient                   ...        0 min,  0.020 sec
 * total energy  :  -195.4496269 Eh     change       -0.2800583E-03 Eh
   gradient norm :     0.0104493 Eh/α   predicted    -0.2833425E-03 (   1.17%)
   displ. norm   :     0.5030397 α      lambda       -0.8372836E-03
   maximum displ.:     0.1912231 α      in ANC's #9, #14, #1, ...
 * RMSD in coord.:     1.0093339 α      energy gain  -0.1891781E-01 Eh

generating ANC from model Hessian ...
Using Lindh-Hessian (1995)
 Shifting diagonal of input Hessian by   4.998357596753523E-003
 Lowest  eigenvalues of input Hessian
   -0.000000   -0.000000   -0.000000   -0.000000   -0.000000    0.000000
    0.005000    0.005005    0.005012    0.005024    0.005035    0.005113
    0.005130    0.005162    0.005324    0.005377    0.005445    0.005586
 Highest eigenvalues
    2.287885    2.289962    2.613182    2.613452    2.649301    2.657808
 

........................................................................
.............................. CYCLE   43 ..............................
........................................................................
   1   -198.5971036 -0.198597E+03  0.957E-02    0.74       0.0  T
   2   -198.5971164 -0.127628E-04  0.549E-02    0.74       1.0  T
   3   -198.5970267  0.896465E-04  0.286E-02    0.75       1.0  T
   4   -198.5971257 -0.989316E-04  0.686E-03    0.74       1.4  T
   5   -198.5971305 -0.484812E-05  0.270E-03    0.74       3.5  T
   6   -198.5971308 -0.294957E-06  0.153E-03    0.74       6.2  T
   7   -198.5971309 -0.151484E-06  0.688E-04    0.74      13.7  T
   8   -198.5971310 -0.307313E-07  0.327E-04    0.74      28.9  T
     SCC iter.                  ...        0 min,  0.092 sec
     gradient                   ...        0 min,  0.020 sec
 * total energy  :  -195.4496369 Eh     change       -0.9996282E-05 Eh
   gradient norm :     0.0206491 Eh/α   predicted     0.0000000E+00 (-100.00%)
   displ. norm   :     0.1675028 α      lambda       -0.9470251E-03
   maximum displ.:     0.0576517 α      in ANC's #6, #28, #4, ...

........................................................................
.............................. CYCLE   44 ..............................
........................................................................
   1   -198.5771938 -0.198577E+03  0.608E-02    0.74       0.0  T
   2   -198.5771990 -0.515012E-05  0.342E-02    0.74       1.0  T
   3   -198.5771709  0.281056E-04  0.173E-02    0.74       1.0  T
   4   -198.5772035 -0.326251E-04  0.379E-03    0.74       2.5  T
   5   -198.5772042 -0.669616E-06  0.199E-03    0.74       4.7  T
   6   -198.5772044 -0.221618E-06  0.849E-04    0.74      11.1  T
     SCC iter.                  ...        0 min,  0.071 sec
     gradient                   ...        0 min,  0.020 sec
 * total energy  :  -195.4502158 Eh     change       -0.5789409E-03 Eh
   gradient norm :     0.0069227 Eh/α   predicted    -0.4867983E-03 ( -15.92%)
   displ. norm   :     0.2425721 α      lambda       -0.6486764E-03
   maximum displ.:     0.1351521 α      in ANC's #14, #12, #31, ...

........................................................................
.............................. CYCLE   45 ..............................
........................................................................
   1   -198.5587988 -0.198559E+03  0.148E-01    0.73       0.0  T
   2   -198.5588273 -0.284551E-04  0.822E-02    0.74       1.0  T
   3   -198.5587338  0.934377E-04  0.280E-02    0.73       1.0  T
   4   -198.5588468 -0.112914E-03  0.492E-03    0.73       1.9  T
   5   -198.5588478 -0.101606E-05  0.291E-03    0.73       3.2  T
   6   -198.5588480 -0.270404E-06  0.148E-03    0.73       6.4  T
     SCC iter.                  ...        0 min,  0.069 sec
     gradient                   ...        0 min,  0.020 sec
 * total energy  :  -195.4495879 Eh     change        0.6278880E-03 Eh
   gradient norm :     0.0214853 Eh/α   predicted    -0.3434239E-03 (-154.70%)
   displ. norm   :     0.1344318 α      lambda       -0.1671208E-02
   maximum displ.:     0.0498498 α      in ANC's #31, #12, #14, ...

........................................................................
.............................. CYCLE   46 ..............................
........................................................................
   1   -198.5718396 -0.198572E+03  0.110E-01    0.74       0.0  T
   2   -198.5718570 -0.173105E-04  0.606E-02    0.74       1.0  T
   3   -198.5718392  0.177734E-04  0.138E-02    0.74       1.0  T
   4   -198.5718653 -0.260874E-04  0.285E-03    0.74       3.3  T
   5   -198.5718656 -0.373601E-06  0.182E-03    0.74       5.2  T
   6   -198.5718658 -0.198019E-06  0.942E-04    0.74      10.0  T
     SCC iter.                  ...        0 min,  0.070 sec
     gradient                   ...        0 min,  0.020 sec
 * total energy  :  -195.4504477 Eh     change       -0.8597873E-03 Eh
   gradient norm :     0.0052973 Eh/α   predicted    -0.8507064E-03 (  -1.06%)
   displ. norm   :     0.1173552 α      lambda       -0.1490341E-03
   maximum displ.:     0.0408853 α      in ANC's #6, #14, #8, ...

........................................................................
.............................. CYCLE   47 ..............................
........................................................................
   1   -198.5724939 -0.198572E+03  0.426E-02    0.74       0.0  T
   2   -198.5724955 -0.163337E-05  0.241E-02    0.74       1.0  T
   3   -198.5724868  0.877220E-05  0.862E-03    0.74       1.1  T
   4   -198.5724967 -0.995145E-05  0.178E-03    0.74       5.3  T
   5   -198.5724967  0.565288E-07  0.145E-03    0.74       6.5  T
   6   -198.5724969 -0.276268E-06  0.456E-04    0.74      20.7  T
     SCC iter.                  ...        0 min,  0.074 sec
     gradient                   ...        0 min,  0.021 sec
 * total energy  :  -195.4505511 Eh     change       -0.1033890E-03 Eh
   gradient norm :     0.0034515 Eh/α   predicted    -0.7555100E-04 ( -26.93%)
   displ. norm   :     0.4193310 α      lambda       -0.4145654E-03
   maximum displ.:     0.1460499 α      in ANC's #6, #14, #8, ...

........................................................................
.............................. CYCLE   48 ..............................
........................................................................
   1   -198.5724392 -0.198572E+03  0.129E-01    0.74       0.0  T
   2   -198.5724500 -0.107720E-04  0.742E-02    0.73       1.0  T
   3   -198.5723951  0.549252E-04  0.217E-02    0.74       1.0  T
   4   -198.5724578 -0.627630E-04  0.511E-03    0.73       1.9  T
   5   -198.5724573  0.539595E-06  0.379E-03    0.74       2.5  T
   6   -198.5724589 -0.159847E-05  0.150E-03    0.74       6.3  T
   7   -198.5724591 -0.231609E-06  0.686E-04    0.74      13.8  T
   8   -198.5724591 -0.229974E-07  0.382E-04    0.74      24.8  T
     SCC iter.                  ...        0 min,  0.092 sec
     gradient                   ...        0 min,  0.020 sec
 * total energy  :  -195.4508135 Eh     change       -0.2623805E-03 Eh
   gradient norm :     0.0123624 Eh/α   predicted    -0.2437324E-03 (  -7.11%)
   displ. norm   :     0.5761316 α      lambda       -0.5447176E-03
   maximum displ.:     0.2115716 α      in ANC's #14, #6, #8, ...

........................................................................
.............................. CYCLE   49 ..............................
........................................................................
   1   -198.5720300 -0.198572E+03  0.170E-01    0.73       0.0  T
   2   -198.5720448 -0.148125E-04  0.980E-02    0.73       1.0  T
   3   -198.5719614  0.834335E-04  0.273E-02    0.74       1.0  T
   4   -198.5720550 -0.935949E-04  0.660E-03    0.73       1.4  T
   5   -198.5720544  0.586692E-06  0.503E-03    0.73       1.9  T
   6   -198.5720576 -0.323976E-05  0.189E-03    0.73       5.0  T
   7   -198.5720580 -0.329308E-06  0.756E-04    0.73      12.5  T
   8   -198.5720580 -0.220493E-08  0.424E-04    0.73      22.3  T
     SCC iter.                  ...        0 min,  0.093 sec
     gradient                   ...        0 min,  0.020 sec
 * total energy  :  -195.4510857 Eh     change       -0.2722008E-03 Eh
   gradient norm :     0.0118888 Eh/α   predicted    -0.3627643E-03 (  33.27%)
   displ. norm   :     0.4877723 α      lambda       -0.6485889E-03
   maximum displ.:     0.1871548 α      in ANC's #14, #6, #8, ...

........................................................................
.............................. CYCLE   50 ..............................
........................................................................
   1   -198.5707569 -0.198571E+03  0.149E-01    0.73       0.0  T
   2   -198.5707717 -0.148073E-04  0.853E-02    0.73       1.0  T
   3   -198.5707345  0.371645E-04  0.200E-02    0.73       1.0  T
   4   -198.5707810 -0.465218E-04  0.474E-03    0.73       2.0  T
   5   -198.5707812 -0.212356E-06  0.247E-03    0.73       3.8  T
   6   -198.5707816 -0.313747E-06  0.893E-04    0.73      10.6  T
     SCC iter.                  ...        0 min,  0.070 sec
     gradient                   ...        0 min,  0.020 sec
 * total energy  :  -195.4514866 Eh     change       -0.4009103E-03 Eh
   gradient norm :     0.0088350 Eh/α   predicted    -0.4014531E-03 (   0.14%)
   displ. norm   :     0.4152453 α      lambda       -0.3730191E-03
   maximum displ.:     0.1675684 α      in ANC's #6, #14, #4, ...

........................................................................
.............................. CYCLE   51 ..............................
........................................................................
   1   -198.5737393 -0.198574E+03  0.108E-01    0.73       0.0  T
   2   -198.5737461 -0.677388E-05  0.623E-02    0.73       1.0  T
   3   -198.5737040  0.421075E-04  0.169E-02    0.73       1.0  T
   4   -198.5737494 -0.453774E-04  0.443E-03    0.73       2.1  T
   5   -198.5737509 -0.154341E-05  0.252E-03    0.73       3.7  T
   6   -198.5737514 -0.421464E-06  0.135E-03    0.73       7.0  T
     SCC iter.                  ...        0 min,  0.070 sec
     gradient                   ...        0 min,  0.020 sec
 * total energy  :  -195.4517979 Eh     change       -0.3113337E-03 Eh
   gradient norm :     0.0072385 Eh/α   predicted    -0.2186711E-03 ( -29.76%)
   displ. norm   :     0.6744626 α      lambda       -0.5131778E-03
   maximum displ.:     0.2781441 α      in ANC's #6, #4, #14, ...

........................................................................
.............................. CYCLE   52 ..............................
........................................................................
   1   -198.5729696 -0.198573E+03  0.174E-01    0.74       0.0  T
   2   -198.5729832 -0.135704E-04  0.100E-01    0.74       1.0  T
   3   -198.5729250  0.582168E-04  0.208E-02    0.73       1.0  T
   4   -198.5729905 -0.655728E-04  0.596E-03    0.74       1.6  T
   5   -198.5729914 -0.853151E-06  0.420E-03    0.74       2.2  T
   6   -198.5729932 -0.182578E-05  0.149E-03    0.74       6.3  T
   7   -198.5729934 -0.214804E-06  0.618E-04    0.74      15.3  T
     SCC iter.                  ...        0 min,  0.081 sec
     gradient                   ...        0 min,  0.020 sec
 * total energy  :  -195.4522402 Eh     change       -0.4422531E-03 Eh
   gradient norm :     0.0053933 Eh/α   predicted    -0.3733142E-03 ( -15.59%)
   displ. norm   :     0.6650646 α      lambda       -0.5297287E-03
   maximum displ.:     0.2802044 α      in ANC's #6, #4, #1, ...

........................................................................
.............................. CYCLE   53 ..............................
........................................................................
   1   -198.5769451 -0.198577E+03  0.164E-01    0.74       0.0  T
   2   -198.5769567 -0.116782E-04  0.945E-02    0.74       1.0  T
   3   -198.5768848  0.718845E-04  0.216E-02    0.74       1.0  T
   4   -198.5769633 -0.784122E-04  0.601E-03    0.74       1.6  T
   5   -198.5769647 -0.144581E-05  0.396E-03    0.74       2.4  T
   6   -198.5769663 -0.162494E-05  0.121E-03    0.74       7.8  T
   7   -198.5769664 -0.118680E-06  0.607E-04    0.74      15.6  T
     SCC iter.                  ...        0 min,  0.080 sec
     gradient                   ...        0 min,  0.020 sec
 * total energy  :  -195.4526330 Eh     change       -0.3927988E-03 Eh
   gradient norm :     0.0093352 Eh/α   predicted    -0.3820183E-03 (  -2.74%)
   displ. norm   :     0.7402184 α      lambda       -0.5457489E-03
   maximum displ.:     0.3059896 α      in ANC's #6, #4, #1, ...

........................................................................
.............................. CYCLE   54 ..............................
........................................................................
   1   -198.5711163 -0.198571E+03  0.192E-01    0.74       0.0  T
   2   -198.5711350 -0.187111E-04  0.110E-01    0.74       1.0  T
   3   -198.5710988  0.361927E-04  0.199E-02    0.73       1.0  T
   4   -198.5711445 -0.457039E-04  0.584E-03    0.74       1.6  T
   5   -198.5711446 -0.836610E-07  0.367E-03    0.74       2.6  T
   6   -198.5711459 -0.130827E-05  0.150E-03    0.74       6.3  T
   7   -198.5711462 -0.240115E-06  0.727E-04    0.74      13.0  T
     SCC iter.                  ...        0 min,  0.080 sec
     gradient                   ...        0 min,  0.020 sec
 * total energy  :  -195.4530294 Eh     change       -0.3964300E-03 Eh
   gradient norm :     0.0091090 Eh/α   predicted    -0.4223903E-03 (   6.55%)
   displ. norm   :     0.6762117 α      lambda       -0.4041335E-03
   maximum displ.:     0.2849439 α      in ANC's #6, #4, #1, ...

........................................................................
.............................. CYCLE   55 ..............................
........................................................................
   1   -198.5646148 -0.198565E+03  0.171E-01    0.73       0.0  T
   2   -198.5646300 -0.152124E-04  0.986E-02    0.74       1.0  T
   3   -198.5645891  0.409632E-04  0.209E-02    0.73       1.0  T
   4   -198.5646382 -0.491090E-04  0.565E-03    0.73       1.7  T
   5   -198.5646391 -0.892514E-06  0.288E-03    0.73       3.3  T
   6   -198.5646395 -0.449437E-06  0.124E-03    0.73       7.6  T
     SCC iter.                  ...        0 min,  0.068 sec
     gradient                   ...        0 min,  0.020 sec
 * total energy  :  -195.4533382 Eh     change       -0.3087563E-03 Eh
   gradient norm :     0.0111425 Eh/α   predicted    -0.2944665E-03 (  -4.63%)
   displ. norm   :     0.6167075 α      lambda       -0.6859966E-03
   maximum displ.:     0.2579875 α      in ANC's #6, #4, #1, ...

........................................................................
.............................. CYCLE   56 ..............................
........................................................................
   1   -198.5797740 -0.198580E+03  0.140E-01    0.75       0.0  T
   2   -198.5797804 -0.634710E-05  0.798E-02    0.74       1.0  T
   3   -198.5794633  0.317021E-03  0.439E-02    0.76       1.0  T
   4   -198.5797993 -0.335961E-03  0.836E-03    0.74       1.1  T
   5   -198.5798048 -0.552990E-05  0.422E-03    0.74       2.2  T
   6   -198.5798058 -0.987277E-06  0.202E-03    0.74       4.7  T
   7   -198.5798063 -0.530183E-06  0.660E-04    0.74      14.3  T
     SCC iter.                  ...        0 min,  0.080 sec
     gradient                   ...        0 min,  0.020 sec
 * total energy  :  -195.4536534 Eh     change       -0.3152315E-03 Eh
[...]
    44   6 C      2.986     0.020    27.558     8.611
    45   6 C      3.126    -0.005    27.954     8.657
    46   6 C      3.128    -0.013    28.131     8.684
    47   6 C      3.804    -0.053    21.515     6.604
    48   6 C      3.753    -0.100    22.460     6.758
    49   6 C      3.804    -0.054    21.540     6.607
    50   6 C      3.753    -0.100    22.461     6.758
    51   6 C      2.938    -0.027    28.682     8.783
    52   6 C      2.903    -0.031    28.780     8.796
    53   6 C      2.907    -0.013    28.348     8.730
    54   6 C      2.900    -0.032    28.788     8.797
    55   6 C      2.904    -0.006    28.171     8.703
    56   6 C      3.012    -0.039    28.945     8.825
    57   6 C      2.873     0.226    23.263     7.907
    58   8 O      0.856    -0.362    20.933     6.134
    59   6 C      3.045    -0.022    28.501     8.756
    60   6 C      3.039     0.005    27.879     8.660
    61   6 C      2.913    -0.050    29.252     8.869
    62   6 C      2.782     0.161    24.500     8.107
    63   6 C      2.782     0.159    24.550     8.116
    64   6 C      2.913    -0.038    28.941     8.822
    65   9 F      0.787    -0.190    11.133     3.941
    66   9 F      0.787    -0.188    11.113     3.938
    67   6 C      3.018     0.032    27.261     8.565
    68   6 C      2.947     0.005    27.921     8.667
    69   6 C      1.937     0.123    28.067     8.556
    70   7 N      0.911    -0.241    26.280     7.414
    71   6 C      1.938     0.120    28.143     8.567
    72   7 N      0.911    -0.237    26.189     7.401
    73   1 H      0.926     0.089     1.890     2.150
    74   1 H      0.926     0.090     1.880     2.144
    75   1 H      0.926     0.072     2.062     2.245
    76   1 H      0.924     0.053     2.287     2.365
    77   1 H      0.925     0.049     2.329     2.386
    78   1 H      0.925     0.036     2.508     2.476
    79   1 H      0.925     0.048     2.339     2.392
    80   1 H      0.925     0.037     2.495     2.470
    81   1 H      0.924     0.045     2.389     2.417
    82   1 H      0.924     0.040     2.447     2.446
    83   1 H      0.925     0.039     2.461     2.453
    84   1 H      0.925     0.039     2.463     2.454
    85   1 H      0.925     0.037     2.489     2.467
    86   1 H      0.925     0.050     2.322     2.383
    87   1 H      0.925     0.055     2.258     2.350
    88   1 H      0.925     0.043     2.405     2.425
    89   1 H      0.925     0.044     2.392     2.419
    90   1 H      0.860     0.168     1.285     1.776
    91   1 H      0.926     0.041     2.435     2.440
    92   1 H      0.860     0.166     1.297     1.784
    93   1 H      0.926     0.038     2.469     2.457
    94   1 H      0.925     0.058     2.226     2.333
    95   1 H      0.925     0.039     2.457     2.451
    96   1 H      0.924     0.035     2.516     2.480
    97   1 H      0.925     0.046     2.372     2.409
    98   1 H      0.925     0.037     2.487     2.466
    99   1 H      0.925     0.039     2.462     2.454
   100   1 H      0.925     0.038     2.474     2.460
   101   1 H      0.924     0.040     2.447     2.446
   102   1 H      0.924     0.046     2.370     2.407
   103   1 H      0.925     0.041     2.436     2.441
   104   1 H      0.925     0.041     2.433     2.439
   105   1 H      0.925     0.038     2.476     2.460
   106   1 H      0.925     0.055     2.263     2.352
   107   1 H      0.925     0.054     2.267     2.355
   108   1 H      0.925     0.052     2.301     2.372
   109   1 H      0.926     0.048     2.348     2.396
   110   1 H      0.925     0.071     2.075     2.252
   111   1 H      0.926     0.087     1.905     2.158
   112   1 H      0.926     0.092     1.862     2.134

 Mol. C6AA /au·bohr⁶  :     190602.542620
 Mol. C8AA /au·bohr⁸  :    4961799.012608
 Mol. α(0) /au        :        690.917905


Wiberg/Mayer (AO) data.
largest (>0.10) Wiberg bond orders for each atom
          total WBO             WBO to atom ...
     1  C   3.969        C    8 1.405    C    2 1.386    H   73 0.954
     2  C   3.887        C    1 1.386    C    4 1.337    F    3 0.988
     3  F   1.127        C    2 0.988
     4  C   3.880        C    6 1.382    C    2 1.337    F    5 0.984
     5  F   1.121        C    4 0.984
     6  C   3.976        C    7 1.422    C    4 1.382    H   74 0.960
     7  C   3.975        C    6 1.422    C    8 1.302    C   16 1.011
     8  C   3.982        C    1 1.405    C    7 1.302    C    9 1.076
     9  C   3.965        C   10 1.469    C   15 1.162    C    8 1.076
    10  C   3.937        C    9 1.469    C   13 1.102    C   11 1.097
    11  C   3.944        N   12 2.761    C   10 1.097
    12  N   2.964        C   11 2.761
    13  C   3.944        N   14 2.744    C   10 1.102
    14  N   2.958        C   13 2.744
    15  C   3.947        C   18 1.441    C    9 1.162    C   16 1.078
    16  C   3.920        O   17 1.715    C   15 1.078    C    7 1.011
    17  O   2.102        C   16 1.715    S   20 0.107
    18  C   3.939        C   15 1.441    C   19 1.350    H   75 0.930
    19  C   3.928        C   18 1.350    C   23 1.285    S   20 1.106
    20  S   2.712        C   21 1.178    C   19 1.106    O   17 0.107
    21  C   3.933        C   22 1.319    C   28 1.244    S   20 1.178
    22  C   3.945        C   23 1.420    C   21 1.319    C   26 1.012
    23  C   3.958        C   22 1.420    C   19 1.285    C   24 1.018
    24  C   3.994        C   23 1.018    C   25 0.995    H   77 0.964    H   76 0.962
    25  C   3.992        C   24 0.995    H   78 0.986    H   80 0.985    H   79 0.985
    26  C   3.995        C   22 1.012    C   27 1.000    H   82 0.969    H   81 0.965
    27  C   3.992        C   26 1.000    H   85 0.987    H   84 0.986    H   83 0.985
    28  C   3.923        C   29 1.576    C   21 1.244    H   86 0.954
    29  C   3.939        C   28 1.576    C   30 1.261    H   87 0.956
    30  C   3.939        C   31 1.581    C   29 1.261    H   88 0.961
    31  C   3.914        C   30 1.581    C   32 1.222    H   89 0.961
    32  C   3.901        C   39 1.361    C   31 1.222    N   33 1.159
    33  N   3.522        C   34 1.185    C   32 1.159    H   90 0.943
    34  C   3.919        C   35 1.354    C   38 1.200    N   33 1.185
    35  C   3.925        C   36 1.370    C   34 1.354    H   91 0.972
    36  C   3.901        C   35 1.370    C   40 1.213    N   37 1.159
    37  N   3.519        C   38 1.181    C   36 1.159    H   92 0.942
    38  C   3.922        C   39 1.361    C   34 1.200    N   37 1.181
    39  C   3.922        C   32 1.361    C   38 1.361    H   93 0.971
    40  C   3.941        C   41 1.603    C   36 1.213    H   94 0.956
    41  C   3.939        C   40 1.603    C   42 1.227    H   95 0.950
    42  C   3.906        C   46 1.374    C   41 1.227    S   43 1.135
    43  S   2.549        C   42 1.135    C   44 1.103
    44  C   3.913        C   45 1.361    C   51 1.272    S   43 1.103
    45  C   3.934        C   44 1.361    C   46 1.357    C   49 1.013
    46  C   3.938        C   42 1.374    C   45 1.357    C   47 1.011
    47  C   3.996        C   46 1.011    C   48 1.000    H   97 0.969    H   96 0.968
    48  C   3.992        C   47 1.000    H  100 0.988    H   98 0.987    H   99 0.986
    49  C   3.996        C   45 1.013    C   50 0.997    H  101 0.968    H  102 0.968
    50  C   3.991        C   49 0.997    H  105 0.988    H  103 0.987    H  104 0.985
    51  C   3.917        C   52 1.537    C   44 1.272    H  106 0.951
    52  C   3.952        C   51 1.537    C   53 1.299    H  107 0.956
    53  C   3.949        C   54 1.513    C   52 1.299    H  108 0.961
    54  C   3.925        C   53 1.513    C   55 1.314    H  109 0.956
    55  C   3.934        C   56 1.478    C   54 1.314    H  110 0.954
    56  C   3.912        C   55 1.478    C   67 1.164    C   57 1.036
    57  C   3.924        O   58 1.769    C   56 1.036    C   59 1.006
    58  O   2.042        C   57 1.769
    59  C   3.973        C   64 1.422    C   60 1.301    C   57 1.006
    60  C   3.981        C   61 1.406    C   59 1.301    C   67 1.071
    61  C   3.972        C   60 1.406    C   62 1.386    H  111 0.956
    62  C   3.888        C   61 1.386    C   63 1.337    F   66 0.987
    63  C   3.881        C   64 1.382    C   62 1.337    F   65 0.985
    64  C   3.977        C   59 1.422    C   63 1.382    H  112 0.960
    65  F   1.122        C   63 0.985
    66  F   1.126        C   62 0.987
    67  C   3.969        C   68 1.468    C   56 1.164    C   60 1.071
    68  C   3.950        C   67 1.468    C   71 1.101    C   69 1.099
    69  C   3.946        N   70 2.761    C   68 1.099
    70  N   2.976        C   69 2.761
    71  C   3.945        N   72 2.761    C   68 1.101
    72  N   2.962        C   71 2.761
    73  H   0.992        C    1 0.954
    74  H   0.991        C    6 0.960
    75  H   0.994        C   18 0.930
    76  H   0.996        C   24 0.962
    77  H   0.997        C   24 0.964
    78  H   0.999        C   25 0.986
    79  H   0.996        C   25 0.985
    80  H   0.999        C   25 0.985
    81  H   0.997        C   26 0.965
    82  H   0.997        C   26 0.969
    83  H   0.998        C   27 0.985
    84  H   0.997        C   27 0.986
    85  H   0.999        C   27 0.987
    86  H   0.997        C   28 0.954
    87  H   0.997        C   29 0.956
    88  H   0.998        C   30 0.961
    89  H   0.997        C   31 0.961
    90  H   0.972        N   33 0.943
    91  H   0.998        C   35 0.972
    92  H   0.972        N   37 0.942
    93  H   0.998        C   39 0.971
    94  H   0.996        C   40 0.956
    95  H   0.998        C   41 0.950
    96  H   0.998        C   47 0.968
    97  H   0.997        C   47 0.969
    98  H   0.999        C   48 0.987
    99  H   0.997        C   48 0.986
   100  H   0.999        C   48 0.988
   101  H   0.997        C   49 0.968
   102  H   0.997        C   49 0.968
   103  H   0.998        C   50 0.987
   104  H   0.997        C   50 0.985
   105  H   0.999        C   50 0.988
   106  H   0.997        C   51 0.951
   107  H   0.997        C   52 0.956
   108  H   0.997        C   53 0.961
   109  H   0.997        C   54 0.956
   110  H   0.993        C   55 0.954
   111  H   0.992        C   61 0.956
   112  H   0.991        C   64 0.960

molecular dipole:
                 x           y           z       tot (Debye)
 q only:        2.714       2.204       4.519
   full:        2.754       1.624       4.859      14.785
molecular quadrupole (traceless):
                xx          xy          yy          xz          yz          zz
 q only:       61.553     146.083    -224.063     151.591    -221.024     162.510
  q+dip:       50.282     127.137    -188.875     168.233    -228.617     138.593
   full:       51.259     129.857    -195.930     160.358    -227.450     144.671

           -------------------------------------------------
          |                Geometry Summary                 |
           -------------------------------------------------

      molecular mass/u    :      993.1066000
   center of mass at/Å    :        8.0461784     -14.3360148       0.3658316
  moments of inertia/u·Å² :        0.1343425E+05   0.1162830E+06   0.1231381E+06
rotational constants/cm⁻¹ :        0.1254825E-02   0.1449708E-03   0.1369003E-03

 * 103 selected distances

     #   Z        #   Z                                     value/Å
     1   6 C      2   6 C                                 1.3876944
     2   6 C      3   9 F                                 1.3391789
     2   6 C      4   6 C                                 1.3936877
     4   6 C      5   9 F                                 1.3403783
     4   6 C      6   6 C                                 1.3860849
     6   6 C      7   6 C                                 1.3797355
     1   6 C      8   6 C                                 1.3854664
     7   6 C      8   6 C                                 1.4041747
     9   6 C     10   6 C                                 1.3738659
    11   6 C     12   7 N                                 1.1480170
    13   6 C     14   7 N                                 1.1497288
    16   6 C     17   8 O                                 1.2177552
    15   6 C     18   6 C                                 1.3804984
    18   6 C     19   6 C                                 1.3930431
    19   6 C     20  16 S                                 1.7454458 (max)
    20  16 S     21   6 C                                 1.7299558
    21   6 C     22   6 C                                 1.4043516
    19   6 C     23   6 C                                 1.4146388
    22   6 C     23   6 C                                 1.3901083
    24   6 C     25   6 C                                 1.5314096
    26   6 C     27   6 C                                 1.5303228
    21   6 C     28   6 C                                 1.4138505
    28   6 C     29   6 C                                 1.3617059
    29   6 C     30   6 C                                 1.4113125
    30   6 C     31   6 C                                 1.3608304
    31   6 C     32   6 C                                 1.4145382
    32   6 C     33   7 N                                 1.3816952
    33   7 N     34   6 C                                 1.3579827
    34   6 C     35   6 C                                 1.3900569
    35   6 C     36   6 C                                 1.4015727
    36   6 C     37   7 N                                 1.3811688
    34   6 C     38   6 C                                 1.4204468
    37   7 N     38   6 C                                 1.3583959
    32   6 C     39   6 C                                 1.4031507
    38   6 C     39   6 C                                 1.3881810
    36   6 C     40   6 C                                 1.4156894
    40   6 C     41   6 C                                 1.3582497
    41   6 C     42   6 C                                 1.4163630
    42   6 C     43  16 S                                 1.7365707
    43  16 S     44   6 C                                 1.7450176
    44   6 C     45   6 C                                 1.3963280
    42   6 C     46   6 C                                 1.3947953
    45   6 C     46   6 C                                 1.4001310
    47   6 C     48   6 C                                 1.5304811
    49   6 C     50   6 C                                 1.5309378
    44   6 C     51   6 C                                 1.4065909
    51   6 C     52   6 C                                 1.3658740
    52   6 C     53   6 C                                 1.4033088
    53   6 C     54   6 C                                 1.3695360
    54   6 C     55   6 C                                 1.4002709
    55   6 C     56   6 C                                 1.3741945
    57   6 C     58   8 O                                 1.2111197
    59   6 C     60   6 C                                 1.4057876
    60   6 C     61   6 C                                 1.3847913
    61   6 C     62   6 C                                 1.3874728
    62   6 C     63   6 C                                 1.3939607
    59   6 C     64   6 C                                 1.3800969
    63   6 C     64   6 C                                 1.3862670
    63   6 C     65   9 F                                 1.3401732
    62   6 C     66   9 F                                 1.3392635
    67   6 C     68   6 C                                 1.3736268
    69   6 C     70   7 N                                 1.1483676
    71   6 C     72   7 N                                 1.1483949
     1   6 C     73   1 H                                 1.0774397
     6   6 C     74   1 H                                 1.0782162
    18   6 C     75   1 H                                 1.0806799
    24   6 C     76   1 H                                 1.0916280
    24   6 C     77   1 H                                 1.0900300
    25   6 C     78   1 H                                 1.0871873
    25   6 C     79   1 H                                 1.0866033
    25   6 C     80   1 H                                 1.0874432
    26   6 C     81   1 H                                 1.0904004
    26   6 C     82   1 H                                 1.0915408
    27   6 C     83   1 H                                 1.0868944
    27   6 C     84   1 H                                 1.0875019
    27   6 C     85   1 H                                 1.0876790
    28   6 C     86   1 H                                 1.0816600
    29   6 C     87   1 H                                 1.0823817
    30   6 C     88   1 H                                 1.0812511
    31   6 C     89   1 H                                 1.0831852
    33   7 N     90   1 H                                 1.0055143
    35   6 C     91   1 H                                 1.0713188
    37   7 N     92   1 H                                 1.0043831 (min)
    39   6 C     93   1 H                                 1.0707517
    40   6 C     94   1 H                                 1.0815100
    41   6 C     95   1 H                                 1.0814582
    47   6 C     96   1 H                                 1.0920029
    47   6 C     97   1 H                                 1.0899082
    48   6 C     98   1 H                                 1.0877912
    48   6 C     99   1 H                                 1.0874832
    48   6 C    100   1 H                                 1.0876599
    49   6 C    101   1 H                                 1.0912342
    49   6 C    102   1 H                                 1.0904949
    50   6 C    103   1 H                                 1.0875084
    50   6 C    104   1 H                                 1.0873287
    50   6 C    105   1 H                                 1.0877231
    51   6 C    106   1 H                                 1.0820361
    52   6 C    107   1 H                                 1.0822850
    53   6 C    108   1 H                                 1.0831561
    54   6 C    109   1 H                                 1.0808053
    55   6 C    110   1 H                                 1.0851937
    61   6 C    111   1 H                                 1.0777787
    64   6 C    112   1 H                                 1.0782747

 * 7 distinct bonds (by element types)

   Z      Z             #   av. dist./Å        max./Å        min./Å
   1 H    6 C          38     1.0846164     1.0920029     1.0707517
   6 C    6 C          45     1.4043440     1.5314096     1.3582497
   1 H    7 N           2     1.0049487     1.0055143     1.0043831
   6 C    7 N           8     1.2592189     1.3816952     1.1480170
   6 C    8 O           2     1.2144374     1.2177552     1.2111197
   6 C    9 F           4     1.3397485     1.3403783     1.3391789
   6 C   16 S           4     1.7392475     1.7454458     1.7299558


optimized geometry written to: xtbopt.xyz


           -------------------------------------------------
          | TOTAL ENERGY             -195.460542102170 Eh   |
          | GRADIENT NORM               0.000971989441 Eh/α |
          | HOMO-LUMO GAP               0.720397140622 eV   |
           -------------------------------------------------

------------------------------------------------------------------------
 * finished run on 2021/05/20 at 21:02:40.512     
------------------------------------------------------------------------
 total:
 * wall-time:     0 d,  0 h,  0 min, 24.978 sec
 *  cpu-time:     0 d,  0 h,  4 min, 58.856 sec
 * ratio c/w:    11.965 speedup
 SCF:
 * wall-time:     0 d,  0 h,  0 min,  0.230 sec
 *  cpu-time:     0 d,  0 h,  0 min,  2.723 sec
 * ratio c/w:    11.843 speedup
 ANC optimizer:
 * wall-time:     0 d,  0 h,  0 min, 24.690 sec
 *  cpu-time:     0 d,  0 h,  4 min, 55.568 sec
 * ratio c/w:    11.971 speedup

