      -----------------------------------------------------------      
     |                   =====================                   |     
     |                           x T B                           |     
     |                   =====================                   |     
     |                         S. Grimme                         |     
     |          Mulliken Center for Theoretical Chemistry        |     
     |                    University of Bonn                     |     
     |                Version 6.2 RC2 (SAW190805)                |     
      -----------------------------------------------------------      

   This program is distributed in the hope that it will be useful,
   but WITHOUT ANY WARRANTY; without even the implied warranty of
   MERCHANTABILITY or FITNESS FOR A PARTICULAR PURPOSE.
   
   FOR NON-COMMERCIAL, ACADEMIA USE ONLY.
   
   Cite this work as:
   * S. Grimme, C. Bannwarth, P. Shushkov, J. Chem. Theory Comput., 2017,
     13, 1989-2009. DOI: 10.1021/acs.jctc.7b00118
   * C. Bannwarth, S. Ehlert and S. Grimme., J. Chem. Theory Comput., 2019,
     15, 1652-1671. DOI: 10.1021/acs.jctc.8b01176
   * P. Pracht, E. Caldeweyher, S. Ehlert, S. Grimme, ChemRxiv, 2019, preprint.
     DOI: 10.26434/chemrxiv.8326202.v1
   
   for DFT-D4:
   * E. Caldeweyher, C. Bannwarth and S. Grimme, J. Chem. Phys., 2017,
     147, 034112. DOI: 10.1063/1.4993215
   * E. Caldeweyher, S. Ehlert, A. Hansen, H. Neugebauer, S. Spicher,
     C. Bannwarth and S. Grimme, J. Chem. Phys., 2019, 150, 154122.
     DOI: 10.1063/1.5090222
   
   for sTDA-xTB:
   * S. Grimme and C. Bannwarth, J. Chem. Phys., 2016, 145, 054103.
     DOI: 10.1063/1.4959605
   
   in the mass-spec context:
   * V. Asgeirsson, C. Bauer and S. Grimme, Chem. Sci., 2017, 8, 4879.
     DOI: 10.1039/c7sc00601b
   
   for metadynamics refer to:
   * S. Grimme, J. Chem. Theory Comput., 2019, 155, 2847-2862
     DOI: 10.1021/acs.jctc.9b00143
   
   with help from (in alphabetical order)
   C. Bannwarth, F. Bohle, G. Brandenburg, E. Caldeweyher, M. Checinski,
   S. Dohm, S. Ehlert, S. Ehrlich, F. März, H. Neugebauer, J. Pisarek,
   P. Pracht, P. Shushkov, and S. Spicher.
   
 * started run on 2021/05/28 at 22:15:44.175     

           -------------------------------------------------
          |                Calculation Setup                |
           -------------------------------------------------

          program call               : /ihome/ghutchison/geoffh/xtb/xtb /ihome/ghutchison/blp62/GA/running_GA/more_units/generations/88/228_239_103_239_228.xyz -opt
          hostname                   : smp-n208
          coordinate file            : /ihome/ghutchison/blp62/GA/running_GA/more_units/generations/88/228_239_103_239_228.xyz
          omp threads                :                    12
          number of atoms            :                   130
          number of electrons        :                   394
          charge                     :                     0
          spin                       :                   0.0
          first test random number   :      0.44346091788922


########################################################################
# WARNING! Please study the warnings concerning your input carefully
#  - XTBPATH is not set, using XTBHOME instead
#  - the use of '-opt' is discouraged, please use '--opt' next time
########################################################################

           ------------------------------------------------- 
          |                 G F N 2 - x T B                 |
          | Geometry, Frequencies, Noncovalent interactions |
          |            JCTC 2019 parametrisation            |
           ------------------------------------------------- 
             KAB for C  - Si     :                1.0500
             KAB for H  - Pd     :                0.9500
             k(s)              :                1.8500
             k(p)              :                2.2300
             k(d)              :                2.2300
             k(f)              :                2.0000
             kEN (H0ij)        :               -2.0000
             D4 a1             :                0.5200
             D4 a2             :                5.0000
             D4 s6             :                1.0000
             D4 s8             :                2.7000
             D4 s9             :                5.0000
             alphaj            :                2.0000

  Z AO/shell   Hii/eV     exponent
  1     Wed Apr 25 08:07:45 CEST 2018   EN: 2.200 GM2: 0.406  GM3: 0.0800  RAES: 1.40
     1s    -10.707211    1.230000
  6     Wed Apr 25 08:07:45 CEST 2018   EN: 2.550 GM2: 0.538  GM3: 0.1500  RAES: 3.00
     2s    -13.970922    2.096432
     2p    -10.063292    1.800000
  7     Wed Apr 25 08:07:45 CEST 2018   EN: 3.040 GM2: 0.461  GM3:-0.0640  RAES: 1.90
     2s    -16.686243    2.339881
     2p    -12.523956    2.014332
  8     Wed Apr 25 08:07:45 CEST 2018   EN: 3.440 GM2: 0.452  GM3:-0.0517  RAES: 1.80
     2s    -20.229985    2.439742
     2p    -15.503117    2.137023
 16     Tue Apr 24 11:44:34 CEST 2018   EN: 2.580 GM2: 0.340  GM3:-0.0502  RAES: 3.10
     3s    -20.029654    1.981333
     3p    -11.377694    2.025643
     3d     -0.420282    1.702555

           ------------------------------------------------- 
          |        Self-Consistent Charge Iterations        |
           ------------------------------------------------- 

          ...................................................
          :                      SETUP                      :
          :.................................................:
          :  # basis functions                 388          :
          :  # atomic orbitals                 384          :
          :  # shells                          212          :
          :  # electrons                       394          :
          :  max. iterations                   250          :
          :  Hamiltonian                  GFN2-xTB          :
          :  restarted?                      false          :
          :  GBSA solvation                  false          :
          :  PC potential                    false          :
          :  electronic temp.          300.0000000     K    :
          :  accuracy                    1.0000000          :
          :  -> integral cutoff          0.2500000E+02      :
          :  -> integral neglect         0.1000000E-07      :
          :  -> SCF convergence          0.1000000E-05 Eh   :
          :  -> wf. convergence          0.1000000E-03 e    :
          :  Broyden damping             0.4000000          :
          ...................................................

 iter      E             dE          RMSdq      gap      omega  full diag
   1   -220.3582552 -0.220358E+03  0.435E+00    1.18       0.0  T
   2   -220.0906595  0.267596E+00  0.273E+00    0.10       1.0  T
   3   -215.8088958  0.428176E+01  0.283E+00    0.03       1.0  T
   4   -209.0524865  0.675641E+01  0.360E+00    0.08       1.0  T
   5   -220.0095583 -0.109571E+02  0.163E+00    0.51       1.0  T
   6   -220.7540342 -0.744476E+00  0.848E-01    0.83       1.0  T
   7   -220.7929869 -0.389527E-01  0.541E-01    0.56       1.0  T
   8   -220.7989529 -0.596603E-02  0.405E-01    0.43       1.0  T
   9   -220.7887407  0.102122E-01  0.245E-01    0.05       1.0  T
  10   -220.8059495 -0.172088E-01  0.206E-01    0.34       1.0  T
  11   -220.8095034 -0.355396E-02  0.877E-02    0.12       1.0  T
  12   -220.8090055  0.497895E-03  0.106E-01    0.22       1.0  T
  13   -220.8091173 -0.111783E-03  0.697E-02    0.11       1.0  T
  14   -220.8111624 -0.204509E-02  0.350E-02    0.14       1.0  T
  15   -220.8115251 -0.362752E-03  0.109E-02    0.14       1.0  T
  16   -220.8115706 -0.454151E-04  0.671E-03    0.14       1.3  T
  17   -220.8115592  0.113682E-04  0.787E-03    0.14       1.1  T
  18   -220.8115649 -0.566972E-05  0.584E-03    0.14       1.5  T
  19   -220.8115733 -0.840340E-05  0.285E-03    0.14       3.1  T
  20   -220.8115752 -0.190393E-05  0.103E-03    0.14       8.5  T
  21   -220.8115757 -0.498021E-06  0.376E-04    0.14      23.3  T
  22   -220.8115757 -0.661520E-07  0.178E-04    0.14      49.4  T

   *** convergence criteria satisfied after 22 iterations ***

         #    Occupation            Energy/Eh            Energy/eV
      -------------------------------------------------------------
         1        2.0000           -0.7775384             -21.1579
       ...           ...                  ...                  ...
       191        2.0000           -0.3849283             -10.4744
       192        2.0000           -0.3845545             -10.4643
       193        2.0000           -0.3824154             -10.4061
       194        2.0000           -0.3793948             -10.3239
       195        2.0000           -0.3769898             -10.2584
       196        2.0000           -0.3730946             -10.1524
       197        1.8260           -0.3650415              -9.9333 (HOMO)
       198        0.0953           -0.3599631              -9.7951 (LUMO)
       199        0.0787           -0.3597731              -9.7899
       200                         -0.3345302              -9.1030
       201                         -0.3236222              -8.8062
       202                         -0.3227967              -8.7837
       ...                                ...                  ...
       384                          0.7549051              20.5420
      -------------------------------------------------------------
                  HL-Gap            0.0050783 Eh            0.1382 eV
             Fermi-level           -0.3628082 Eh           -9.8725 eV

 SCC (total)                   0 d,  0 h,  0 min,  0.692 sec
 SCC setup                      ...        0 min,  0.003 sec (  0.428%)
 Dispersion                     ...        0 min,  0.006 sec (  0.819%)
 integral evaluation            ...        0 min,  0.033 sec (  4.777%)
 zeroth order Hamiltonian       ...        0 min,  0.001 sec (  0.210%)
 iterations                     ...        0 min,  0.621 sec ( 89.698%)
 molecular gradient             ...        0 min,  0.026 sec (  3.703%)
 printout                       ...        0 min,  0.002 sec (  0.346%)

         :::::::::::::::::::::::::::::::::::::::::::::::::::::
         ::                     SUMMARY                     ::
         :::::::::::::::::::::::::::::::::::::::::::::::::::::
         :: total energy            -217.873803926577 Eh    ::
         :: gradient norm              0.210719983608 Eh/a0 ::
         :: HOMO-LUMO gap              0.138188016710 eV    ::
         ::.................................................::
         :: SCC energy              -220.811575734707 Eh    ::
         :: -> isotropic ES            0.229846207574 Eh    ::
         :: -> anisotropic ES          0.018594078308 Eh    ::
         :: -> anisotropic XC          0.098629560719 Eh    ::
         :: -> dispersion             -0.181314122872 Eh    ::
         :: repulsion energy           2.935149119038 Eh    ::
         :: add. restraining           0.000000000000 Eh    ::
         :::::::::::::::::::::::::::::::::::::::::::::::::::::

      ----------------------------------------------------------- 
     |                   =====================                   |
     |                        A N C O P T                        |
     |                   =====================                   |
     |               Approximate Normal Coordinate               |
     |                Rational Function Optimizer                |
      ----------------------------------------------------------- 

          ...................................................
          :                      SETUP                      :
          :.................................................:
          :   optimization level            normal          :
          :   max. optcycles                   390          :
          :   ANC micro-cycles                  20          :
          :   degrees of freedom               384          :
          :.................................................:
          :   RF solver                   davidson          :
          :   input Hessian                  false          :
          :   write xtbopt.log                true          :
          :   linear?                        false          :
          :   energy convergence         0.5000000E-05 Eh   :
          :   grad. convergence          0.1000000E-02 Eh/α :
          :   maximium RF displ.         2.0000000          :
          :   Hlow (freq-cutoff)         0.5000000E-02      :
          :   Hmax (freq-cutoff)         5.0000000          :
          :   S6 in model hess.         20.0000000          :
          ...................................................

generating ANC from model Hessian ...
Using Lindh-Hessian (1995)
 Shifting diagonal of input Hessian by   4.995245048087154E-003
 Lowest  eigenvalues of input Hessian
   -0.000000   -0.000000    0.000000    0.000000    0.000000    0.000000
    0.005000    0.005009    0.005023    0.005041    0.005066    0.005085
    0.005139    0.005187    0.005254    0.005317    0.005386    0.005450
 Highest eigenvalues
    2.185935    2.190870    2.192184    2.205132    2.216753    2.227161
 

........................................................................
.............................. CYCLE    1 ..............................
........................................................................
   1   -220.8115757 -0.220812E+03  0.161E-04    0.14       0.0  T
   2   -220.8115754  0.349079E-06  0.886E-04    0.14       9.9  T
   3   -220.8115757 -0.359613E-06  0.391E-05    0.14     224.4  T
     SCC iter.                  ...        0 min,  0.072 sec
     gradient                   ...        0 min,  0.024 sec
 * total energy  :  -217.8738040 Eh     change       -0.6724960E-07 Eh
   gradient norm :     0.2107175 Eh/α   predicted     0.0000000E+00 (-100.00%)
   displ. norm   :     0.4961785 α      lambda       -0.5987738E-01
   maximum displ.:     0.0977727 α      in ANC's #34, #38, #77, ...

........................................................................
.............................. CYCLE    2 ..............................
........................................................................
   1   -220.9046105 -0.220905E+03  0.357E-01    0.09       0.0  T
   2   -220.8986782  0.593230E-02  0.270E-01    0.42       1.0  T
   3   -220.6133120  0.285366E+00  0.906E-01    0.03       1.0  T
   4   -220.9020912 -0.288779E+00  0.191E-01    0.32       1.0  T
   5   -220.9034689 -0.137773E-02  0.160E-01    0.29       1.0  T
   6   -220.9045370 -0.106805E-02  0.142E-01    0.25       1.0  T
   7   -220.9056042 -0.106722E-02  0.127E-01    0.22       1.0  T
   8   -220.9062588 -0.654561E-03  0.114E-01    0.21       1.0  T
   9   -220.9072676 -0.100888E-02  0.949E-02    0.19       1.0  T
  10   -220.9097870 -0.251931E-02  0.292E-02    0.14       1.0  T
  11   -220.9096815  0.105450E-03  0.327E-02    0.14       1.0  T
  12   -220.9089822  0.699321E-03  0.497E-02    0.11       1.0  T
  13   -220.9096345 -0.652268E-03  0.357E-02    0.14       1.0  T
  14   -220.9100273 -0.392823E-03  0.871E-03    0.13       1.0  T
  15   -220.9100504 -0.230879E-04  0.211E-03    0.13       4.1  T
  16   -220.9100519 -0.152081E-05  0.665E-04    0.13      13.2  T
  17   -220.9100520 -0.132921E-06  0.150E-04    0.13      58.5  T
     SCC iter.                  ...        0 min,  0.390 sec
     gradient                   ...        0 min,  0.024 sec
 * total energy  :  -217.9173226 Eh     change       -0.4351859E-01 Eh
   gradient norm :     0.1037019 Eh/α   predicted    -0.3730957E-01 ( -14.27%)
   displ. norm   :     0.5476554 α      lambda       -0.2732595E-01
   maximum displ.:     0.1737246 α      in ANC's #34, #38, #46, ...

........................................................................
.............................. CYCLE    3 ..............................
........................................................................
   1   -220.9362121 -0.220936E+03  0.391E-01    0.04       0.0  T
   2   -220.9214473  0.147647E-01  0.477E-01    0.52       1.0  T
   3   -220.9605577 -0.391104E-01  0.241E-01    0.48       1.0  T
   4   -220.9667776 -0.621989E-02  0.158E-01    0.18       1.0  T
   5   -220.8502600  0.116518E+00  0.544E-01    0.01       1.0  T
   6   -220.9612421 -0.110982E+00  0.162E-01    0.07       1.0  T
   7   -220.9653123 -0.407019E-02  0.149E-01    0.24       1.0  T
   8   -220.9682417 -0.292937E-02  0.104E-01    0.16       1.0  T
   9   -220.9694627 -0.122104E-02  0.789E-02    0.14       1.0  T
  10   -220.9703520 -0.889259E-03  0.583E-02    0.13       1.0  T
  11   -220.9706858 -0.333882E-03  0.523E-02    0.13       1.0  T
  12   -220.9700077  0.678132E-03  0.593E-02    0.10       1.0  T
  13   -220.9712475 -0.123982E-02  0.343E-02    0.12       1.0  T
  14   -220.9717190 -0.471486E-03  0.107E-02    0.12       1.0  T
  15   -220.9717686 -0.495900E-04  0.320E-03    0.12       2.7  T
  16   -220.9717711 -0.248628E-05  0.162E-03    0.12       5.4  T
  17   -220.9717720 -0.878413E-06  0.374E-04    0.12      23.4  T
     SCC iter.                  ...        0 min,  0.381 sec
     gradient                   ...        0 min,  0.023 sec
 * total energy  :  -217.9363277 Eh     change       -0.1900511E-01 Eh
   gradient norm :     0.0401876 Eh/α   predicted    -0.1776086E-01 (  -6.55%)
   displ. norm   :     0.6716745 α      lambda       -0.1268292E-01
   maximum displ.:     0.2678374 α      in ANC's #34, #38, #46, ...

........................................................................
.............................. CYCLE    4 ..............................
........................................................................
   1   -220.9052549 -0.220905E+03  0.525E-01    0.01       0.0  T
   2   -220.7166801  0.188575E+00  0.868E-01    0.04       1.0  T
   3   -220.9585914 -0.241911E+00  0.364E-01    0.64       1.0  T
   4   -220.9718521 -0.132607E-01  0.248E-01    0.40       1.0  T
   5   -220.9766726 -0.482049E-02  0.178E-01    0.21       1.0  T
   6   -220.8178414  0.158831E+00  0.650E-01    0.03       1.0  T
   7   -220.9404001 -0.122559E+00  0.329E-01    0.02       1.0  T
   8   -220.9751994 -0.347993E-01  0.179E-01    0.24       1.0  T
   9   -220.9773651 -0.216563E-02  0.151E-01    0.19       1.0  T
  10   -220.9807496 -0.338454E-02  0.104E-01    0.14       1.0  T
  11   -220.9814372 -0.687637E-03  0.903E-02    0.13       1.0  T
  12   -220.9817443 -0.307030E-03  0.848E-02    0.13       1.0  T
  13   -220.9825394 -0.795101E-03  0.728E-02    0.13       1.0  T
  14   -220.9821855  0.353899E-03  0.664E-02    0.09       1.0  T
  15   -220.9834454 -0.125994E-02  0.484E-02    0.11       1.0  T
  16   -220.9843147 -0.869287E-03  0.213E-02    0.11       1.0  T
  17   -220.9845115 -0.196837E-03  0.450E-03    0.11       1.9  T
  18   -220.9845180 -0.646041E-05  0.203E-03    0.11       4.3  T
  19   -220.9845201 -0.210310E-05  0.413E-04    0.11      21.2  T
  20   -220.9845198  0.288898E-06  0.843E-04    0.11      10.4  T
     SCC iter.                  ...        0 min,  0.449 sec
     gradient                   ...        0 min,  0.023 sec
 * total energy  :  -217.9467495 Eh     change       -0.1042179E-01 Eh
   gradient norm :     0.0315420 Eh/α   predicted    -0.9202438E-02 ( -11.70%)
   displ. norm   :     0.7632386 α      lambda       -0.1036524E-01
   maximum displ.:     0.3078972 α      in ANC's #34, #38, #46, ...

........................................................................
.............................. CYCLE    5 ..............................
........................................................................
   1   -220.9276395 -0.220928E+03  0.494E-01    0.01       0.0  T
   2   -220.8986825  0.289570E-01  0.625E-01    0.22       1.0  T
   3   -220.9731675 -0.744850E-01  0.307E-01    0.39       1.0  T
   4   -220.9853325 -0.121650E-01  0.185E-01    0.13       1.0  T
   5   -220.9898900 -0.455751E-02  0.133E-01    0.09       1.0  T
   6   -220.9024029  0.874870E-01  0.436E-01    0.01       1.0  T
   7   -220.9451249 -0.427220E-01  0.342E-01    0.02       1.0  T
   8   -220.9820567 -0.369318E-01  0.186E-01    0.21       1.0  T
   9   -220.9850188 -0.296206E-02  0.154E-01    0.18       1.0  T
  10   -220.9881210 -0.310219E-02  0.115E-01    0.15       1.0  T
  11   -220.9919821 -0.386109E-02  0.401E-02    0.10       1.0  T
  12   -220.9923834 -0.401314E-03  0.248E-02    0.10       1.0  T
  13   -220.9927048 -0.321388E-03  0.201E-03    0.10       4.4  T
  14   -220.9926984  0.640446E-05  0.409E-03    0.10       2.1  T
  15   -220.9927048 -0.637264E-05  0.157E-03    0.10       5.6  T
  16   -220.9927048 -0.176891E-08  0.138E-03    0.10       6.3  T
  17   -220.9927055 -0.778903E-06  0.418E-04    0.10      21.0  T
     SCC iter.                  ...        0 min,  0.382 sec
     gradient                   ...        0 min,  0.023 sec
 * total energy  :  -217.9555145 Eh     change       -0.8764986E-02 Eh
   gradient norm :     0.0315557 Eh/α   predicted    -0.8201667E-02 (  -6.43%)
   displ. norm   :     0.7738445 α      lambda       -0.8548622E-02
   maximum displ.:     0.3056086 α      in ANC's #34, #38, #46, ...

........................................................................
.............................. CYCLE    6 ..............................
........................................................................
   1   -220.9733819 -0.220973E+03  0.378E-01    0.04       0.0  T
   2   -220.9483174  0.250646E-01  0.460E-01    0.40       1.0  T
   3   -220.9875477 -0.392303E-01  0.242E-01    0.21       1.0  T
   4   -220.8810307  0.106517E+00  0.564E-01    0.02       1.0  T
   5   -220.9093092 -0.282785E-01  0.436E-01    0.01       1.0  T
   6   -220.9844785 -0.751693E-01  0.227E-01    0.31       1.0  T
   7   -220.9873799 -0.290135E-02  0.201E-01    0.26       1.0  T
   8   -220.9925002 -0.512033E-02  0.153E-01    0.16       1.0  T
   9   -220.9503087  0.421915E-01  0.313E-01    0.02       1.0  T
  10   -220.9950490 -0.447404E-01  0.118E-01    0.13       1.0  T
  11   -220.9968252 -0.177611E-02  0.887E-02    0.11       1.0  T
  12   -220.9985862 -0.176103E-02  0.445E-02    0.09       1.0  T
  13   -220.9992535 -0.667347E-03  0.288E-02    0.09       1.0  T
  14   -220.9994876 -0.234110E-03  0.133E-02    0.10       1.0  T
  15   -220.9995392 -0.515650E-04  0.834E-03    0.10       1.1  T
  16   -220.9995749 -0.357060E-04  0.152E-03    0.10       5.8  T
  17   -220.9995739  0.992412E-06  0.197E-03    0.10       4.5  T
  18   -220.9995755 -0.156946E-05  0.916E-04    0.10       9.6  T
     SCC iter.                  ...        0 min,  0.408 sec
     gradient                   ...        0 min,  0.024 sec
 * total energy  :  -217.9627508 Eh     change       -0.7236307E-02 Eh
   gradient norm :     0.0331925 Eh/α   predicted    -0.6833931E-02 (  -5.56%)
   displ. norm   :     0.7634443 α      lambda       -0.7357890E-02
   maximum displ.:     0.2924601 α      in ANC's #34, #38, #37, ...

........................................................................
.............................. CYCLE    7 ..............................
........................................................................
   1   -221.0000933 -0.221000E+03  0.304E-01    0.05       0.0  T
   2   -220.9802492  0.198441E-01  0.345E-01    0.28       1.0  T
   3   -220.7830497  0.197199E+00  0.776E-01    0.07       1.0  T
   4   -221.0008841 -0.217834E+00  0.218E-01    0.16       1.0  T
   5   -220.8057240  0.195160E+00  0.668E-01    0.05       1.0  T
   6   -220.9938706 -0.188147E+00  0.235E-01    0.31       1.0  T
   7   -220.9955368 -0.166618E-02  0.223E-01    0.28       1.0  T
   8   -220.9967287 -0.119195E-02  0.210E-01    0.25       1.0  T
   9   -220.9985913 -0.186255E-02  0.193E-01    0.21       1.0  T
  10   -221.0024973 -0.390607E-02  0.154E-01    0.16       1.0  T
  11   -221.0096797 -0.718242E-02  0.470E-02    0.11       1.0  T
  12   -221.0100393 -0.359547E-03  0.309E-02    0.09       1.0  T
  13   -221.0103943 -0.355041E-03  0.152E-02    0.10       1.0  T
  14   -221.0104929 -0.985880E-04  0.164E-03    0.10       5.3  T
  15   -221.0104936 -0.659521E-06  0.817E-04    0.10      10.7  T
  16   -221.0104938 -0.183454E-06  0.467E-04    0.10      18.8  T
     SCC iter.                  ...        0 min,  0.359 sec
     gradient                   ...        0 min,  0.023 sec
 * total energy  :  -217.9688138 Eh     change       -0.6062979E-02 Eh
   gradient norm :     0.0300824 Eh/α   predicted    -0.5823208E-02 (  -3.95%)
   displ. norm   :     0.7672802 α      lambda       -0.6518447E-02
   maximum displ.:     0.2643622 α      in ANC's #34, #38, #37, ...

........................................................................
.............................. CYCLE    8 ..............................
........................................................................
   1   -221.0134446 -0.221013E+03  0.299E-01    0.06       0.0  T
   2   -220.9923738  0.210708E-01  0.329E-01    0.45       1.0  T
   3   -220.9511201  0.412537E-01  0.443E-01    0.01       1.0  T
   4   -220.9989979 -0.478777E-01  0.259E-01    0.36       1.0  T
   5   -221.0024490 -0.345117E-02  0.232E-01    0.27       1.0  T
   6   -221.0056634 -0.321440E-02  0.202E-01    0.20       1.0  T
   7   -221.0097956 -0.413215E-02  0.166E-01    0.16       1.0  T
   8   -221.0159590 -0.616344E-02  0.860E-02    0.09       1.0  T
   9   -221.0165066 -0.547568E-03  0.781E-02    0.07       1.0  T
  10   -221.0186513 -0.214471E-02  0.329E-02    0.10       1.0  T
  11   -221.0190460 -0.394719E-03  0.104E-02    0.09       1.0  T
  12   -221.0188914  0.154572E-03  0.228E-02    0.09       1.0  T
  13   -221.0189469 -0.554191E-04  0.178E-02    0.10       1.0  T
  14   -221.0190902 -0.143368E-03  0.283E-03    0.10       3.1  T
  15   -221.0190927 -0.246655E-05  0.719E-04    0.10      12.2  T
  16   -221.0190925  0.173831E-06  0.931E-04    0.10       9.4  T
     SCC iter.                  ...        0 min,  0.357 sec
     gradient                   ...        0 min,  0.023 sec
 * total energy  :  -217.9739555 Eh     change       -0.5141700E-02 Eh
   gradient norm :     0.0356952 Eh/α   predicted    -0.5177991E-02 (   0.71%)
   displ. norm   :     0.7412089 α      lambda       -0.6298326E-02
   maximum displ.:     0.2311291 α      in ANC's #34, #14, #38, ...

........................................................................
.............................. CYCLE    9 ..............................
........................................................................
   1   -221.0369146 -0.221037E+03  0.272E-01    0.09       0.0  T
   2   -220.6917103  0.345204E+00  0.967E-01    0.14       1.0  T
   3   -221.0228803 -0.331170E+00  0.264E-01    0.30       1.0  T
   4   -220.6047320  0.418148E+00  0.978E-01    0.18       1.0  T
   5   -221.0265677 -0.421836E+00  0.221E-01    0.24       1.0  T
   6   -221.0262992  0.268515E-03  0.210E-01    0.23       1.0  T
   7   -221.0286278 -0.232864E-02  0.195E-01    0.20       1.0  T
   8   -221.0301353 -0.150753E-02  0.179E-01    0.18       1.0  T
   9   -221.0321417 -0.200634E-02  0.158E-01    0.16       1.0  T
  10   -221.0363202 -0.417857E-02  0.115E-01    0.14       1.0  T
  11   -221.0329177  0.340249E-02  0.126E-01    0.06       1.0  T
  12   -221.0403309 -0.741315E-02  0.347E-02    0.09       1.0  T
  13   -221.0406357 -0.304759E-03  0.236E-02    0.09       1.0  T
  14   -221.0408211 -0.185404E-03  0.145E-02    0.09       1.0  T
  15   -221.0409105 -0.894595E-04  0.219E-03    0.10       4.0  T
  16   -221.0409124 -0.183130E-05  0.101E-03    0.10       8.7  T
  17   -221.0409122  0.137611E-06  0.114E-03    0.10       7.7  T
     SCC iter.                  ...        0 min,  0.392 sec
     gradient                   ...        0 min,  0.023 sec
 * total energy  :  -217.9773896 Eh     change       -0.3434155E-02 Eh
   gradient norm :     0.0533338 Eh/α   predicted    -0.4879284E-02 (  42.08%)
   displ. norm   :     0.6493455 α      lambda       -0.6154856E-02
   maximum displ.:     0.2032820 α      in ANC's #38, #37, #34, ...

........................................................................
.............................. CYCLE   10 ..............................
........................................................................
   1   -221.0198387 -0.221020E+03  0.320E-01    0.04       0.0  T
   2   -220.9966192  0.232195E-01  0.397E-01    0.15       1.0  T
   3   -220.9614257  0.351934E-01  0.410E-01    0.01       1.0  T
   4   -221.0185421 -0.571164E-01  0.254E-01    0.26       1.0  T
   5   -221.0134163  0.512581E-02  0.238E-01    0.04       1.0  T
   6   -221.0189500 -0.553377E-02  0.233E-01    0.30       1.0  T
   7   -221.0225986 -0.364853E-02  0.203E-01    0.22       1.0  T
   8   -221.0262721 -0.367355E-02  0.172E-01    0.17       1.0  T
   9   -221.0332915 -0.701943E-02  0.904E-02    0.11       1.0  T
  10   -221.0352382 -0.194668E-02  0.450E-02    0.08       1.0  T
  11   -221.0355325 -0.294317E-03  0.338E-02    0.10       1.0  T
  12   -221.0358864 -0.353843E-03  0.125E-02    0.09       1.0  T
  13   -221.0358700  0.163606E-04  0.158E-02    0.09       1.0  T
  14   -221.0359455 -0.754513E-04  0.774E-03    0.10       1.1  T
  15   -221.0359647 -0.192351E-04  0.134E-03    0.09       6.5  T
  16   -221.0359648 -0.823684E-07  0.113E-03    0.09       7.8  T
  17   -221.0359653 -0.499165E-06  0.257E-04    0.09      34.1  T
     SCC iter.                  ...        0 min,  0.380 sec
     gradient                   ...        0 min,  0.023 sec
 * total energy  :  -217.9816086 Eh     change       -0.4218949E-02 Eh
   gradient norm :     0.0281455 Eh/α   predicted    -0.4375020E-02 (   3.70%)
   displ. norm   :     0.6871121 α      lambda       -0.3952744E-02
   maximum displ.:     0.2088108 α      in ANC's #14, #10, #29, ...

........................................................................
.............................. CYCLE   11 ..............................
........................................................................
   1   -221.0454360 -0.221045E+03  0.217E-01    0.09       0.0  T
   2   -220.9206769  0.124759E+00  0.583E-01    0.03       1.0  T
   3   -221.0369465 -0.116270E+00  0.200E-01    0.15       1.0  T
   4   -220.5941633  0.442783E+00  0.101E+00    0.25       1.0  T
   5   -221.0363802 -0.442217E+00  0.176E-01    0.16       1.0  T
   6   -221.0410559 -0.467567E-02  0.129E-01    0.12       1.0  T
   7   -221.0422749 -0.121902E-02  0.110E-01    0.11       1.0  T
   8   -221.0437184 -0.144349E-02  0.853E-02    0.10       1.0  T
   9   -221.0451054 -0.138696E-02  0.583E-02    0.10       1.0  T
  10   -221.0460168 -0.911476E-03  0.213E-02    0.09       1.0  T
  11   -221.0462324 -0.215589E-03  0.674E-03    0.10       1.3  T
  12   -221.0462439 -0.115127E-04  0.342E-03    0.09       2.6  T
  13   -221.0462485 -0.456996E-05  0.165E-03    0.09       5.3  T
  14   -221.0462495 -0.980410E-06  0.479E-04    0.09      18.3  T
     SCC iter.                  ...        0 min,  0.315 sec
     gradient                   ...        0 min,  0.024 sec
 * total energy  :  -217.9841846 Eh     change       -0.2576027E-02 Eh
   gradient norm :     0.0438363 Eh/α   predicted    -0.2909496E-02 (  12.95%)
   displ. norm   :     0.7098294 α      lambda       -0.4867399E-02
   maximum displ.:     0.2188410 α      in ANC's #14, #37, #29, ...

........................................................................
.............................. CYCLE   12 ..............................
........................................................................
   1   -221.0479398 -0.221048E+03  0.229E-01    0.08       0.0  T
   2   -221.0338002  0.141396E-01  0.241E-01    0.21       1.0  T
   3   -220.7505558  0.283244E+00  0.887E-01    0.04       1.0  T
   4   -221.0342317 -0.283676E+00  0.190E-01    0.06       1.0  T
   5   -221.0374217 -0.319002E-02  0.197E-01    0.18       1.0  T
   6   -221.0390499 -0.162820E-02  0.169E-01    0.16       1.0  T
   7   -221.0441703 -0.512040E-02  0.118E-01    0.13       1.0  T
   8   -221.0472720 -0.310174E-02  0.716E-02    0.11       1.0  T
   9   -221.0491171 -0.184508E-02  0.150E-02    0.09       1.0  T
  10   -221.0491229 -0.576818E-05  0.140E-02    0.10       1.0  T
  11   -221.0491703 -0.473787E-04  0.101E-02    0.09       1.0  T
  12   -221.0491778 -0.752766E-05  0.813E-03    0.10       1.1  T
  13   -221.0492075 -0.297266E-04  0.197E-03    0.09       4.5  T
  14   -221.0492080 -0.521148E-06  0.169E-03    0.09       5.2  T
  15   -221.0492093 -0.130916E-05  0.330E-04    0.09      26.6  T
     SCC iter.                  ...        0 min,  0.337 sec
     gradient                   ...        0 min,  0.023 sec
 * total energy  :  -217.9874276 Eh     change       -0.3242967E-02 Eh
   gradient norm :     0.0414552 Eh/α   predicted    -0.3659936E-02 (  12.86%)
   displ. norm   :     0.6554158 α      lambda       -0.4509004E-02
   maximum displ.:     0.1939269 α      in ANC's #29, #14, #37, ...

........................................................................
.............................. CYCLE   13 ..............................
........................................................................
   1   -221.0113303 -0.221011E+03  0.331E-01    0.04       0.0  T
   2   -220.9823768  0.289534E-01  0.445E-01    0.39       1.0  T
   3   -221.0169605 -0.345837E-01  0.257E-01    0.25       1.0  T
   4   -221.0210372 -0.407673E-02  0.207E-01    0.05       1.0  T
   5   -220.8175967  0.203441E+00  0.679E-01    0.05       1.0  T
   6   -221.0183236 -0.200727E+00  0.216E-01    0.21       1.0  T
   7   -221.0293881 -0.110645E-01  0.111E-01    0.13       1.0  T
   8   -221.0319127 -0.252469E-02  0.518E-02    0.08       1.0  T
   9   -221.0329894 -0.107664E-02  0.294E-02    0.08       1.0  T
  10   -221.0326955  0.293904E-03  0.403E-02    0.10       1.0  T
  11   -221.0332365 -0.541003E-03  0.105E-02    0.09       1.0  T
  12   -221.0332719 -0.354618E-04  0.599E-03    0.09       1.5  T
  13   -221.0332875 -0.155337E-04  0.162E-03    0.09       5.4  T
  14   -221.0332886 -0.109212E-05  0.423E-04    0.09      20.8  T
  15   -221.0332882  0.328195E-06  0.103E-03    0.09       8.6  T
     SCC iter.                  ...        0 min,  0.341 sec
     gradient                   ...        0 min,  0.024 sec
 * total energy  :  -217.9883133 Eh     change       -0.8857278E-03 Eh
   gradient norm :     0.0769970 Eh/α   predicted    -0.3222967E-02 ( 263.88%)
   displ. norm   :     0.4037645 α      lambda       -0.5999617E-02
   maximum displ.:     0.1227534 α      in ANC's #14, #10, #27, ...

........................................................................
.............................. CYCLE   14 ..............................
........................................................................
   1   -221.0582760 -0.221058E+03  0.194E-01    0.15       0.0  T
   2   -220.5763897  0.481886E+00  0.109E+00    0.20       1.0  T
   3   -220.8563781 -0.279988E+00  0.742E-01    0.06       1.0  T
   4   -221.0602006 -0.203823E+00  0.145E-01    0.14       1.0  T
   5   -221.0660217 -0.582109E-02  0.402E-02    0.10       1.0  T
   6   -221.0658525  0.169288E-03  0.308E-02    0.08       1.0  T
   7   -221.0661293 -0.276885E-03  0.162E-02    0.09       1.0  T
   8   -221.0661066  0.227128E-04  0.149E-02    0.10       1.0  T
   9   -221.0661698 -0.631995E-04  0.522E-03    0.09       1.7  T
  10   -221.0661749 -0.506647E-05  0.266E-03    0.09       3.3  T
  11   -221.0661762 -0.131778E-05  0.215E-03    0.09       4.1  T
     SCC iter.                  ...        0 min,  0.246 sec
     gradient                   ...        0 min,  0.023 sec
 * total energy  :  -217.9912285 Eh     change       -0.2915213E-02 Eh
   gradient norm :     0.0444328 Eh/α   predicted    -0.3488851E-02 (  19.68%)
   displ. norm   :     0.5473591 α      lambda       -0.6284100E-02
   maximum displ.:     0.1720956 α      in ANC's #34, #14, #10, ...

........................................................................
.............................. CYCLE   15 ..............................
........................................................................
   1   -220.8884125 -0.220888E+03  0.675E-01    0.04       0.0  T
   2   -218.0068565  0.288156E+01  0.215E+00    0.08       1.0  T
   3   -220.9516723 -0.294482E+01  0.687E-01    0.58       1.0  T
   4   -221.0313101 -0.796378E-01  0.361E-01    0.22       1.0  T
   5   -221.0236906  0.761946E-02  0.306E-01    0.04       1.0  T
   6   -221.0355014 -0.118107E-01  0.291E-01    0.30       1.0  T
   7   -221.0486960 -0.131947E-01  0.185E-01    0.15       1.0  T
   8   -220.8098889  0.238807E+00  0.743E-01    0.07       1.0  T
   9   -221.0430575 -0.233169E+00  0.205E-01    0.18       1.0  T
  10   -221.0535038 -0.104463E-01  0.102E-01    0.12       1.0  T
  11   -221.0541546 -0.650832E-03  0.809E-02    0.11       1.0  T
  12   -221.0565358 -0.238122E-02  0.133E-02    0.09       1.0  T
  13   -221.0565292  0.664847E-05  0.126E-02    0.08       1.0  T
  14   -221.0565899 -0.607506E-04  0.519E-03    0.09       1.7  T
  15   -221.0565855  0.441887E-05  0.599E-03    0.09       1.5  T
  16   -221.0565928 -0.725580E-05  0.330E-03    0.09       2.7  T
  17   -221.0565950 -0.218527E-05  0.111E-03    0.09       7.9  T
     SCC iter.                  ...        0 min,  0.381 sec
     gradient                   ...        0 min,  0.023 sec
 * total energy  :  -217.9882566 Eh     change        0.2971863E-02 Eh
   gradient norm :     0.1266833 Eh/α   predicted    -0.4083414E-02 (-237.40%)
   displ. norm   :     0.2743927 α      lambda       -0.1126693E-01
   maximum displ.:     0.1070953 α      in ANC's #37, #86, #38, ...

........................................................................
.............................. CYCLE   16 ..............................
........................................................................
   1   -220.9624304 -0.220962E+03  0.510E-01    0.01       0.0  T
   2   -219.9860939  0.976337E+00  0.150E+00    0.09       1.0  T
   3   -220.9881709 -0.100208E+01  0.531E-01    0.69       1.0  T
   4   -221.0115427 -0.233719E-01  0.320E-01    0.03       1.0  T
   5   -221.0263153 -0.147726E-01  0.315E-01    0.48       1.0  T
   6   -221.0340682 -0.775292E-02  0.257E-01    0.25       1.0  T
   7   -221.0448378 -0.107695E-01  0.168E-01    0.13       1.0  T
   8   -221.0020612  0.427765E-01  0.334E-01    0.01       1.0  T
   9   -221.0356804 -0.336192E-01  0.198E-01    0.05       1.0  T
  10   -221.0479141 -0.122337E-01  0.952E-02    0.07       1.0  T
  11   -221.0518978 -0.398367E-02  0.293E-02    0.10       1.0  T
  12   -221.0519368 -0.390427E-04  0.241E-02    0.09       1.0  T
  13   -221.0520224 -0.855491E-04  0.210E-02    0.09       1.0  T
  14   -221.0521314 -0.109075E-03  0.847E-03    0.09       1.0  T
  15   -221.0521317 -0.303463E-06  0.781E-03    0.09       1.1  T
  16   -221.0521466 -0.148750E-04  0.480E-03    0.09       1.8  T
  17   -221.0521533 -0.673345E-05  0.240E-03    0.09       3.6  T
  18   -221.0521539 -0.534657E-06  0.207E-03    0.09       4.2  T
  19   -221.0521551 -0.119205E-05  0.842E-04    0.09      10.4  T
     SCC iter.                  ...        0 min,  0.429 sec
     gradient                   ...        0 min,  0.024 sec
 * total energy  :  -217.9939140 Eh     change       -0.5657392E-02 Eh
   gradient norm :     0.0323581 Eh/α   predicted    -0.6057616E-02 (   7.07%)
   displ. norm   :     0.5050675 α      lambda       -0.4529933E-02
   maximum displ.:     0.1519157 α      in ANC's #29, #10, #18, ...

........................................................................
.............................. CYCLE   17 ..............................
........................................................................
   1   -221.0588687 -0.221059E+03  0.213E-01    0.08       0.0  T
   2   -220.9409476  0.117921E+00  0.573E-01    0.02       1.0  T
   3   -221.0435278 -0.102580E+00  0.256E-01    0.28       1.0  T
   4   -220.6646685  0.378859E+00  0.948E-01    0.15       1.0  T
   5   -221.0499554 -0.385287E+00  0.199E-01    0.21       1.0  T
   6   -221.0517418 -0.178647E-02  0.174E-01    0.18       1.0  T
   7   -221.0557447 -0.400289E-02  0.138E-01    0.15       1.0  T
   8   -221.0582165 -0.247174E-02  0.104E-01    0.13       1.0  T
   9   -221.0612313 -0.301487E-02  0.490E-02    0.11       1.0  T
  10   -221.0620350 -0.803621E-03  0.695E-03    0.09       1.3  T
  11   -221.0620546 -0.196239E-04  0.187E-03    0.09       4.7  T
  12   -221.0620505  0.412364E-05  0.344E-03    0.09       2.5  T
  13   -221.0620549 -0.441725E-05  0.129E-03    0.09       6.8  T
     SCC iter.                  ...        0 min,  0.291 sec
     gradient                   ...        0 min,  0.023 sec
 * total energy  :  -217.9925385 Eh     change        0.1375524E-02 Eh
   gradient norm :     0.0979451 Eh/α   predicted    -0.2842749E-02 (-306.67%)
   displ. norm   :     0.2913831 α      lambda       -0.7242422E-02
   maximum displ.:     0.0792608 α      in ANC's #18, #14, #27, ...

........................................................................
.............................. CYCLE   18 ..............................
........................................................................
   1   -221.0647681 -0.221065E+03  0.148E-01    0.09       0.0  T
   2   -221.0520044  0.127637E-01  0.201E-01    0.05       1.0  T
   3   -221.0593272 -0.732280E-02  0.163E-01    0.11       1.0  T
   4   -220.9665741  0.927530E-01  0.468E-01    0.01       1.0  T
   5   -221.0602216 -0.936475E-01  0.139E-01    0.13       1.0  T
   6   -221.0645076 -0.428598E-02  0.700E-02    0.10       1.0  T
   7   -221.0622604  0.224716E-02  0.871E-02    0.08       1.0  T
   8   -221.0654270 -0.316654E-02  0.410E-02    0.10       1.0  T
   9   -221.0658594 -0.432434E-03  0.190E-02    0.10       1.0  T
  10   -221.0659588 -0.993634E-04  0.620E-03    0.09       1.4  T
  11   -221.0659718 -0.130300E-04  0.172E-03    0.09       5.1  T
  12   -221.0659711  0.731105E-06  0.204E-03    0.09       4.3  T
  13   -221.0659723 -0.123174E-05  0.710E-04    0.09      12.3  T
     SCC iter.                  ...        0 min,  0.288 sec
     gradient                   ...        0 min,  0.023 sec
 * total energy  :  -217.9961518 Eh     change       -0.3613348E-02 Eh
   gradient norm :     0.0371647 Eh/α   predicted    -0.3928666E-02 (   8.73%)
   displ. norm   :     0.5263438 α      lambda       -0.4683788E-02
   maximum displ.:     0.1468828 α      in ANC's #37, #34, #27, ...

........................................................................
.............................. CYCLE   19 ..............................
........................................................................
   1   -220.9934822 -0.220993E+03  0.426E-01    0.02       0.0  T
   2   -220.9634348  0.300474E-01  0.549E-01    0.19       1.0  T
   3   -221.0207400 -0.573052E-01  0.259E-01    0.15       1.0  T
   4   -220.9020169  0.118723E+00  0.542E-01    0.03       1.0  T
   5   -221.0181940 -0.116177E+00  0.237E-01    0.22       1.0  T
   6   -221.0093237  0.887036E-02  0.251E-01    0.04       1.0  T
   7   -221.0199222 -0.105985E-01  0.215E-01    0.20       1.0  T
   8   -221.0241060 -0.418380E-02  0.175E-01    0.17       1.0  T
   9   -221.0294578 -0.535178E-02  0.115E-01    0.11       1.0  T
  10   -221.0320401 -0.258239E-02  0.846E-02    0.11       1.0  T
  11   -221.0343216 -0.228149E-02  0.275E-02    0.09       1.0  T
  12   -221.0344963 -0.174664E-03  0.199E-02    0.09       1.0  T
  13   -221.0346676 -0.171271E-03  0.292E-03    0.09       3.0  T
  14   -221.0346690 -0.138581E-05  0.207E-03    0.09       4.2  T
  15   -221.0346696 -0.673988E-06  0.122E-03    0.09       7.2  T
     SCC iter.                  ...        0 min,  0.333 sec
     gradient                   ...        0 min,  0.023 sec
 * total energy  :  -217.9946055 Eh     change        0.1546377E-02 Eh
   gradient norm :     0.0790451 Eh/α   predicted    -0.2990695E-02 (-293.40%)
   displ. norm   :     0.2904946 α      lambda       -0.6946810E-02
   maximum displ.:     0.0804144 α      in ANC's #18, #29, #28, ...

........................................................................
.............................. CYCLE   20 ..............................
........................................................................
   1   -221.0493203 -0.221049E+03  0.177E-01    0.13       0.0  T
   2   -220.7495062  0.299814E+00  0.923E-01    0.03       1.0  T
   3   -221.0457288 -0.296223E+00  0.146E-01    0.08       1.0  T
   4   -220.9949935  0.507353E-01  0.357E-01    0.01       1.0  T
   5   -221.0472195 -0.522260E-01  0.144E-01    0.15       1.0  T
   6   -221.0529055 -0.568598E-02  0.496E-02    0.10       1.0  T
   7   -221.0535599 -0.654412E-03  0.269E-02    0.08       1.0  T
   8   -221.0537951 -0.235233E-03  0.169E-02    0.09       1.0  T
   9   -221.0538543 -0.591962E-04  0.112E-02    0.09       1.0  T
  10   -221.0538917 -0.374425E-04  0.382E-03    0.09       2.3  T
  11   -221.0538939 -0.214069E-05  0.275E-03    0.09       3.2  T
  12   -221.0538960 -0.207084E-05  0.816E-04    0.09      10.8  T
     SCC iter.                  ...        0 min,  0.269 sec
     gradient                   ...        0 min,  0.023 sec
 * total energy  :  -217.9983405 Eh     change       -0.3735052E-02 Eh
   gradient norm :     0.0261445 Eh/α   predicted    -0.3766515E-02 (   0.84%)
   displ. norm   :     0.4609100 α      lambda       -0.2858730E-02
   maximum displ.:     0.1302890 α      in ANC's #10, #18, #16, ...
 * RMSD in coord.:     0.8023362 α      energy gain  -0.1245366E+00 Eh

generating ANC from model Hessian ...
Using Lindh-Hessian (1995)
 Shifting diagonal of input Hessian by   4.999180322731145E-003
 Lowest  eigenvalues of input Hessian
   -0.000000   -0.000000   -0.000000   -0.000000   -0.000000    0.000000
    0.005000    0.005010    0.005023    0.005039    0.005075    0.005106
    0.005154    0.005256    0.005288    0.005358    0.005442    0.005523
 Highest eigenvalues
    2.240095    2.243248    2.258409    2.277374    2.297775    2.334691
 

........................................................................
.............................. CYCLE   21 ..............................
........................................................................
   1   -221.0641413 -0.221064E+03  0.194E-01    0.06       0.0  T
   2   -221.0307057  0.334356E-01  0.327E-01    0.03       1.0  T
   3   -221.0485524 -0.178468E-01  0.270E-01    0.37       1.0  T
   4   -221.0656846 -0.171322E-01  0.118E-01    0.07       1.0  T
   5   -221.0599815  0.570317E-02  0.166E-01    0.15       1.0  T
   6   -221.0692366 -0.925511E-02  0.556E-02    0.08       1.0  T
   7   -221.0665432  0.269334E-02  0.870E-02    0.07       1.0  T
   8   -221.0684011 -0.185789E-02  0.661E-02    0.11       1.0  T
   9   -221.0699573 -0.155619E-02  0.253E-02    0.10       1.0  T
  10   -221.0700989 -0.141628E-03  0.150E-02    0.08       1.0  T
  11   -221.0702062 -0.107268E-03  0.204E-03    0.09       4.3  T
  12   -221.0702067 -0.483768E-06  0.114E-03    0.09       7.7  T
  13   -221.0702067 -0.345742E-07  0.102E-03    0.09       8.6  T
  14   -221.0702069 -0.138680E-06  0.909E-04    0.09       9.6  T
  15   -221.0702072 -0.309770E-06  0.995E-05    0.09      88.2  T
     SCC iter.                  ...        0 min,  0.337 sec
     gradient                   ...        0 min,  0.024 sec
 * total energy  :  -217.9985585 Eh     change       -0.2179308E-03 Eh
   gradient norm :     0.0513751 Eh/α   predicted     0.0000000E+00 (-100.00%)
   displ. norm   :     0.3195552 α      lambda       -0.3418540E-02
   maximum displ.:     0.1078072 α      in ANC's #30, #14, #18, ...

........................................................................
.............................. CYCLE   22 ..............................
........................................................................
   1   -221.0654611 -0.221065E+03  0.125E-01    0.09       0.0  T
   2   -221.0550997  0.103614E-01  0.168E-01    0.06       1.0  T
   3   -221.0542572  0.842511E-03  0.185E-01    0.15       1.0  T
   4   -220.9462903  0.107967E+00  0.561E-01    0.02       1.0  T
   5   -221.0574513 -0.111161E+00  0.164E-01    0.15       1.0  T
   6   -221.0625670 -0.511568E-02  0.106E-01    0.10       1.0  T
   7   -221.0630981 -0.531165E-03  0.930E-02    0.09       1.0  T
   8   -221.0633966 -0.298464E-03  0.914E-02    0.10       1.0  T
   9   -221.0644286 -0.103203E-02  0.726E-02    0.10       1.0  T
  10   -221.0658345 -0.140587E-02  0.334E-02    0.09       1.0  T
  11   -221.0661044 -0.269844E-03  0.177E-02    0.09       1.0  T
  12   -221.0662406 -0.136201E-03  0.735E-03    0.09       1.2  T
  13   -221.0662594 -0.188469E-04  0.281E-03    0.09       3.1  T
  14   -221.0662618 -0.235318E-05  0.544E-04    0.09      16.1  T
  15   -221.0662617  0.208448E-07  0.520E-04    0.09      16.9  T
     SCC iter.                  ...        0 min,  0.334 sec
     gradient                   ...        0 min,  0.023 sec
 * total energy  :  -218.0008338 Eh     change       -0.2275370E-02 Eh
   gradient norm :     0.0127765 Eh/α   predicted    -0.1883814E-02 ( -17.21%)
   displ. norm   :     0.3768194 α      lambda       -0.1580581E-02
   maximum displ.:     0.1451789 α      in ANC's #30, #14, #18, ...

........................................................................
.............................. CYCLE   23 ..............................
........................................................................
   1   -221.0639657 -0.221064E+03  0.174E-01    0.09       0.0  T
   2   -221.0611655  0.280024E-02  0.116E-01    0.07       1.0  T
   3   -221.0167972  0.443683E-01  0.346E-01    0.02       1.0  T
   4   -221.0419496 -0.251524E-01  0.260E-01    0.28       1.0  T
   5   -221.0552944 -0.133448E-01  0.155E-01    0.13       1.0  T
   6   -221.0594372 -0.414280E-02  0.106E-01    0.11       1.0  T
   7   -221.0636733 -0.423616E-02  0.323E-02    0.08       1.0  T
   8   -221.0639246 -0.251295E-03  0.221E-02    0.10       1.0  T
   9   -221.0630557  0.868954E-03  0.478E-02    0.07       1.0  T
  10   -221.0640312 -0.975479E-03  0.121E-02    0.09       1.0  T
  11   -221.0640764 -0.452503E-04  0.730E-03    0.09       1.2  T
  12   -221.0640968 -0.203755E-04  0.223E-03    0.09       3.9  T
  13   -221.0640983 -0.151356E-05  0.133E-03    0.09       6.6  T
  14   -221.0640989 -0.642333E-06  0.213E-04    0.09      41.2  T
     SCC iter.                  ...        0 min,  0.323 sec
     gradient                   ...        0 min,  0.023 sec
 * total energy  :  -218.0019816 Eh     change       -0.1147798E-02 Eh
   gradient norm :     0.0141737 Eh/α   predicted    -0.9025065E-03 ( -21.37%)
   displ. norm   :     0.5822510 α      lambda       -0.1721021E-02
   maximum displ.:     0.2151983 α      in ANC's #30, #27, #14, ...

........................................................................
.............................. CYCLE   24 ..............................
........................................................................
   1   -221.0605899 -0.221061E+03  0.184E-01    0.09       0.0  T
   2   -221.0552851  0.530482E-02  0.144E-01    0.07       1.0  T
   3   -220.7459275  0.309358E+00  0.845E-01    0.10       1.0  T
   4   -221.0487714 -0.302844E+00  0.212E-01    0.13       1.0  T
   5   -221.0565858 -0.781444E-02  0.118E-01    0.09       1.0  T
   6   -221.0571223 -0.536504E-03  0.100E-01    0.09       1.0  T
   7   -221.0587360 -0.161374E-02  0.775E-02    0.10       1.0  T
   8   -221.0475640  0.111720E-01  0.179E-01    0.05       1.0  T
   9   -221.0604462 -0.128822E-01  0.294E-02    0.10       1.0  T
  10   -221.0606729 -0.226714E-03  0.132E-02    0.09       1.0  T
  11   -221.0607008 -0.279355E-04  0.955E-03    0.09       1.0  T
  12   -221.0607131 -0.122709E-04  0.704E-03    0.09       1.2  T
  13   -221.0607276 -0.144849E-04  0.312E-03    0.09       2.8  T
  14   -221.0607302 -0.258463E-05  0.123E-03    0.09       7.1  T
  15   -221.0607307 -0.491167E-06  0.782E-04    0.09      11.2  T
     SCC iter.                  ...        0 min,  0.349 sec
     gradient                   ...        0 min,  0.024 sec
 * total energy  :  -218.0033732 Eh     change       -0.1391556E-02 Eh
   gradient norm :     0.0206545 Eh/α   predicted    -0.1152239E-02 ( -17.20%)
   displ. norm   :     0.6620035 α      lambda       -0.1752010E-02
   maximum displ.:     0.2270166 α      in ANC's #30, #27, #14, ...

........................................................................
.............................. CYCLE   25 ..............................
........................................................................
   1   -221.0604593 -0.221060E+03  0.184E-01    0.09       0.0  T
   2   -221.0194032  0.410561E-01  0.353E-01    0.02       1.0  T
   3   -221.0453102 -0.259070E-01  0.223E-01    0.20       1.0  T
   4   -221.0510797 -0.576957E-02  0.172E-01    0.16       1.0  T
   5   -221.0531495 -0.206980E-02  0.146E-01    0.16       1.0  T
   6   -221.0578045 -0.465501E-02  0.879E-02    0.12       1.0  T
   7   -221.0580565 -0.251992E-03  0.719E-02    0.07       1.0  T
   8   -221.0604398 -0.238331E-02  0.236E-02    0.08       1.0  T
   9   -221.0605602 -0.120320E-03  0.159E-02    0.08       1.0  T
  10   -221.0606497 -0.895331E-04  0.465E-03    0.09       1.9  T
  11   -221.0606573 -0.762262E-05  0.245E-03    0.09       3.6  T
  12   -221.0606585 -0.114975E-05  0.172E-03    0.09       5.1  T
  13   -221.0606593 -0.884029E-06  0.398E-04    0.09      22.1  T
     SCC iter.                  ...        0 min,  0.290 sec
     gradient                   ...        0 min,  0.023 sec
 * total energy  :  -218.0048494 Eh     change       -0.1476258E-02 Eh
   gradient norm :     0.0166771 Eh/α   predicted    -0.1259928E-02 ( -14.65%)
   displ. norm   :     0.6708084 α      lambda       -0.1732531E-02
   maximum displ.:     0.2026729 α      in ANC's #30, #23, #27, ...

........................................................................
.............................. CYCLE   26 ..............................
........................................................................
   1   -221.0673818 -0.221067E+03  0.170E-01    0.10       0.0  T
   2   -220.7410773  0.326305E+00  0.893E-01    0.11       1.0  T
   3   -221.0631186 -0.322041E+00  0.131E-01    0.10       1.0  T
   4   -221.0555329  0.758578E-02  0.175E-01    0.06       1.0  T
   5   -221.0646862 -0.915331E-02  0.105E-01    0.11       1.0  T
   6   -221.0674046 -0.271840E-02  0.504E-02    0.10       1.0  T
   7   -221.0673055  0.990296E-04  0.444E-02    0.10       1.0  T
   8   -221.0680068 -0.701274E-03  0.183E-02    0.09       1.0  T
   9   -221.0681327 -0.125913E-03  0.544E-03    0.09       1.6  T
  10   -221.0681438 -0.110897E-04  0.158E-03    0.09       5.5  T
  11   -221.0681439 -0.605955E-07  0.135E-03    0.09       6.5  T
  12   -221.0681435  0.360728E-06  0.174E-03    0.09       5.1  T
     SCC iter.                  ...        0 min,  0.267 sec
     gradient                   ...        0 min,  0.023 sec
 * total energy  :  -218.0062249 Eh     change       -0.1375422E-02 Eh
   gradient norm :     0.0113286 Eh/α   predicted    -0.1256134E-02 (  -8.67%)
   displ. norm   :     0.7184713 α      lambda       -0.1403925E-02
   maximum displ.:     0.2133848 α      in ANC's #30, #23, #11, ...

........................................................................
.............................. CYCLE   27 ..............................
........................................................................
   1   -221.0669081 -0.221067E+03  0.181E-01    0.08       0.0  T
   2   -221.0561257  0.107824E-01  0.186E-01    0.08       1.0  T
   3   -220.9108266  0.145299E+00  0.602E-01    0.03       1.0  T
   4   -221.0479569 -0.137130E+00  0.262E-01    0.25       1.0  T
   5   -221.0514814 -0.352451E-02  0.225E-01    0.27       1.0  T
   6   -221.0542468 -0.276535E-02  0.203E-01    0.19       1.0  T
   7   -221.0580944 -0.384757E-02  0.163E-01    0.14       1.0  T
   8   -221.0603892 -0.229480E-02  0.135E-01    0.11       1.0  T
   9   -221.0601554  0.233758E-03  0.142E-01    0.13       1.0  T
  10   -221.0636021 -0.344670E-02  0.104E-01    0.12       1.0  T
  11   -221.0667019 -0.309981E-02  0.489E-02    0.08       1.0  T
  12   -221.0678574 -0.115544E-02  0.661E-03    0.09       1.3  T
  13   -221.0677521  0.105293E-03  0.160E-02    0.09       1.0  T
  14   -221.0678702 -0.118095E-03  0.173E-03    0.09       5.1  T
  15   -221.0678701  0.978016E-07  0.175E-03    0.09       5.0  T
  16   -221.0678714 -0.137319E-05  0.440E-04    0.09      19.9  T
     SCC iter.                  ...        0 min,  0.358 sec
     gradient                   ...        0 min,  0.023 sec
 * total energy  :  -218.0073309 Eh     change       -0.1106001E-02 Eh
   gradient norm :     0.0130462 Eh/α   predicted    -0.1064323E-02 (  -3.77%)
   displ. norm   :     0.6699032 α      lambda       -0.1289828E-02
   maximum displ.:     0.2140435 α      in ANC's #11, #23, #27, ...

........................................................................
.............................. CYCLE   28 ..............................
........................................................................
   1   -221.0748670 -0.221075E+03  0.154E-01    0.10       0.0  T
   2   -220.8086013  0.266266E+00  0.799E-01    0.08       1.0  T
   3   -221.0709805 -0.262379E+00  0.134E-01    0.13       1.0  T
   4   -220.7266758  0.344305E+00  0.968E-01    0.13       1.0  T
   5   -221.0735688 -0.346893E+00  0.797E-02    0.11       1.0  T
   6   -221.0736831 -0.114301E-03  0.714E-02    0.11       1.0  T
   7   -221.0750849 -0.140183E-02  0.344E-02    0.10       1.0  T
   8   -221.0752487 -0.163731E-03  0.239E-02    0.10       1.0  T
   9   -221.0753893 -0.140643E-03  0.126E-02    0.09       1.0  T
  10   -221.0754275 -0.382514E-04  0.721E-03    0.09       1.2  T
  11   -221.0754382 -0.106293E-04  0.453E-03    0.09       1.9  T
  12   -221.0754435 -0.535872E-05  0.226E-03    0.09       3.9  T
  13   -221.0754451 -0.153692E-05  0.747E-04    0.09      11.7  T
  14   -221.0754452 -0.169011E-06  0.218E-04    0.09      40.3  T
     SCC iter.                  ...        0 min,  0.311 sec
     gradient                   ...        0 min,  0.023 sec
 * total energy  :  -218.0083207 Eh     change       -0.9897948E-03 Eh
   gradient norm :     0.0125283 Eh/α   predicted    -0.9343362E-03 (  -5.60%)
   displ. norm   :     0.7367150 α      lambda       -0.1047135E-02
   maximum displ.:     0.2360645 α      in ANC's #11, #23, #27, ...

........................................................................
.............................. CYCLE   29 ..............................
........................................................................
   1   -221.0688404 -0.221069E+03  0.182E-01    0.08       0.0  T
   2   -221.0577967  0.110437E-01  0.197E-01    0.14       1.0  T
   3   -220.7062523  0.351544E+00  0.953E-01    0.11       1.0  T
   4   -221.0507957 -0.344543E+00  0.211E-01    0.05       1.0  T
   5   -221.0579568 -0.716116E-02  0.187E-01    0.16       1.0  T
   6   -221.0608728 -0.291595E-02  0.147E-01    0.12       1.0  T
   7   -221.0625359 -0.166307E-02  0.131E-01    0.11       1.0  T
   8   -221.0644997 -0.196386E-02  0.108E-01    0.10       1.0  T
   9   -221.0691197 -0.461995E-02  0.302E-02    0.10       1.0  T
  10   -221.0694229 -0.303290E-03  0.885E-03    0.09       1.0  T
  11   -221.0692946  0.128297E-03  0.201E-02    0.10       1.0  T
  12   -221.0694550 -0.160307E-03  0.307E-03    0.09       2.9  T
  13   -221.0694568 -0.180894E-05  0.215E-03    0.09       4.1  T
  14   -221.0694583 -0.156371E-05  0.560E-04    0.09      15.7  T
     SCC iter.                  ...        0 min,  0.312 sec
     gradient                   ...        0 min,  0.023 sec
 * total energy  :  -218.0090581 Eh     change       -0.7373961E-03 Eh
   gradient norm :     0.0139481 Eh/α   predicted    -0.8077544E-03 (   9.54%)
   displ. norm   :     0.6108195 α      lambda       -0.9850434E-03
   maximum displ.:     0.2108020 α      in ANC's #11, #23, #7, ...

........................................................................
.............................. CYCLE   30 ..............................
........................................................................
   1   -221.0748491 -0.221075E+03  0.125E-01    0.08       0.0  T
   2   -221.0689274  0.592169E-02  0.130E-01    0.09       1.0  T
   3   -220.7514888  0.317439E+00  0.878E-01    0.10       1.0  T
   4   -221.0692571 -0.317768E+00  0.144E-01    0.10       1.0  T
   5   -221.0696957 -0.438570E-03  0.130E-01    0.12       1.0  T
   6   -221.0718347 -0.213901E-02  0.984E-02    0.12       1.0  T
   7   -221.0722316 -0.396902E-03  0.781E-02    0.10       1.0  T
   8   -221.0740090 -0.177736E-02  0.510E-02    0.11       1.0  T
   9   -221.0748410 -0.832036E-03  0.218E-02    0.10       1.0  T
  10   -221.0749855 -0.144478E-03  0.652E-03    0.09       1.3  T
  11   -221.0749901 -0.459321E-05  0.619E-03    0.09       1.4  T
  12   -221.0750027 -0.126102E-04  0.187E-03    0.09       4.7  T
  13   -221.0750027 -0.321082E-07  0.198E-03    0.09       4.4  T
  14   -221.0750037 -0.971830E-06  0.988E-04    0.09       8.9  T
     SCC iter.                  ...        0 min,  0.310 sec
     gradient                   ...        0 min,  0.023 sec
 * total energy  :  -218.0097326 Eh     change       -0.6745603E-03 Eh
   gradient norm :     0.0095219 Eh/α   predicted    -0.6762957E-03 (   0.26%)
   displ. norm   :     0.6406718 α      lambda       -0.7613022E-03
   maximum displ.:     0.2174291 α      in ANC's #11, #7, #23, ...

........................................................................
.............................. CYCLE   31 ..............................
........................................................................
   1   -221.0758144 -0.221076E+03  0.117E-01    0.09       0.0  T
   2   -221.0290297  0.467847E-01  0.345E-01    0.01       1.0  T
   3   -221.0700140 -0.409843E-01  0.134E-01    0.12       1.0  T
   4   -221.0710626 -0.104863E-02  0.104E-01    0.09       1.0  T
   5   -221.0724452 -0.138255E-02  0.105E-01    0.12       1.0  T
   6   -221.0738849 -0.143970E-02  0.715E-02    0.11       1.0  T
   7   -221.0754654 -0.158049E-02  0.368E-02    0.10       1.0  T
   8   -221.0759386 -0.473180E-03  0.629E-03    0.09       1.4  T
   9   -221.0759435 -0.499477E-05  0.407E-03    0.09       2.2  T
  10   -221.0759477 -0.416861E-05  0.190E-03    0.09       4.6  T
  11   -221.0759486 -0.924861E-06  0.135E-03    0.09       6.5  T
  12   -221.0759489 -0.275411E-06  0.996E-04    0.09       8.8  T
     SCC iter.                  ...        0 min,  0.268 sec
     gradient                   ...        0 min,  0.023 sec
 * total energy  :  -218.0102563 Eh     change       -0.5237116E-03 Eh
   gradient norm :     0.0125119 Eh/α   predicted    -0.5368978E-03 (   2.52%)
   displ. norm   :     0.5863223 α      lambda       -0.7570771E-03
   maximum displ.:     0.2102117 α      in ANC's #11, #7, #3, ...

........................................................................
.............................. CYCLE   32 ..............................
........................................................................
   1   -221.0854606 -0.221085E+03  0.112E-01    0.09       0.0  T
   2   -221.0831294  0.233115E-02  0.930E-02    0.10       1.0  T
   3   -220.7103394  0.372790E+00  0.950E-01    0.14       1.0  T
   4   -221.0810932 -0.370754E+00  0.117E-01    0.09       1.0  T
   5   -221.0837329 -0.263968E-02  0.746E-02    0.10       1.0  T
   6   -221.0849782 -0.124530E-02  0.362E-02    0.10       1.0  T
   7   -221.0852666 -0.288375E-03  0.282E-02    0.10       1.0  T
   8   -221.0854629 -0.196300E-03  0.123E-02    0.09       1.0  T
   9   -221.0855107 -0.478863E-04  0.499E-03    0.09       1.8  T
  10   -221.0855174 -0.670194E-05  0.265E-03    0.09       3.3  T
  11   -221.0855199 -0.248762E-05  0.116E-03    0.09       7.5  T
  12   -221.0855202 -0.310369E-06  0.943E-04    0.09       9.3  T
     SCC iter.                  ...        0 min,  0.268 sec
     gradient                   ...        0 min,  0.023 sec
 * total energy  :  -218.0107262 Eh     change       -0.4698977E-03 Eh
   gradient norm :     0.0162365 Eh/α   predicted    -0.5086717E-03 (   8.25%)
   displ. norm   :     0.6425452 α      lambda       -0.7995550E-03
   maximum displ.:     0.2124762 α      in ANC's #11, #7, #4, ...

........................................................................
.............................. CYCLE   33 ..............................
........................................................................
   1   -221.0745232 -0.221075E+03  0.133E-01    0.08       0.0  T
   2   -221.0652933  0.922990E-02  0.173E-01    0.15       1.0  T
   3   -220.8003108  0.264982E+00  0.834E-01    0.09       1.0  T
   4   -220.9227683 -0.122458E+00  0.634E-01    0.03       1.0  T
   5   -221.0669417 -0.144173E+00  0.148E-01    0.14       1.0  T
   6   -221.0686511 -0.170945E-02  0.126E-01    0.13       1.0  T
   7   -221.0713950 -0.274389E-02  0.929E-02    0.11       1.0  T
   8   -221.0736960 -0.230095E-02  0.503E-02    0.10       1.0  T
   9   -221.0747141 -0.101808E-02  0.676E-03    0.09       1.3  T
  10   -221.0747274 -0.133518E-04  0.283E-03    0.09       3.1  T
  11   -221.0747196  0.779049E-05  0.531E-03    0.09       1.7  T
  12   -221.0747270 -0.741089E-05  0.269E-03    0.09       3.3  T
  13   -221.0747286 -0.159299E-05  0.141E-03    0.09       6.2  T
  14   -221.0747292 -0.614061E-06  0.558E-04    0.09      15.7  T
     SCC iter.                  ...        0 min,  0.311 sec
     gradient                   ...        0 min,  0.023 sec
 * total energy  :  -218.0111884 Eh     change       -0.4621805E-03 Eh
   gradient norm :     0.0132555 Eh/α   predicted    -0.5648331E-03 (  22.21%)
   displ. norm   :     0.4621637 α      lambda       -0.7849102E-03
   maximum displ.:     0.1665219 α      in ANC's #7, #11, #4, ...

........................................................................
.............................. CYCLE   34 ..............................
........................................................................
   1   -221.0810041 -0.221081E+03  0.918E-02    0.08       0.0  T
   2   -221.0685050  0.124992E-01  0.193E-01    0.17       1.0  T
   3   -221.0527638  0.157412E-01  0.279E-01    0.03       1.0  T
   4   -221.0738847 -0.211209E-01  0.132E-01    0.10       1.0  T
   5   -221.0748547 -0.970053E-03  0.139E-01    0.14       1.0  T
   6   -221.0773518 -0.249707E-02  0.101E-01    0.12       1.0  T
   7   -221.0804977 -0.314588E-02  0.495E-02    0.10       1.0  T
   8   -221.0813297 -0.832071E-03  0.787E-03    0.09       1.1  T
   9   -221.0813410 -0.112246E-04  0.568E-03    0.09       1.5  T
  10   -221.0813511 -0.101922E-04  0.295E-03    0.09       3.0  T
  11   -221.0813545 -0.336516E-05  0.618E-04    0.09      14.2  T
  12   -221.0813544  0.158351E-06  0.869E-04    0.09      10.1  T
  13   -221.0813546 -0.269335E-06  0.130E-04    0.09      67.4  T
     SCC iter.                  ...        0 min,  0.290 sec
     gradient                   ...        0 min,  0.023 sec
 * total energy  :  -218.0116332 Eh     change       -0.4447546E-03 Eh
   gradient norm :     0.0151123 Eh/α   predicted    -0.4762828E-03 (   7.09%)
   displ. norm   :     0.5694346 α      lambda       -0.7896872E-03
   maximum displ.:     0.1907006 α      in ANC's #7, #11, #4, ...

........................................................................
.............................. CYCLE   35 ..............................
........................................................................
   1   -221.0802464 -0.221080E+03  0.123E-01    0.08       0.0  T
   2   -221.0714169  0.882952E-02  0.160E-01    0.11       1.0  T
   3   -220.8359871  0.235430E+00  0.771E-01    0.07       1.0  T
   4   -221.0690736 -0.233087E+00  0.191E-01    0.17       1.0  T
   5   -221.0721363 -0.306269E-02  0.137E-01    0.09       1.0  T
   6   -221.0723982 -0.261896E-03  0.147E-01    0.13       1.0  T
   7   -221.0750794 -0.268116E-02  0.119E-01    0.12       1.0  T
   8   -221.0783187 -0.323936E-02  0.742E-02    0.11       1.0  T
   9   -221.0803812 -0.206241E-02  0.200E-02    0.09       1.0  T
  10   -221.0805354 -0.154274E-03  0.273E-03    0.09       3.2  T
  11   -221.0805319  0.349681E-05  0.393E-03    0.09       2.2  T
  12   -221.0805372 -0.527627E-05  0.109E-03    0.09       8.0  T
  13   -221.0805375 -0.325773E-06  0.239E-04    0.09      36.7  T
  14   -221.0805374  0.166351E-06  0.643E-04    0.09      13.6  T
     SCC iter.                  ...        0 min,  0.312 sec
     gradient                   ...        0 min,  0.024 sec
 * total energy  :  -218.0121303 Eh     change       -0.4971520E-03 Eh
   gradient norm :     0.0129869 Eh/α   predicted    -0.5228798E-03 (   5.18%)
   displ. norm   :     0.5614551 α      lambda       -0.7304742E-03
   maximum displ.:     0.1940593 α      in ANC's #7, #11, #4, ...

........................................................................
.............................. CYCLE   36 ..............................
........................................................................
   1   -221.0815980 -0.221082E+03  0.115E-01    0.07       0.0  T
   2   -221.0705325  0.110655E-01  0.177E-01    0.08       1.0  T
   3   -221.0742966 -0.376405E-02  0.140E-01    0.06       1.0  T
   4   -221.0712727  0.302388E-02  0.175E-01    0.15       1.0  T
   5   -221.0748043 -0.353158E-02  0.135E-01    0.11       1.0  T
   6   -221.0790196 -0.421529E-02  0.978E-02    0.12       1.0  T
   7   -221.0809612 -0.194161E-02  0.584E-02    0.07       1.0  T
   8   -221.0824523 -0.149109E-02  0.138E-02    0.09       1.0  T
   9   -221.0824770 -0.247648E-04  0.969E-03    0.08       1.0  T
  10   -221.0825016 -0.246173E-04  0.334E-03    0.09       2.6  T
  11   -221.0824934  0.825367E-05  0.538E-03    0.08       1.6  T
  12   -221.0825046 -0.112463E-04  0.175E-03    0.09       5.0  T
  13   -221.0825057 -0.112165E-05  0.242E-04    0.09      36.3  T
  14   -221.0825057  0.124926E-07  0.242E-04    0.09      36.3  T
     SCC iter.                  ...        0 min,  0.311 sec
     gradient                   ...        0 min,  0.023 sec
 * total energy  :  -218.0126156 Eh     change       -0.4852960E-03 Eh
   gradient norm :     0.0126899 Eh/α   predicted    -0.4803787E-03 (  -1.01%)
   displ. norm   :     0.6272787 α      lambda       -0.7278948E-03
   maximum displ.:     0.2208685 α      in ANC's #7, #11, #4, ...

........................................................................
.............................. CYCLE   37 ..............................
........................................................................
   1   -221.0783089 -0.221078E+03  0.128E-01    0.08       0.0  T
   2   -221.0648274  0.134815E-01  0.216E-01    0.18       1.0  T
   3   -220.8926773  0.172150E+00  0.673E-01    0.05       1.0  T
   4   -221.0149413 -0.122264E+00  0.408E-01    0.01       1.0  T
   5   -221.0679737 -0.530324E-01  0.188E-01    0.16       1.0  T
   6   -221.0700979 -0.212415E-02  0.167E-01    0.15       1.0  T
   7   -221.0724052 -0.230731E-02  0.144E-01    0.13       1.0  T
   8   -221.0751298 -0.272461E-02  0.109E-01    0.12       1.0  T
   9   -221.0780439 -0.291409E-02  0.487E-02    0.10       1.0  T
  10   -221.0786719 -0.628056E-03  0.277E-02    0.09       1.0  T
  11   -221.0790296 -0.357666E-03  0.376E-03    0.09       2.3  T
  12   -221.0790261  0.351358E-05  0.389E-03    0.08       2.3  T
  13   -221.0790332 -0.707553E-05  0.384E-04    0.09      22.9  T
  14   -221.0790327  0.429897E-06  0.104E-03    0.09       8.5  T
  15   -221.0790331 -0.365858E-06  0.430E-04    0.09      20.4  T
     SCC iter.                  ...        0 min,  0.334 sec
     gradient                   ...        0 min,  0.023 sec
 * total energy  :  -218.0130870 Eh     change       -0.4714291E-03 Eh
   gradient norm :     0.0100090 Eh/α   predicted    -0.5071469E-03 (   7.58%)
   displ. norm   :     0.6059903 α      lambda       -0.5750900E-03
   maximum displ.:     0.2180888 α      in ANC's #7, #4, #11, ...

........................................................................
.............................. CYCLE   38 ..............................
........................................................................
   1   -221.0787443 -0.221079E+03  0.960E-02    0.08       0.0  T
   2   -221.0711715  0.757280E-02  0.141E-01    0.10       1.0  T
   3   -220.9586392  0.112532E+00  0.535E-01    0.02       1.0  T
   4   -221.0701268 -0.111488E+00  0.170E-01    0.13       1.0  T
   5   -221.0720943 -0.196750E-02  0.139E-01    0.14       1.0  T
   6   -221.0744074 -0.231306E-02  0.105E-01    0.11       1.0  T
   7   -221.0761568 -0.174945E-02  0.832E-02    0.11       1.0  T
   8   -221.0779050 -0.174815E-02  0.493E-02    0.10       1.0  T
   9   -221.0788450 -0.940012E-03  0.116E-02    0.09       1.0  T
  10   -221.0788933 -0.482955E-04  0.148E-03    0.08       5.9  T
  11   -221.0788937 -0.465147E-06  0.103E-03    0.08       8.6  T
  12   -221.0788933  0.424411E-06  0.136E-03    0.09       6.5  T
     SCC iter.                  ...        0 min,  0.268 sec
     gradient                   ...        0 min,  0.023 sec
 * total energy  :  -218.0134982 Eh     change       -0.4111962E-03 Eh
   gradient norm :     0.0100176 Eh/α   predicted    -0.3931417E-03 (  -4.39%)
   displ. norm   :     0.6217032 α      lambda       -0.5079882E-03
   maximum displ.:     0.2268640 α      in ANC's #7, #4, #11, ...

........................................................................
.............................. CYCLE   39 ..............................
........................................................................
   1   -221.0781524 -0.221078E+03  0.117E-01    0.07       0.0  T
   2   -221.0654442  0.127082E-01  0.200E-01    0.13       1.0  T
   3   -221.0520956  0.133486E-01  0.285E-01    0.03       1.0  T
   4   -221.0739425 -0.218469E-01  0.118E-01    0.07       1.0  T
   5   -221.0678608  0.608175E-02  0.178E-01    0.17       1.0  T
   6   -221.0751902 -0.732939E-02  0.110E-01    0.12       1.0  T
   7   -221.0776995 -0.250930E-02  0.656E-02    0.10       1.0  T
   8   -221.0788607 -0.116123E-02  0.281E-02    0.09       1.0  T
   9   -221.0791023 -0.241642E-03  0.872E-03    0.08       1.0  T
  10   -221.0791025 -0.166790E-06  0.776E-03    0.08       1.1  T
  11   -221.0791073 -0.483727E-05  0.679E-03    0.09       1.3  T
  12   -221.0791253 -0.179976E-04  0.219E-03    0.08       4.0  T
  13   -221.0791271 -0.180561E-05  0.693E-04    0.08      12.7  T
  14   -221.0791272 -0.650143E-07  0.463E-04    0.08      19.0  T
     SCC iter.                  ...        0 min,  0.312 sec
     gradient                   ...        0 min,  0.023 sec
 * total energy  :  -218.0138467 Eh     change       -0.3484908E-03 Eh
   gradient norm :     0.0093240 Eh/α   predicted    -0.3521736E-03 (   1.06%)
   displ. norm   :     0.6276766 α      lambda       -0.5342155E-03
   maximum displ.:     0.2285906 α      in ANC's #7, #4, #9, ...

........................................................................
.............................. CYCLE   40 ..............................
........................................................................
   1   -221.0794695 -0.221079E+03  0.111E-01    0.08       0.0  T
   2   -221.0668642  0.126053E-01  0.194E-01    0.15       1.0  T
   3   -220.9820833  0.847808E-01  0.502E-01    0.02       1.0  T
   4   -221.0581257 -0.760424E-01  0.226E-01    0.05       1.0  T
   5   -221.0697367 -0.116110E-01  0.166E-01    0.13       1.0  T
   6   -221.0716397 -0.190303E-02  0.142E-01    0.12       1.0  T
   7   -221.0745180 -0.287832E-02  0.114E-01    0.11       1.0  T
   8   -221.0785128 -0.399479E-02  0.563E-02    0.10       1.0  T
   9   -221.0797298 -0.121697E-02  0.912E-03    0.08       1.0  T
  10   -221.0797557 -0.258672E-04  0.623E-03    0.09       1.4  T
  11   -221.0797644 -0.871485E-05  0.332E-03    0.08       2.6  T
  12   -221.0797680 -0.366782E-05  0.804E-04    0.08      10.9  T
  13   -221.0797678  0.219185E-06  0.102E-03    0.08       8.6  T
  14   -221.0797682 -0.385368E-06  0.283E-04    0.08      31.0  T
     SCC iter.                  ...        0 min,  0.310 sec
     gradient                   ...        0 min,  0.023 sec
 * total energy  :  -218.0141893 Eh     change       -0.3425405E-03 Eh
   gradient norm :     0.0097405 Eh/α   predicted    -0.3723476E-03 (   8.70%)
   displ. norm   :     0.5937842 α      lambda       -0.5279504E-03
   maximum displ.:     0.2142297 α      in ANC's #4, #7, #9, ...

........................................................................
.............................. CYCLE   41 ..............................
........................................................................
   1   -221.0835979 -0.221084E+03  0.105E-01    0.09       0.0  T
   2   -221.0055821  0.780158E-01  0.436E-01    0.01       1.0  T
   3   -221.0790366 -0.734545E-01  0.122E-01    0.12       1.0  T
   4   -221.0386637  0.403729E-01  0.338E-01    0.02       1.0  T
   5   -221.0802978 -0.416341E-01  0.957E-02    0.12       1.0  T
   6   -221.0824173 -0.211951E-02  0.595E-02    0.10       1.0  T
   7   -221.0834718 -0.105453E-02  0.282E-02    0.09       1.0  T
   8   -221.0837618 -0.289946E-03  0.522E-03    0.08       1.7  T
   9   -221.0837642 -0.245685E-05  0.335E-03    0.08       2.6  T
  10   -221.0837677 -0.348842E-05  0.199E-03    0.08       4.4  T
  11   -221.0837676  0.120584E-06  0.199E-03    0.08       4.4  T
  12   -221.0837680 -0.406634E-06  0.155E-03    0.08       5.7  T
     SCC iter.                  ...        0 min,  0.269 sec
     gradient                   ...        0 min,  0.023 sec
 * total energy  :  -218.0144993 Eh     change       -0.3100881E-03 Eh
   gradient norm :     0.0110859 Eh/α   predicted    -0.3570532E-03 (  15.15%)
   displ. norm   :     0.5769243 α      lambda       -0.5273326E-03
   maximum displ.:     0.2083043 α      in ANC's #4, #7, #9, ...

........................................................................
.............................. CYCLE   42 ..............................
........................................................................
   1   -221.0793221 -0.221079E+03  0.109E-01    0.09       0.0  T
   2   -220.9402906  0.139031E+00  0.578E-01    0.03       1.0  T
   3   -221.0736306 -0.133340E+00  0.144E-01    0.12       1.0  T
   4   -220.9415535  0.132077E+00  0.610E-01    0.03       1.0  T
   5   -221.0760314 -0.134478E+00  0.110E-01    0.11       1.0  T
   6   -221.0765251 -0.493706E-03  0.101E-01    0.10       1.0  T
   7   -221.0775028 -0.977698E-03  0.839E-02    0.10       1.0  T
   8   -221.0783810 -0.878176E-03  0.653E-02    0.10       1.0  T
   9   -221.0792813 -0.900289E-03  0.385E-02    0.09       1.0  T
  10   -221.0796464 -0.365090E-03  0.179E-02    0.09       1.0  T
  11   -221.0797269 -0.804879E-04  0.912E-03    0.09       1.0  T
  12   -221.0797549 -0.280150E-04  0.129E-03    0.08       6.8  T
  13   -221.0797554 -0.509007E-06  0.261E-04    0.08      33.6  T
  14   -221.0797554 -0.151010E-07  0.124E-04    0.08      70.5  T
     SCC iter.                  ...        0 min,  0.310 sec
     gradient                   ...        0 min,  0.023 sec
 * total energy  :  -218.0147765 Eh     change       -0.2771715E-03 Eh
[...]
    93   1 H      0.924     0.058     2.223     2.332
    94   1 H      0.925     0.042     2.425     2.435
    95   1 H      0.926     0.085     1.929     2.172
    96   1 H      0.926     0.040     2.447     2.446
    97   1 H      0.924     0.055     2.260     2.351
    98   1 H      0.924     0.040     2.443     2.444
    99   1 H      0.924     0.034     2.537     2.491
   100   1 H      0.860     0.140     1.471     1.900
   101   1 H      0.860     0.148     1.413     1.862
   102   1 H      0.924     0.044     2.403     2.424
   103   1 H      0.924     0.049     2.333     2.389
   104   1 H      0.860     0.151     1.392     1.848
   105   1 H      0.860     0.159     1.344     1.816
   106   1 H      0.926     0.071     2.077     2.254
   107   1 H      0.923     0.089     1.889     2.149
   108   1 H      0.926     0.049     2.328     2.386
   109   1 H      0.926     0.048     2.350     2.397
   110   1 H      0.926     0.047     2.359     2.402
   111   1 H      0.926     0.037     2.484     2.465
   112   1 H      0.926     0.049     2.328     2.386
   113   1 H      0.925     0.077     2.006     2.215
   114   1 H      0.924     0.034     2.524     2.485
   115   1 H      0.924     0.060     2.198     2.318
   116   1 H      0.925     0.047     2.356     2.400
   117   1 H      0.925     0.070     2.090     2.261
   118   1 H      0.925     0.065     2.144     2.290
   119   1 H      0.924     0.048     2.347     2.396
   120   1 H      0.924     0.019     2.754     2.595
   121   1 H      0.925     0.042     2.429     2.437
   122   1 H      0.925     0.035     2.521     2.483
   123   1 H      0.925     0.025     2.664     2.552
   124   1 H      0.924     0.039     2.466     2.456
   125   1 H      0.924     0.051     2.306     2.375
   126   1 H      0.924     0.038     2.476     2.461
   127   1 H      0.924     0.049     2.338     2.391
   128   1 H      0.925     0.047     2.358     2.401
   129   1 H      0.926     0.031     2.574     2.509
   130   1 H      0.926     0.031     2.572     2.508

 Mol. C6AA /au·bohr⁶  :     244689.549096
 Mol. C8AA /au·bohr⁸  :    6438083.678528
 Mol. α(0) /au        :        777.603634


Wiberg/Mayer (AO) data.
largest (>0.10) Wiberg bond orders for each atom
          total WBO             WBO to atom ...
     1  C   3.955        C    7 1.482    N    2 1.271    H   79 0.969    N    5 0.157
     2  N   3.668        C    1 1.271    N    5 1.203    C    3 0.990
     3  C   3.972        C    4 1.005    N    2 0.990    H   81 0.970    H   80 0.970
     4  C   3.993        C    3 1.005    H   84 0.987    H   82 0.987    H   83 0.985
     5  N   2.957        C    6 1.476    N    2 1.203    C    1 0.157
     6  C   3.974        N    5 1.476    C    7 1.319    C   10 1.013
     7  C   3.976        C    1 1.482    C    6 1.319    C    8 1.016
     8  C   3.998        C    7 1.016    C    9 1.004    H   86 0.974    H   85 0.972
     9  C   3.997        C    8 1.004    H   87 0.989    H   88 0.987    H   89 0.986
    10  C   3.995        C    6 1.013    C   11 0.991    H   91 0.972    H   90 0.965
    11  C   3.993        C   12 1.045    C   10 0.991    H   93 0.948    H   92 0.941
    12  C   3.975        C   13 1.818    C   11 1.045    H   94 0.964
    13  C   3.981        C   12 1.818    C   14 1.104    H   95 0.936
    14  C   3.976        C   24 1.313    C   15 1.307    C   13 1.104
    15  C   3.956        C   21 1.338    C   14 1.307    C   16 1.030
    16  C   3.918        O   17 1.844    C   15 1.030    S   18 0.979
    17  O   2.161        C   16 1.844    S   18 0.167
    18  S   2.467        C   19 1.024    C   16 0.979    O   20 0.174    O   17 0.167
    19  C   3.920        O   20 1.812    S   18 1.024    C   21 1.023
    20  O   2.130        C   19 1.812    S   18 0.174
    21  C   3.956        C   15 1.338    C   22 1.336    C   19 1.023
    22  C   3.977        C   21 1.336    C   23 1.334    C   30 1.037
    23  C   3.953        C   24 1.336    C   22 1.334    C   28 1.025
    24  C   3.957        C   23 1.336    C   14 1.313    C   25 1.033
    25  C   3.921        O   26 1.827    C   24 1.033    S   27 0.995
    26  O   2.151        C   25 1.827    S   27 0.168
    27  S   2.458        C   28 1.006    C   25 0.995    O   29 0.172    O   26 0.168
    28  C   3.919        O   29 1.827    C   23 1.025    S   27 1.006
    29  O   2.146        C   28 1.827    S   27 0.172
    30  C   3.928        C   31 1.519    C   47 1.229    C   22 1.037
    31  C   3.950        C   30 1.519    C   32 1.259    H   96 0.963
    32  C   3.961        C   33 1.384    C   31 1.259    C   45 1.126
    33  C   3.852        C   32 1.384    C   39 1.136    C   34 1.049
    34  C   3.974        C   33 1.049    C   35 0.962    H   97 0.959    C   37 0.919
    35  C   3.968        N   36 1.030    H   98 0.974    C   34 0.962    H   99 0.959
    36  N   3.014        C   35 1.030    H  100 0.965    H  101 0.962
    37  C   3.961        N   38 1.056    H  102 0.971    H  103 0.969    C   34 0.919
    38  N   3.054        C   37 1.056    H  104 0.961    H  105 0.959
    39  C   3.983        C   40 1.652    C   33 1.136    C   44 1.064
    40  C   3.936        C   39 1.652    C   41 1.027    H  106 0.956
    41  C   3.989        C   40 1.027    C   42 1.026    C   48 0.950    H  107 0.905
    42  C   3.870        C   43 1.685    C   41 1.026    H  108 0.969
    43  C   3.982        C   42 1.685    C   44 1.237    H  109 0.962
    44  C   3.871        C   45 1.354    C   43 1.237    C   39 1.064
    45  C   3.962        C   44 1.354    C   46 1.262    C   32 1.126
    46  C   3.957        C   47 1.576    C   45 1.262    H  110 0.965
    47  C   3.915        C   46 1.576    C   30 1.229    H  111 0.970
    48  C   3.965        C   49 1.884    H  112 0.965    C   41 0.950
    49  C   3.980        C   48 1.884    C   50 1.055    H  113 0.940
    50  C   3.976        C   51 1.336    C   60 1.334    C   49 1.055
    51  C   3.938        C   50 1.336    C   57 1.319    C   52 1.034
    52  C   3.914        O   53 1.806    C   51 1.034    S   54 1.016
    53  O   2.121        C   52 1.806    S   54 0.172
    54  S   2.458        C   52 1.016    C   55 0.983    O   53 0.172    O   56 0.168
    55  C   3.911        O   56 1.831    C   57 1.035    S   54 0.983
    56  O   2.142        C   55 1.831    S   54 0.168
    57  C   3.936        C   58 1.324    C   51 1.319    C   55 1.035
    58  C   3.981        C   59 1.326    C   57 1.324    C   66 1.052
    59  C   3.937        C   58 1.326    C   60 1.308    C   64 1.043
    60  C   3.934        C   50 1.334    C   59 1.308    C   61 1.039
    61  C   3.905        O   62 1.785    C   60 1.039    S   63 1.021
    62  O   2.094        C   61 1.785    S   63 0.172
    63  S   2.456        C   61 1.021    C   64 0.976    O   62 0.172    O   65 0.166
    64  C   3.908        O   65 1.822    C   59 1.043    S   63 0.976
    65  O   2.135        C   64 1.822    S   63 0.166
    66  C   3.951        C   72 1.408    N   67 1.226    C   58 1.052    N   70 0.145
    67  N   3.668        C   66 1.226    N   70 1.216    C   68 0.985
    68  C   3.970        C   69 1.008    N   67 0.985    H  114 0.972    H  115 0.964
    69  C   3.986        C   68 1.008    H  116 0.984    H  117 0.983    H  118 0.979
    70  N   2.984        C   71 1.468    N   67 1.216    C   66 0.145
    71  C   3.973        N   70 1.468    C   72 1.319    C   75 1.017
    72  C   3.968        C   66 1.408    C   71 1.319    C   73 1.019
    73  C   3.997        C   72 1.019    C   74 1.001    H  120 0.972    H  119 0.969
    74  C   3.996        C   73 1.001    H  123 0.989    H  121 0.988    H  122 0.987
    75  C   3.995        C   71 1.017    H  124 0.974    H  125 0.969    C   76 0.968
    76  C   3.995        C   77 1.028    H  126 0.974    C   75 0.968    H  127 0.965
    77  C   3.990        C   78 1.977    C   76 1.028    H  128 0.963
    78  C   3.991        C   77 1.977    H  130 0.978    H  129 0.975
    79  H   0.999        C    1 0.969
    80  H   0.995        C    3 0.970
    81  H   0.997        C    3 0.970
    82  H   0.997        C    4 0.987
    83  H   0.997        C    4 0.985
    84  H   0.998        C    4 0.987
    85  H   0.999        C    8 0.972
    86  H   0.998        C    8 0.974
    87  H   0.999        C    9 0.989
    88  H   0.998        C    9 0.987
    89  H   0.999        C    9 0.986
    90  H   0.997        C   10 0.965
    91  H   0.997        C   10 0.972
    92  H   0.990        C   11 0.941
    93  H   0.994        C   11 0.948
    94  H   0.997        C   12 0.964
    95  H   0.991        C   13 0.936
    96  H   0.998        C   31 0.963
    97  H   0.996        C   34 0.959
    98  H   0.998        C   35 0.974
    99  H   0.996        C   35 0.959
   100  H   0.980        N   36 0.965
   101  H   0.976        N   36 0.962
   102  H   0.997        C   37 0.971
   103  H   0.994        C   37 0.969
   104  H   0.976        N   38 0.961
   105  H   0.974        N   38 0.959
   106  H   0.994        C   40 0.956
   107  H   0.980        C   41 0.905
   108  H   0.997        C   42 0.969
   109  H   0.996        C   43 0.962
   110  H   0.996        C   46 0.965
   111  H   0.998        C   47 0.970
   112  H   0.997        C   48 0.965
   113  H   0.992        C   49 0.940
   114  H   0.998        C   68 0.972
   115  H   0.995        C   68 0.964
   116  H   0.997        C   69 0.984
   117  H   0.995        C   69 0.983
   118  H   0.995        C   69 0.979
   119  H   0.997        C   73 0.969
   120  H   0.999        C   73 0.972
   121  H   0.998        C   74 0.988
   122  H   0.998        C   74 0.987
   123  H   0.999        C   74 0.989
   124  H   0.998        C   75 0.974
   125  H   0.996        C   75 0.969
   126  H   0.997        C   76 0.974
   127  H   0.998        C   76 0.965
   128  H   0.998        C   77 0.963
   129  H   0.999        C   78 0.975
   130  H   0.999        C   78 0.978

molecular dipole:
                 x           y           z       tot (Debye)
 q only:       -2.290      -1.273      -0.317
   full:       -2.071      -1.677       0.571       6.927
molecular quadrupole (traceless):
                xx          xy          yy          xz          yz          zz
 q only:      -57.298      25.257      39.062       4.467      -6.842      18.236
  q+dip:      -57.745      11.225      41.520       6.960     -21.647      16.224
   full:      -63.437      10.704      46.248       9.072     -19.833      17.189

           -------------------------------------------------
          |                Geometry Summary                 |
           -------------------------------------------------

      molecular mass/u    :     1113.3462000
   center of mass at/Å    :        5.4145525      -4.5228859      -2.6316062
  moments of inertia/u·Å² :        0.7579288E+04   0.8911612E+05   0.8986848E+05
rotational constants/cm⁻¹ :        0.2224171E-02   0.1891648E-03   0.1875811E-03

 * 109 selected distances

     #   Z        #   Z                                     value/Å
     1   6 C      2   7 N                                 1.3478976
     2   7 N      3   6 C                                 1.4370672
     3   6 C      4   6 C                                 1.5274366
     2   7 N      5   7 N                                 1.3284109
     5   7 N      6   6 C                                 1.3241007
     1   6 C      7   6 C                                 1.3795163
     6   6 C      7   6 C                                 1.4115542
     7   6 C      8   6 C                                 1.4929626
     8   6 C      9   6 C                                 1.5298752
     6   6 C     10   6 C                                 1.4913300
    10   6 C     11   6 C                                 1.5300901 (max)
    12   6 C     13   6 C                                 1.3320747
    14   6 C     15   6 C                                 1.4080459
    16   6 C     17   8 O                                 1.1930523
    19   6 C     20   8 O                                 1.1983178
    15   6 C     21   6 C                                 1.3999175
    21   6 C     22   6 C                                 1.4002538
    22   6 C     23   6 C                                 1.3982797
    14   6 C     24   6 C                                 1.4062447
    23   6 C     24   6 C                                 1.3963298
    25   6 C     26   8 O                                 1.1957436
    28   6 C     29   8 O                                 1.1959577
    30   6 C     31   6 C                                 1.3704339
    31   6 C     32   6 C                                 1.4067975
    32   6 C     33   6 C                                 1.3947007
    33   6 C     34   6 C                                 1.4805028
    35   6 C     36   7 N                                 1.4514138
    37   6 C     38   7 N                                 1.4352190
    39   6 C     40   6 C                                 1.3482887
    42   6 C     43   6 C                                 1.3491054
    43   6 C     44   6 C                                 1.4116222
    44   6 C     45   6 C                                 1.3915498
    45   6 C     46   6 C                                 1.4070254
    30   6 C     47   6 C                                 1.4222297
    46   6 C     47   6 C                                 1.3629959
    48   6 C     49   6 C                                 1.3244857
    50   6 C     51   6 C                                 1.3981925
    52   6 C     53   8 O                                 1.1987640
    55   6 C     56   8 O                                 1.1945902
    51   6 C     57   6 C                                 1.3983565
    57   6 C     58   6 C                                 1.4021257
    58   6 C     59   6 C                                 1.4020333
    50   6 C     60   6 C                                 1.4000728
    59   6 C     60   6 C                                 1.4034956
    61   6 C     62   8 O                                 1.2015368
    64   6 C     65   8 O                                 1.1953834
    66   6 C     67   7 N                                 1.3573387
    67   7 N     68   6 C                                 1.4396734
    68   6 C     69   6 C                                 1.5242342
    67   7 N     70   7 N                                 1.3213183
    70   7 N     71   6 C                                 1.3222589
    66   6 C     72   6 C                                 1.3890595
    71   6 C     72   6 C                                 1.4088026
    72   6 C     73   6 C                                 1.4906613
    73   6 C     74   6 C                                 1.5299842
    71   6 C     75   6 C                                 1.4889168
    77   6 C     78   6 C                                 1.3200588
     1   6 C     79   1 H                                 1.0719224
     3   6 C     80   1 H                                 1.0919512
     3   6 C     81   1 H                                 1.0941039
     4   6 C     82   1 H                                 1.0869770
     4   6 C     83   1 H                                 1.0864726
     4   6 C     84   1 H                                 1.0877433
     8   6 C     85   1 H                                 1.0933421
     8   6 C     86   1 H                                 1.0915878
     9   6 C     87   1 H                                 1.0877294
     9   6 C     88   1 H                                 1.0878197
     9   6 C     89   1 H                                 1.0882750
    10   6 C     90   1 H                                 1.0923089
    10   6 C     91   1 H                                 1.0901502
    11   6 C     92   1 H                                 1.0951152
    11   6 C     93   1 H                                 1.0947414
    12   6 C     94   1 H                                 1.0835020
    13   6 C     95   1 H                                 1.0795024
    31   6 C     96   1 H                                 1.0797930
    34   6 C     97   1 H                                 1.0951245
    35   6 C     98   1 H                                 1.0936451
    35   6 C     99   1 H                                 1.0971447
    36   7 N    100   1 H                                 1.0148519
    36   7 N    101   1 H                                 1.0130920
    37   6 C    102   1 H                                 1.0921282
    37   6 C    103   1 H                                 1.0930287
    38   7 N    104   1 H                                 1.0125896 (min)
    38   7 N    105   1 H                                 1.0134131
    40   6 C    106   1 H                                 1.0794745
    41   6 C    107   1 H                                 1.0989750
    42   6 C    108   1 H                                 1.0789991
    43   6 C    109   1 H                                 1.0800167
    46   6 C    110   1 H                                 1.0793294
    47   6 C    111   1 H                                 1.0799244
    48   6 C    112   1 H                                 1.0809821
    49   6 C    113   1 H                                 1.0820017
    68   6 C    114   1 H                                 1.0932797
    68   6 C    115   1 H                                 1.0958875
    69   6 C    116   1 H                                 1.0864550
    69   6 C    117   1 H                                 1.0859125
    69   6 C    118   1 H                                 1.0871151
    73   6 C    119   1 H                                 1.0909890
    73   6 C    120   1 H                                 1.0938769
    74   6 C    121   1 H                                 1.0873149
    74   6 C    122   1 H                                 1.0876302
    74   6 C    123   1 H                                 1.0888010
    75   6 C    124   1 H                                 1.0910951
    75   6 C    125   1 H                                 1.0909798
    76   6 C    126   1 H                                 1.0919794
    76   6 C    127   1 H                                 1.0923461
    77   6 C    128   1 H                                 1.0819884
    78   6 C    129   1 H                                 1.0789730
    78   6 C    130   1 H                                 1.0770974

 * 6 distinct bonds (by element types)

   Z      Z             #   av. dist./Å        max./Å        min./Å
   1 H    6 C          48     1.0878236     1.0989750     1.0719224
   6 C    6 C          39     1.4187088     1.5300901     1.3200588
   1 H    7 N           4     1.0134866     1.0148519     1.0125896
   6 C    7 N           8     1.3893712     1.4514138     1.3222589
   7 N    7 N           2     1.3248646     1.3284109     1.3213183
   6 C    8 O           8     1.1966682     1.2015368     1.1930523


optimized geometry written to: xtbopt.xyz


           -------------------------------------------------
          | TOTAL ENERGY             -218.021104035160 Eh   |
          | GRADIENT NORM               0.000619048152 Eh/α |
          | HOMO-LUMO GAP               0.084711989586 eV   |
           -------------------------------------------------

------------------------------------------------------------------------
 * finished run on 2021/05/28 at 22:16:44.243     
------------------------------------------------------------------------
 total:
 * wall-time:     0 d,  0 h,  1 min,  0.068 sec
 *  cpu-time:     0 d,  0 h, 11 min, 59.807 sec
 * ratio c/w:    11.983 speedup
 SCF:
 * wall-time:     0 d,  0 h,  0 min,  0.693 sec
 *  cpu-time:     0 d,  0 h,  0 min,  7.933 sec
 * ratio c/w:    11.446 speedup
 ANC optimizer:
 * wall-time:     0 d,  0 h,  0 min, 59.269 sec
 *  cpu-time:     0 d,  0 h, 11 min, 51.008 sec
 * ratio c/w:    11.996 speedup

