      -----------------------------------------------------------      
     |                   =====================                   |     
     |                           x T B                           |     
     |                   =====================                   |     
     |                         S. Grimme                         |     
     |          Mulliken Center for Theoretical Chemistry        |     
     |                    University of Bonn                     |     
     |                Version 6.2 RC2 (SAW190805)                |     
      -----------------------------------------------------------      

   This program is distributed in the hope that it will be useful,
   but WITHOUT ANY WARRANTY; without even the implied warranty of
   MERCHANTABILITY or FITNESS FOR A PARTICULAR PURPOSE.
   
   FOR NON-COMMERCIAL, ACADEMIA USE ONLY.
   
   Cite this work as:
   * S. Grimme, C. Bannwarth, P. Shushkov, J. Chem. Theory Comput., 2017,
     13, 1989-2009. DOI: 10.1021/acs.jctc.7b00118
   * C. Bannwarth, S. Ehlert and S. Grimme., J. Chem. Theory Comput., 2019,
     15, 1652-1671. DOI: 10.1021/acs.jctc.8b01176
   * P. Pracht, E. Caldeweyher, S. Ehlert, S. Grimme, ChemRxiv, 2019, preprint.
     DOI: 10.26434/chemrxiv.8326202.v1
   
   for DFT-D4:
   * E. Caldeweyher, C. Bannwarth and S. Grimme, J. Chem. Phys., 2017,
     147, 034112. DOI: 10.1063/1.4993215
   * E. Caldeweyher, S. Ehlert, A. Hansen, H. Neugebauer, S. Spicher,
     C. Bannwarth and S. Grimme, J. Chem. Phys., 2019, 150, 154122.
     DOI: 10.1063/1.5090222
   
   for sTDA-xTB:
   * S. Grimme and C. Bannwarth, J. Chem. Phys., 2016, 145, 054103.
     DOI: 10.1063/1.4959605
   
   in the mass-spec context:
   * V. Asgeirsson, C. Bauer and S. Grimme, Chem. Sci., 2017, 8, 4879.
     DOI: 10.1039/c7sc00601b
   
   for metadynamics refer to:
   * S. Grimme, J. Chem. Theory Comput., 2019, 155, 2847-2862
     DOI: 10.1021/acs.jctc.9b00143
   
   with help from (in alphabetical order)
   C. Bannwarth, F. Bohle, G. Brandenburg, E. Caldeweyher, M. Checinski,
   S. Dohm, S. Ehlert, S. Ehrlich, F. März, H. Neugebauer, J. Pisarek,
   P. Pracht, P. Shushkov, and S. Spicher.
   
 * started run on 2021/05/25 at 21:50:09.125     

           -------------------------------------------------
          |                Calculation Setup                |
           -------------------------------------------------

          program call               : /ihome/ghutchison/geoffh/xtb/xtb /ihome/ghutchison/blp62/GA/running_GA/more_units/generations/67/256_644_103_644_256.xyz -opt
          hostname                   : smp-n107
          coordinate file            : /ihome/ghutchison/blp62/GA/running_GA/more_units/generations/67/256_644_103_644_256.xyz
          omp threads                :                    12
          number of atoms            :                    98
          number of electrons        :                   338
          charge                     :                     0
          spin                       :                   0.0
          first test random number   :      0.57914386607112


########################################################################
# WARNING! Please study the warnings concerning your input carefully
#  - XTBPATH is not set, using XTBHOME instead
#  - the use of '-opt' is discouraged, please use '--opt' next time
########################################################################

           ------------------------------------------------- 
          |                 G F N 2 - x T B                 |
          | Geometry, Frequencies, Noncovalent interactions |
          |            JCTC 2019 parametrisation            |
           ------------------------------------------------- 
             KAB for C  - Si     :                1.0500
             KAB for H  - Pd     :                0.9500
             k(s)              :                1.8500
             k(p)              :                2.2300
             k(d)              :                2.2300
             k(f)              :                2.0000
             kEN (H0ij)        :               -2.0000
             D4 a1             :                0.5200
             D4 a2             :                5.0000
             D4 s6             :                1.0000
             D4 s8             :                2.7000
             D4 s9             :                5.0000
             alphaj            :                2.0000

  Z AO/shell   Hii/eV     exponent
  1     Wed Apr 25 08:07:45 CEST 2018   EN: 2.200 GM2: 0.406  GM3: 0.0800  RAES: 1.40
     1s    -10.707211    1.230000
  6     Wed Apr 25 08:07:45 CEST 2018   EN: 2.550 GM2: 0.538  GM3: 0.1500  RAES: 3.00
     2s    -13.970922    2.096432
     2p    -10.063292    1.800000
  7     Wed Apr 25 08:07:45 CEST 2018   EN: 3.040 GM2: 0.461  GM3:-0.0640  RAES: 1.90
     2s    -16.686243    2.339881
     2p    -12.523956    2.014332
  8     Wed Apr 25 08:07:45 CEST 2018   EN: 3.440 GM2: 0.452  GM3:-0.0517  RAES: 1.80
     2s    -20.229985    2.439742
     2p    -15.503117    2.137023
 16     Tue Apr 24 11:44:34 CEST 2018   EN: 2.580 GM2: 0.340  GM3:-0.0502  RAES: 3.10
     3s    -20.029654    1.981333
     3p    -11.377694    2.025643
     3d     -0.420282    1.702555

           ------------------------------------------------- 
          |        Self-Consistent Charge Iterations        |
           ------------------------------------------------- 

          ...................................................
          :                      SETUP                      :
          :.................................................:
          :  # basis functions                 344          :
          :  # atomic orbitals                 338          :
          :  # shells                          174          :
          :  # electrons                       338          :
          :  max. iterations                   250          :
          :  Hamiltonian                  GFN2-xTB          :
          :  restarted?                      false          :
          :  GBSA solvation                  false          :
          :  PC potential                    false          :
          :  electronic temp.          300.0000000     K    :
          :  accuracy                    1.0000000          :
          :  -> integral cutoff          0.2500000E+02      :
          :  -> integral neglect         0.1000000E-07      :
          :  -> SCF convergence          0.1000000E-05 Eh   :
          :  -> wf. convergence          0.1000000E-03 e    :
          :  Broyden damping             0.4000000          :
          ...................................................

 iter      E             dE          RMSdq      gap      omega  full diag
   1   -188.9738653 -0.188974E+03  0.512E+00    0.58       0.0  T
   2   -189.0859619 -0.112097E+00  0.303E+00    0.10       1.0  T
   3   -188.8797651  0.206197E+00  0.217E+00    0.07       1.0  T
   4   -188.3301997  0.549565E+00  0.362E+00    0.17       1.0  T
   5   -189.1606372 -0.830438E+00  0.979E-01    0.54       1.0  T
   6   -189.2022282 -0.415910E-01  0.465E-01    0.13       1.0  T
   7   -189.1849776  0.172506E-01  0.489E-01    0.09       1.0  T
   8   -189.2172920 -0.323144E-01  0.275E-01    0.31       1.0  T
   9   -189.1982114  0.190806E-01  0.325E-01    0.09       1.0  T
  10   -189.2186244 -0.204130E-01  0.221E-01    0.34       1.0  T
  11   -189.2194176 -0.793281E-03  0.186E-01    0.33       1.0  T
  12   -189.2198956 -0.477969E-03  0.155E-01    0.32       1.0  T
  13   -189.2206127 -0.717129E-03  0.122E-01    0.29       1.0  T
  14   -189.2211241 -0.511314E-03  0.967E-02    0.28       1.0  T
  15   -189.2217188 -0.594697E-03  0.739E-02    0.26       1.0  T
  16   -189.2222320 -0.513203E-03  0.464E-02    0.22       1.0  T
  17   -189.2225679 -0.335972E-03  0.172E-02    0.20       1.0  T
  18   -189.2224392  0.128694E-03  0.397E-02    0.18       1.0  T
  19   -189.2225949 -0.155685E-03  0.910E-03    0.20       1.1  T
  20   -189.2226024 -0.743219E-05  0.714E-03    0.19       1.4  T
  21   -189.2226011  0.129525E-05  0.702E-03    0.19       1.4  T
  22   -189.2226040 -0.296020E-05  0.348E-03    0.19       2.9  T
  23   -189.2226048 -0.813178E-06  0.907E-04    0.19      11.1  T
  24   -189.2226048  0.220123E-08  0.554E-04    0.19      18.2  T

   *** convergence criteria satisfied after 24 iterations ***

         #    Occupation            Energy/Eh            Energy/eV
      -------------------------------------------------------------
         1        2.0000           -0.7965165             -21.6743
       ...           ...                  ...                  ...
       163        2.0000           -0.4032211             -10.9722
       164        2.0000           -0.4019727             -10.9382
       165        2.0000           -0.3881798             -10.5629
       166        1.9991           -0.3760923             -10.2340
       167        1.9919           -0.3740068             -10.1772
       168        1.9738           -0.3728790             -10.1466
       169        1.9659           -0.3726231             -10.1396 (HOMO)
       170        0.0639           -0.3655312              -9.9466 (LUMO)
       171        0.0053           -0.3631419              -9.8816
       172                         -0.3395768              -9.2404
       173                         -0.3371396              -9.1740
       174                         -0.3316510              -9.0247
       ...                                ...                  ...
       338                          0.7863489              21.3976
      -------------------------------------------------------------
                  HL-Gap            0.0070919 Eh            0.1930 eV
             Fermi-level           -0.3687717 Eh          -10.0348 eV

 SCC (total)                   0 d,  0 h,  0 min,  0.929 sec
 SCC setup                      ...        0 min,  0.002 sec (  0.260%)
 Dispersion                     ...        0 min,  0.005 sec (  0.568%)
 integral evaluation            ...        0 min,  0.033 sec (  3.547%)
 zeroth order Hamiltonian       ...        0 min,  0.001 sec (  0.147%)
 iterations                     ...        0 min,  0.853 sec ( 91.784%)
 molecular gradient             ...        0 min,  0.033 sec (  3.521%)
 printout                       ...        0 min,  0.001 sec (  0.157%)

         :::::::::::::::::::::::::::::::::::::::::::::::::::::
         ::                     SUMMARY                     ::
         :::::::::::::::::::::::::::::::::::::::::::::::::::::
         :: total energy            -186.634688566374 Eh    ::
         :: gradient norm              0.260223425724 Eh/a0 ::
         :: HOMO-LUMO gap              0.192981192851 eV    ::
         ::.................................................::
         :: SCC energy              -189.222604826579 Eh    ::
         :: -> isotropic ES            0.175709939632 Eh    ::
         :: -> anisotropic ES          0.015592086569 Eh    ::
         :: -> anisotropic XC          0.093975267767 Eh    ::
         :: -> dispersion             -0.146917792342 Eh    ::
         :: repulsion energy           2.587834970188 Eh    ::
         :: add. restraining           0.000000000000 Eh    ::
         :::::::::::::::::::::::::::::::::::::::::::::::::::::

      ----------------------------------------------------------- 
     |                   =====================                   |
     |                        A N C O P T                        |
     |                   =====================                   |
     |               Approximate Normal Coordinate               |
     |                Rational Function Optimizer                |
      ----------------------------------------------------------- 

          ...................................................
          :                      SETUP                      :
          :.................................................:
          :   optimization level            normal          :
          :   max. optcycles                   294          :
          :   ANC micro-cycles                  20          :
          :   degrees of freedom               288          :
          :.................................................:
          :   RF solver                   davidson          :
          :   input Hessian                  false          :
          :   write xtbopt.log                true          :
          :   linear?                        false          :
          :   energy convergence         0.5000000E-05 Eh   :
          :   grad. convergence          0.1000000E-02 Eh/α :
          :   maximium RF displ.         2.0000000          :
          :   Hlow (freq-cutoff)         0.5000000E-02      :
          :   Hmax (freq-cutoff)         5.0000000          :
          :   S6 in model hess.         20.0000000          :
          ...................................................

generating ANC from model Hessian ...
Using Lindh-Hessian (1995)
 Shifting diagonal of input Hessian by   4.978311767563153E-003
 Lowest  eigenvalues of input Hessian
   -0.000000   -0.000000    0.000000    0.000000    0.000000    0.000000
    0.005000    0.005018    0.005038    0.005067    0.005090    0.005205
    0.005296    0.005320    0.005345    0.005526    0.005631    0.005948
 Highest eigenvalues
    2.178209    2.190989    2.251692    2.256231    2.371755    2.380739
 

........................................................................
.............................. CYCLE    1 ..............................
........................................................................
   1   -189.2226049 -0.189223E+03  0.223E-04    0.19       0.0  T
   2   -189.2226047  0.116504E-06  0.907E-04    0.19      11.1  T
   3   -189.2226049 -0.120057E-06  0.103E-04    0.19      97.7  T
     SCC iter.                  ...        0 min,  0.077 sec
     gradient                   ...        0 min,  0.034 sec
 * total energy  :  -186.6346886 Eh     change       -0.1904135E-07 Eh
   gradient norm :     0.2602173 Eh/α   predicted     0.0000000E+00 (-100.00%)
   displ. norm   :     0.4180930 α      lambda       -0.6953442E-01
   maximum displ.:     0.1198942 α      in ANC's #120, #119, #87, ...

........................................................................
.............................. CYCLE    2 ..............................
........................................................................
   1   -189.2322589 -0.189232E+03  0.554E-01    0.07       0.0  T
   2   -188.5190539  0.713205E+00  0.292E+00    0.13       1.0  T
   3   -189.2131698 -0.694116E+00  0.702E-01    0.26       1.0  T
   4   -189.1192570  0.939128E-01  0.127E+00    0.02       1.0  T
   5   -189.2683007 -0.149044E+00  0.328E-01    0.18       1.0  T
   6   -189.2793379 -0.110373E-01  0.182E-01    0.19       1.0  T
   7   -189.2521814  0.271565E-01  0.333E-01    0.08       1.0  T
   8   -189.2790555 -0.268741E-01  0.172E-01    0.26       1.0  T
   9   -189.2802634 -0.120785E-02  0.149E-01    0.25       1.0  T
  10   -189.2818333 -0.156996E-02  0.118E-01    0.23       1.0  T
  11   -189.2828017 -0.968393E-03  0.943E-02    0.20       1.0  T
  12   -189.2825954  0.206349E-03  0.988E-02    0.22       1.0  T
  13   -189.2833311 -0.735743E-03  0.739E-02    0.20       1.0  T
  14   -189.2834439 -0.112779E-03  0.590E-02    0.17       1.0  T
  15   -189.2834715 -0.276154E-04  0.566E-02    0.17       1.0  T
  16   -189.2835466 -0.750618E-04  0.552E-02    0.17       1.0  T
  17   -189.2835500 -0.344205E-05  0.529E-02    0.17       1.0  T
  18   -189.2835628 -0.128329E-04  0.508E-02    0.17       1.0  T
  19   -189.2835848 -0.219434E-04  0.479E-02    0.18       1.0  T
  20   -189.2836011 -0.162907E-04  0.436E-02    0.18       1.0  T
  21   -189.2836376 -0.364837E-04  0.337E-02    0.18       1.0  T
  22   -189.2836791 -0.415274E-04  0.207E-02    0.18       1.0  T
  23   -189.2836883 -0.922679E-05  0.167E-02    0.18       1.0  T
  24   -189.2836948 -0.646645E-05  0.123E-02    0.18       1.0  T
  25   -189.2837025 -0.773640E-05  0.187E-03    0.18       5.4  T
  26   -189.2837020  0.476100E-06  0.337E-03    0.18       3.0  T
  27   -189.2837029 -0.821105E-06  0.163E-03    0.18       6.2  T
     SCC iter.                  ...        0 min,  0.698 sec
     gradient                   ...        0 min,  0.031 sec
 * total energy  :  -186.6838160 Eh     change       -0.4912741E-01 Eh
   gradient norm :     0.1117893 Eh/α   predicted    -0.4084469E-01 ( -16.86%)
   displ. norm   :     0.4407912 α      lambda       -0.2606125E-01
   maximum displ.:     0.1067035 α      in ANC's #62, #61, #36, ...

........................................................................
.............................. CYCLE    3 ..............................
........................................................................
   1   -189.2712923 -0.189271E+03  0.528E-01    0.08       0.0  T
   2   -188.4525717  0.818721E+00  0.307E+00    0.17       1.0  T
   3   -189.2461468 -0.793575E+00  0.681E-01    0.24       1.0  T
   4   -189.2114090  0.347378E-01  0.977E-01    0.04       1.0  T
   5   -189.2162908 -0.488177E-02  0.116E+00    0.04       1.0  T
   6   -189.2992101 -0.829193E-01  0.341E-01    0.22       1.0  T
   7   -189.3031339 -0.392375E-02  0.368E-01    0.11       1.0  T
   8   -189.2583551  0.447787E-01  0.447E-01    0.07       1.0  T
   9   -189.3092546 -0.508994E-01  0.201E-01    0.23       1.0  T
  10   -189.3103294 -0.107486E-02  0.186E-01    0.24       1.0  T
  11   -189.3107566 -0.427138E-03  0.167E-01    0.21       1.0  T
  12   -189.3121165 -0.135999E-02  0.151E-01    0.22       1.0  T
  13   -189.3136423 -0.152578E-02  0.128E-01    0.23       1.0  T
  14   -189.3150865 -0.144416E-02  0.952E-02    0.20       1.0  T
  15   -189.3158384 -0.751953E-03  0.601E-02    0.16       1.0  T
  16   -189.3158587 -0.202243E-04  0.594E-02    0.17       1.0  T
  17   -189.3158813 -0.225998E-04  0.545E-02    0.17       1.0  T
  18   -189.3158872 -0.594945E-05  0.519E-02    0.17       1.0  T
  19   -189.3159152 -0.280087E-04  0.454E-02    0.17       1.0  T
  20   -189.3159294 -0.141368E-04  0.430E-02    0.17       1.0  T
  21   -189.3159511 -0.217161E-04  0.367E-02    0.17       1.0  T
  22   -189.3159989 -0.477922E-04  0.170E-02    0.17       1.0  T
  23   -189.3160011 -0.226014E-05  0.122E-02    0.17       1.0  T
  24   -189.3160012 -0.537174E-07  0.118E-02    0.17       1.0  T
  25   -189.3160054 -0.426179E-05  0.937E-03    0.17       1.1  T
  26   -189.3160108 -0.538354E-05  0.403E-03    0.17       2.5  T
  27   -189.3160109 -0.291449E-07  0.319E-03    0.17       3.2  T
     SCC iter.                  ...        0 min,  0.862 sec
     gradient                   ...        0 min,  0.029 sec
 * total energy  :  -186.7000908 Eh     change       -0.1627476E-01 Eh
   gradient norm :     0.0412010 Eh/α   predicted    -0.1556245E-01 (  -4.38%)
   displ. norm   :     0.4939045 α      lambda       -0.7758009E-02
   maximum displ.:     0.1398885 α      in ANC's #33, #17, #36, ...

........................................................................
.............................. CYCLE    4 ..............................
........................................................................
   1   -189.3048763 -0.189305E+03  0.278E-01    0.12       0.0  T
   2   -189.2815066  0.233697E-01  0.410E-01    0.17       1.0  T
   3   -189.3084075 -0.269009E-01  0.194E-01    0.15       1.0  T
   4   -189.2976210  0.107865E-01  0.276E-01    0.12       1.0  T
   5   -189.1533001  0.144321E+00  0.126E+00    0.03       1.0  T
   6   -189.2792100 -0.125910E+00  0.491E-01    0.08       1.0  T
   7   -189.3090185 -0.298085E-01  0.124E-01    0.19       1.0  T
   8   -189.3100567 -0.103813E-02  0.941E-02    0.18       1.0  T
   9   -189.3105848 -0.528112E-03  0.908E-02    0.19       1.0  T
  10   -189.3103695  0.215302E-03  0.973E-02    0.18       1.0  T
  11   -189.3107012 -0.331757E-03  0.895E-02    0.18       1.0  T
  12   -189.3108822 -0.180975E-03  0.825E-02    0.17       1.0  T
  13   -189.3108886 -0.641957E-05  0.803E-02    0.17       1.0  T
  14   -189.3108948 -0.621214E-05  0.784E-02    0.17       1.0  T
  15   -189.3109477 -0.528694E-04  0.729E-02    0.17       1.0  T
  16   -189.3110384 -0.906853E-04  0.648E-02    0.17       1.0  T
  17   -189.3111376 -0.991906E-04  0.509E-02    0.17       1.0  T
  18   -189.3112597 -0.122066E-03  0.290E-02    0.17       1.0  T
  19   -189.3113030 -0.433584E-04  0.149E-02    0.16       1.0  T
  20   -189.3113130 -0.100054E-04  0.937E-03    0.16       1.1  T
  21   -189.3113195 -0.649583E-05  0.122E-03    0.16       8.3  T
  22   -189.3113196 -0.437554E-07  0.141E-03    0.16       7.2  T
  23   -189.3113196 -0.491905E-07  0.112E-03    0.16       9.0  T
     SCC iter.                  ...        0 min,  0.603 sec
     gradient                   ...        0 min,  0.034 sec
 * total energy  :  -186.7061438 Eh     change       -0.6053029E-02 Eh
   gradient norm :     0.0296361 Eh/α   predicted    -0.4825260E-02 ( -20.28%)
   displ. norm   :     0.6373303 α      lambda       -0.6621850E-02
   maximum displ.:     0.1960529 α      in ANC's #17, #33, #23, ...

........................................................................
.............................. CYCLE    5 ..............................
........................................................................
   1   -189.3019351 -0.189302E+03  0.307E-01    0.12       0.0  T
   2   -189.2801035  0.218316E-01  0.391E-01    0.19       1.0  T
   3   -189.2815940 -0.149050E-02  0.563E-01    0.08       1.0  T
   4   -189.2685376  0.130564E-01  0.423E-01    0.13       1.0  T
   5   -188.9744378  0.294100E+00  0.154E+00    0.02       1.0  T
   6   -189.2901904 -0.315753E+00  0.357E-01    0.11       1.0  T
   7   -189.2974727 -0.728234E-02  0.218E-01    0.13       1.0  T
   8   -189.3012118 -0.373909E-02  0.214E-01    0.19       1.0  T
   9   -189.3005137  0.698117E-03  0.220E-01    0.21       1.0  T
  10   -189.3009639 -0.450189E-03  0.207E-01    0.21       1.0  T
  11   -189.3015197 -0.555772E-03  0.175E-01    0.17       1.0  T
  12   -189.3026485 -0.112883E-02  0.166E-01    0.19       1.0  T
  13   -189.3031116 -0.463123E-03  0.157E-01    0.18       1.0  T
  14   -189.3023431  0.768500E-03  0.151E-01    0.17       1.0  T
  15   -189.3039217 -0.157856E-02  0.133E-01    0.18       1.0  T
  16   -189.3040126 -0.909207E-04  0.126E-01    0.18       1.0  T
  17   -189.3044531 -0.440493E-03  0.110E-01    0.17       1.0  T
  18   -189.3053744 -0.921300E-03  0.723E-02    0.17       1.0  T
  19   -189.3059812 -0.606760E-03  0.286E-02    0.16       1.0  T
  20   -189.3060946 -0.113496E-03  0.170E-02    0.16       1.0  T
  21   -189.3061491 -0.544109E-04  0.108E-02    0.16       1.0  T
  22   -189.3061590 -0.993176E-05  0.676E-03    0.15       1.5  T
  23   -189.3061636 -0.464453E-05  0.393E-03    0.15       2.6  T
  24   -189.3061641 -0.439389E-06  0.931E-04    0.15      10.8  T
     SCC iter.                  ...        0 min,  1.271 sec
     gradient                   ...        0 min,  0.022 sec
 * total energy  :  -186.7113834 Eh     change       -0.5239627E-02 Eh
   gradient norm :     0.0267628 Eh/α   predicted    -0.4655794E-02 ( -11.14%)
   displ. norm   :     0.6472037 α      lambda       -0.5052609E-02
   maximum displ.:     0.2188430 α      in ANC's #17, #32, #23, ...

........................................................................
.............................. CYCLE    6 ..............................
........................................................................
   1   -189.3030599 -0.189303E+03  0.276E-01    0.13       0.0  T
   2   -189.2921893  0.108706E-01  0.276E-01    0.18       1.0  T
   3   -189.0478556  0.244334E+00  0.103E+00    0.05       1.0  T
   4   -188.8702307  0.177625E+00  0.203E+00    0.03       1.0  T
   5   -189.2480488 -0.377818E+00  0.530E-01    0.10       1.0  T
   6   -189.2967573 -0.487084E-01  0.208E-01    0.15       1.0  T
   7   -189.2960311  0.726193E-03  0.185E-01    0.16       1.0  T
   8   -189.2990150 -0.298393E-02  0.154E-01    0.18       1.0  T
   9   -189.3005426 -0.152761E-02  0.125E-01    0.17       1.0  T
  10   -189.3023313 -0.178869E-02  0.870E-02    0.17       1.0  T
  11   -189.3031052 -0.773930E-03  0.663E-02    0.17       1.0  T
  12   -189.3039337 -0.828486E-03  0.287E-02    0.16       1.0  T
  13   -189.3040394 -0.105701E-03  0.179E-02    0.14       1.0  T
  14   -189.3041044 -0.649957E-04  0.798E-03    0.15       1.3  T
  15   -189.3041148 -0.103753E-04  0.481E-03    0.15       2.1  T
  16   -189.3041194 -0.463197E-05  0.186E-03    0.15       5.4  T
  17   -189.3041197 -0.324892E-06  0.128E-03    0.15       7.9  T
     SCC iter.                  ...        0 min,  0.409 sec
     gradient                   ...        0 min,  0.022 sec
 * total energy  :  -186.7155027 Eh     change       -0.4119314E-02 Eh
   gradient norm :     0.0321389 Eh/α   predicted    -0.3584588E-02 ( -12.98%)
   displ. norm   :     0.6476873 α      lambda       -0.4562083E-02
   maximum displ.:     0.2348773 α      in ANC's #17, #32, #18, ...

........................................................................
.............................. CYCLE    7 ..............................
........................................................................
   1   -189.3110152 -0.189311E+03  0.263E-01    0.15       0.0  T
   2   -189.3034830  0.753225E-02  0.313E-01    0.11       1.0  T
   3   -189.2819629  0.215201E-01  0.385E-01    0.12       1.0  T
   4   -189.2917614 -0.979854E-02  0.294E-01    0.09       1.0  T
   5   -189.2944906 -0.272917E-02  0.326E-01    0.28       1.0  T
   6   -189.3103451 -0.158545E-01  0.134E-01    0.16       1.0  T
   7   -189.3104259 -0.808555E-04  0.123E-01    0.15       1.0  T
   8   -189.3108679 -0.442012E-03  0.111E-01    0.14       1.0  T
   9   -189.3110247 -0.156740E-03  0.919E-02    0.15       1.0  T
  10   -189.3109740  0.507172E-04  0.720E-02    0.15       1.0  T
  11   -189.3109905 -0.165453E-04  0.601E-02    0.15       1.0  T
  12   -189.3112705 -0.280032E-03  0.209E-02    0.15       1.0  T
  13   -189.3112807 -0.101533E-04  0.286E-02    0.14       1.0  T
  14   -189.3113317 -0.509657E-04  0.135E-02    0.14       1.0  T
  15   -189.3113416 -0.997138E-05  0.565E-03    0.14       1.8  T
  16   -189.3113426 -0.975842E-06  0.354E-03    0.15       2.9  T
  17   -189.3113434 -0.801520E-06  0.137E-03    0.14       7.4  T
     SCC iter.                  ...        0 min,  0.420 sec
     gradient                   ...        0 min,  0.030 sec
 * total energy  :  -186.7192907 Eh     change       -0.3787922E-02 Eh
   gradient norm :     0.0298308 Eh/α   predicted    -0.3237940E-02 ( -14.52%)
   displ. norm   :     0.6915257 α      lambda       -0.4363052E-02
   maximum displ.:     0.2194474 α      in ANC's #17, #32, #18, ...

........................................................................
.............................. CYCLE    8 ..............................
........................................................................
   1   -189.3162806 -0.189316E+03  0.286E-01    0.15       0.0  T
   2   -189.2784478  0.378328E-01  0.586E-01    0.07       1.0  T
   3   -189.3075881 -0.291402E-01  0.254E-01    0.15       1.0  T
   4   -189.1018726  0.205715E+00  0.863E-01    0.07       1.0  T
   5   -189.3092655 -0.207393E+00  0.239E-01    0.26       1.0  T
   6   -189.2930381  0.162274E-01  0.361E-01    0.11       1.0  T
   7   -189.3121512 -0.191131E-01  0.185E-01    0.21       1.0  T
   8   -189.3141050 -0.195378E-02  0.157E-01    0.20       1.0  T
   9   -189.3146272 -0.522204E-03  0.142E-01    0.19       1.0  T
  10   -189.3157569 -0.112969E-02  0.114E-01    0.17       1.0  T
  11   -189.3167135 -0.956615E-03  0.433E-02    0.14       1.0  T
  12   -189.3166716  0.418535E-04  0.370E-02    0.14       1.0  T
  13   -189.3167767 -0.105131E-03  0.308E-02    0.14       1.0  T
  14   -189.3168330 -0.562416E-04  0.263E-02    0.14       1.0  T
  15   -189.3168536 -0.206357E-04  0.151E-02    0.14       1.0  T
  16   -189.3168673 -0.137266E-04  0.825E-03    0.14       1.2  T
  17   -189.3168722 -0.488465E-05  0.613E-03    0.14       1.6  T
  18   -189.3168763 -0.410528E-05  0.431E-03    0.14       2.3  T
  19   -189.3168803 -0.396681E-05  0.175E-03    0.14       5.8  T
     SCC iter.                  ...        0 min,  0.512 sec
     gradient                   ...        0 min,  0.023 sec
 * total energy  :  -186.7226875 Eh     change       -0.3396867E-02 Eh
   gradient norm :     0.0341377 Eh/α   predicted    -0.3224752E-02 (  -5.07%)
   displ. norm   :     0.6633072 α      lambda       -0.4577362E-02
   maximum displ.:     0.2373373 α      in ANC's #17, #18, #32, ...

........................................................................
.............................. CYCLE    9 ..............................
........................................................................
   1   -189.3390283 -0.189339E+03  0.273E-01    0.16       0.0  T
   2   -189.1547995  0.184229E+00  0.107E+00    0.04       1.0  T
   3   -189.3358626 -0.181063E+00  0.202E-01    0.18       1.0  T
   4   -189.3198017  0.160609E-01  0.312E-01    0.14       1.0  T
   5   -189.3337631 -0.139614E-01  0.180E-01    0.20       1.0  T
   6   -189.3369835 -0.322041E-02  0.152E-01    0.15       1.0  T
   7   -189.3372353 -0.251801E-03  0.127E-01    0.19       1.0  T
   8   -189.3379906 -0.755313E-03  0.110E-01    0.18       1.0  T
   9   -189.3383184 -0.327773E-03  0.993E-02    0.18       1.0  T
  10   -189.3385928 -0.274400E-03  0.889E-02    0.18       1.0  T
  11   -189.3389400 -0.347177E-03  0.730E-02    0.17       1.0  T
  12   -189.3393063 -0.366372E-03  0.555E-02    0.16       1.0  T
  13   -189.3392913  0.150221E-04  0.567E-02    0.16       1.0  T
  14   -189.3396570 -0.365680E-03  0.281E-02    0.15       1.0  T
  15   -189.3397468 -0.897995E-04  0.684E-03    0.15       1.5  T
  16   -189.3397473 -0.495060E-06  0.764E-03    0.15       1.3  T
  17   -189.3397536 -0.627472E-05  0.240E-03    0.15       4.2  T
  18   -189.3397541 -0.581279E-06  0.820E-04    0.14      12.3  T
  19   -189.3397542 -0.714233E-07  0.402E-04    0.14      25.1  T
     SCC iter.                  ...        0 min,  0.691 sec
     gradient                   ...        0 min,  0.027 sec
 * total energy  :  -186.7252502 Eh     change       -0.2562720E-02 Eh
   gradient norm :     0.0375944 Eh/α   predicted    -0.3295651E-02 (  28.60%)
   displ. norm   :     0.6397574 α      lambda       -0.3257345E-02
   maximum displ.:     0.2221468 α      in ANC's #18, #32, #17, ...

........................................................................
.............................. CYCLE   10 ..............................
........................................................................
   1   -189.3225586 -0.189323E+03  0.281E-01    0.15       0.0  T
   2   -189.3204554  0.210321E-02  0.211E-01    0.13       1.0  T
   3   -189.2490860  0.713694E-01  0.561E-01    0.16       1.0  T
   4   -189.3143979 -0.653118E-01  0.244E-01    0.21       1.0  T
   5   -189.1692360  0.145162E+00  0.890E-01    0.05       1.0  T
   6   -189.3204663 -0.151230E+00  0.158E-01    0.14       1.0  T
   7   -189.3193244  0.114191E-02  0.159E-01    0.20       1.0  T
   8   -189.3207519 -0.142749E-02  0.132E-01    0.19       1.0  T
   9   -189.3208424 -0.905099E-04  0.123E-01    0.18       1.0  T
  10   -189.3215178 -0.675360E-03  0.103E-01    0.17       1.0  T
  11   -189.3218046 -0.286804E-03  0.928E-02    0.17       1.0  T
  12   -189.3221090 -0.304463E-03  0.808E-02    0.17       1.0  T
  13   -189.3224077 -0.298643E-03  0.679E-02    0.17       1.0  T
  14   -189.3225418 -0.134134E-03  0.613E-02    0.17       1.0  T
  15   -189.3229832 -0.441355E-03  0.299E-02    0.16       1.0  T
  16   -189.3230993 -0.116163E-03  0.140E-02    0.15       1.0  T
  17   -189.3231224 -0.230968E-04  0.946E-03    0.15       1.1  T
  18   -189.3231358 -0.133367E-04  0.315E-03    0.14       3.2  T
  19   -189.3231358 -0.424317E-07  0.202E-03    0.14       5.0  T
  20   -189.3231359 -0.131763E-06  0.209E-03    0.14       4.8  T
     SCC iter.                  ...        0 min,  0.457 sec
     gradient                   ...        0 min,  0.030 sec
 * total energy  :  -186.7273956 Eh     change       -0.2145313E-02 Eh
   gradient norm :     0.0275066 Eh/α   predicted    -0.2295279E-02 (   6.99%)
   displ. norm   :     0.5143939 α      lambda       -0.2973052E-02
   maximum displ.:     0.1868201 α      in ANC's #18, #42, #15, ...

........................................................................
.............................. CYCLE   11 ..............................
........................................................................
   1   -189.3346649 -0.189335E+03  0.251E-01    0.16       0.0  T
   2   -189.3010558  0.336091E-01  0.453E-01    0.07       1.0  T
   3   -189.3225242 -0.214683E-01  0.267E-01    0.15       1.0  T
   4   -189.3332429 -0.107187E-01  0.177E-01    0.15       1.0  T
   5   -189.3313448  0.189809E-02  0.156E-01    0.21       1.0  T
   6   -189.3338034 -0.245864E-02  0.114E-01    0.18       1.0  T
   7   -189.3337425  0.609144E-04  0.108E-01    0.19       1.0  T
   8   -189.3337645 -0.220465E-04  0.926E-02    0.18       1.0  T
   9   -189.3351101 -0.134559E-02  0.484E-02    0.16       1.0  T
  10   -189.3351051  0.502283E-05  0.374E-02    0.16       1.0  T
  11   -189.3353030 -0.197864E-03  0.176E-02    0.15       1.0  T
  12   -189.3353262 -0.232566E-04  0.554E-03    0.15       1.8  T
  13   -189.3353217  0.450887E-05  0.720E-03    0.14       1.4  T
  14   -189.3353269 -0.520547E-05  0.297E-03    0.14       3.4  T
  15   -189.3353276 -0.728288E-06  0.212E-03    0.15       4.8  T
     SCC iter.                  ...        0 min,  0.363 sec
     gradient                   ...        0 min,  0.032 sec
 * total energy  :  -186.7276070 Eh     change       -0.2114521E-03 Eh
   gradient norm :     0.0573612 Eh/α   predicted    -0.1879876E-02 ( 789.03%)
   displ. norm   :     0.3292400 α      lambda       -0.3787564E-02
   maximum displ.:     0.1126859 α      in ANC's #18, #32, #33, ...

........................................................................
.............................. CYCLE   12 ..............................
........................................................................
   1   -189.3336020 -0.189334E+03  0.146E-01    0.15       0.0  T
   2   -189.3329301  0.671881E-03  0.123E-01    0.13       1.0  T
   3   -189.3293020  0.362806E-02  0.170E-01    0.21       1.0  T
   4   -189.3105397  0.187623E-01  0.303E-01    0.08       1.0  T
   5   -189.3306263 -0.200866E-01  0.129E-01    0.18       1.0  T
   6   -189.3330370 -0.241067E-02  0.732E-02    0.17       1.0  T
   7   -189.3327022  0.334783E-03  0.761E-02    0.18       1.0  T
   8   -189.3333165 -0.614367E-03  0.533E-02    0.17       1.0  T
   9   -189.3337313 -0.414771E-03  0.176E-02    0.15       1.0  T
  10   -189.3337955 -0.641771E-04  0.420E-03    0.15       2.4  T
  11   -189.3337962 -0.669359E-06  0.328E-03    0.15       3.1  T
  12   -189.3337963 -0.177465E-06  0.172E-03    0.15       5.9  T
     SCC iter.                  ...        0 min,  0.274 sec
     gradient                   ...        0 min,  0.031 sec
 * total energy  :  -186.7298408 Eh     change       -0.2233768E-02 Eh
   gradient norm :     0.0277646 Eh/α   predicted    -0.2099082E-02 (  -6.03%)
   displ. norm   :     0.4391742 α      lambda       -0.2427828E-02
   maximum displ.:     0.1578430 α      in ANC's #18, #17, #6, ...

........................................................................
.............................. CYCLE   13 ..............................
........................................................................
   1   -189.3304390 -0.189330E+03  0.211E-01    0.14       0.0  T
   2   -189.3289220  0.151699E-02  0.162E-01    0.15       1.0  T
   3   -189.2802019  0.487202E-01  0.458E-01    0.08       1.0  T
   4   -189.3229240 -0.427222E-01  0.220E-01    0.28       1.0  T
   5   -189.3277100 -0.478602E-02  0.193E-01    0.12       1.0  T
   6   -189.3294261 -0.171610E-02  0.952E-02    0.18       1.0  T
   7   -189.3306017 -0.117554E-02  0.487E-02    0.15       1.0  T
   8   -189.3305099  0.917499E-04  0.476E-02    0.16       1.0  T
   9   -189.3307421 -0.232168E-03  0.242E-02    0.14       1.0  T
  10   -189.3308291 -0.870404E-04  0.207E-02    0.15       1.0  T
  11   -189.3308979 -0.687252E-04  0.722E-03    0.15       1.4  T
  12   -189.3309013 -0.347123E-05  0.327E-03    0.14       3.1  T
  13   -189.3309018 -0.456175E-06  0.154E-03    0.14       6.6  T
     SCC iter.                  ...        0 min,  0.446 sec
     gradient                   ...        0 min,  0.030 sec
 * total energy  :  -186.7298051 Eh     change        0.3562719E-04 Eh
   gradient norm :     0.0539408 Eh/α   predicted    -0.1448049E-02 (*******%)
   displ. norm   :     0.3450307 α      lambda       -0.3360363E-02
   maximum displ.:     0.1347189 α      in ANC's #33, #18, #17, ...

........................................................................
.............................. CYCLE   14 ..............................
........................................................................
   1   -189.3259317 -0.189326E+03  0.185E-01    0.15       0.0  T
   2   -189.3200664  0.586527E-02  0.194E-01    0.10       1.0  T
   3   -189.3144000  0.566642E-02  0.241E-01    0.18       1.0  T
   4   -189.3246535 -0.102535E-01  0.126E-01    0.19       1.0  T
   5   -189.3251050 -0.451433E-03  0.916E-02    0.16       1.0  T
   6   -189.3254245 -0.319575E-03  0.806E-02    0.14       1.0  T
   7   -189.3261923 -0.767762E-03  0.570E-02    0.13       1.0  T
   8   -189.3265367 -0.344420E-03  0.206E-02    0.14       1.0  T
   9   -189.3264390  0.977234E-04  0.259E-02    0.16       1.0  T
  10   -189.3265786 -0.139608E-03  0.474E-03    0.15       2.1  T
  11   -189.3265780  0.543640E-06  0.464E-03    0.15       2.2  T
  12   -189.3265800 -0.199417E-05  0.187E-03    0.14       5.4  T
     SCC iter.                  ...        0 min,  0.250 sec
     gradient                   ...        0 min,  0.022 sec
 * total energy  :  -186.7312427 Eh     change       -0.1437534E-02 Eh
   gradient norm :     0.0368670 Eh/α   predicted    -0.1880204E-02 (  30.79%)
   displ. norm   :     0.3238571 α      lambda       -0.3507538E-02
   maximum displ.:     0.1378829 α      in ANC's #42, #43, #18, ...

........................................................................
.............................. CYCLE   15 ..............................
........................................................................
   1   -189.3451094 -0.189345E+03  0.197E-01    0.15       0.0  T
   2   -189.3425964  0.251297E-02  0.161E-01    0.11       1.0  T
   3   -189.3327181  0.987836E-02  0.253E-01    0.18       1.0  T
   4   -189.3444704 -0.117524E-01  0.111E-01    0.18       1.0  T
   5   -189.3443651  0.105331E-03  0.832E-02    0.15       1.0  T
   6   -189.3444357 -0.706487E-04  0.823E-02    0.16       1.0  T
   7   -189.3453283 -0.892585E-03  0.374E-02    0.13       1.0  T
   8   -189.3455126 -0.184241E-03  0.320E-02    0.15       1.0  T
   9   -189.3455283 -0.157373E-04  0.240E-02    0.15       1.0  T
  10   -189.3456285 -0.100248E-03  0.629E-03    0.15       1.6  T
  11   -189.3456308 -0.229797E-05  0.359E-03    0.15       2.8  T
  12   -189.3456303  0.531829E-06  0.411E-03    0.14       2.5  T
     SCC iter.                  ...        0 min,  0.256 sec
     gradient                   ...        0 min,  0.030 sec
 * total energy  :  -186.7305794 Eh     change        0.6633190E-03 Eh
   gradient norm :     0.0707787 Eh/α   predicted    -0.1937713E-02 (-392.12%)
   displ. norm   :     0.2325626 α      lambda       -0.4044562E-02
   maximum displ.:     0.0694998 α      in ANC's #18, #20, #23, ...

........................................................................
.............................. CYCLE   16 ..............................
........................................................................
   1   -189.3352870 -0.189335E+03  0.127E-01    0.14       0.0  T
   2   -189.3332811  0.200585E-02  0.127E-01    0.17       1.0  T
   3   -189.2626114  0.706697E-01  0.526E-01    0.05       1.0  T
   4   -189.3277820 -0.651706E-01  0.192E-01    0.21       1.0  T
   5   -189.3327692 -0.498727E-02  0.123E-01    0.17       1.0  T
   6   -189.3344081 -0.163889E-02  0.755E-02    0.17       1.0  T
   7   -189.3347356 -0.327490E-03  0.594E-02    0.17       1.0  T
   8   -189.3349868 -0.251225E-03  0.471E-02    0.17       1.0  T
   9   -189.3353953 -0.408468E-03  0.250E-02    0.15       1.0  T
  10   -189.3355253 -0.130015E-03  0.106E-02    0.15       1.0  T
  11   -189.3355354 -0.100743E-04  0.848E-03    0.14       1.2  T
  12   -189.3355386 -0.318862E-05  0.331E-03    0.14       3.1  T
  13   -189.3355397 -0.107255E-05  0.242E-03    0.14       4.2  T
     SCC iter.                  ...        0 min,  0.306 sec
     gradient                   ...        0 min,  0.030 sec
 * total energy  :  -186.7327892 Eh     change       -0.2209845E-02 Eh
   gradient norm :     0.0231541 Eh/α   predicted    -0.2131660E-02 (  -3.54%)
   displ. norm   :     0.4633290 α      lambda       -0.2622298E-02
   maximum displ.:     0.1613084 α      in ANC's #33, #6, #20, ...

........................................................................
.............................. CYCLE   17 ..............................
........................................................................
   1   -189.3282094 -0.189328E+03  0.222E-01    0.15       0.0  T
   2   -189.3211921  0.701727E-02  0.211E-01    0.10       1.0  T
   3   -189.3076757  0.135164E-01  0.338E-01    0.13       1.0  T
   4   -189.3206982 -0.130224E-01  0.230E-01    0.29       1.0  T
   5   -189.3242677 -0.356950E-02  0.145E-01    0.19       1.0  T
   6   -189.3257021 -0.143447E-02  0.120E-01    0.17       1.0  T
   7   -189.3281901 -0.248791E-02  0.651E-02    0.16       1.0  T
   8   -189.3286636 -0.473575E-03  0.280E-02    0.14       1.0  T
   9   -189.3286594  0.418658E-05  0.170E-02    0.14       1.0  T
  10   -189.3287082 -0.487145E-04  0.114E-02    0.15       1.0  T
  11   -189.3287264 -0.182131E-04  0.538E-03    0.14       1.9  T
  12   -189.3287275 -0.116663E-05  0.327E-03    0.14       3.1  T
  13   -189.3287280 -0.477509E-06  0.310E-03    0.14       3.3  T
     SCC iter.                  ...        0 min,  0.312 sec
     gradient                   ...        0 min,  0.029 sec
 * total energy  :  -186.7306963 Eh     change        0.2092878E-02 Eh
   gradient norm :     0.0714174 Eh/α   predicted    -0.1592625E-02 (-176.10%)
   displ. norm   :     0.2288749 α      lambda       -0.6104419E-02
   maximum displ.:     0.0856811 α      in ANC's #39, #24, #18, ...

........................................................................
.............................. CYCLE   18 ..............................
........................................................................
   1   -189.3311703 -0.189331E+03  0.141E-01    0.14       0.0  T
   2   -189.3293546  0.181571E-02  0.123E-01    0.17       1.0  T
   3   -189.1935290  0.135826E+00  0.709E-01    0.05       1.0  T
   4   -189.3232250 -0.129696E+00  0.197E-01    0.20       1.0  T
   5   -189.3298135 -0.658846E-02  0.106E-01    0.15       1.0  T
   6   -189.3309445 -0.113098E-02  0.771E-02    0.16       1.0  T
   7   -189.3312668 -0.322297E-03  0.488E-02    0.16       1.0  T
   8   -189.3312517  0.150282E-04  0.391E-02    0.16       1.0  T
   9   -189.3313541 -0.102337E-03  0.337E-02    0.16       1.0  T
  10   -189.3315232 -0.169135E-03  0.189E-02    0.15       1.0  T
  11   -189.3315911 -0.678629E-04  0.110E-02    0.15       1.0  T
  12   -189.3316036 -0.125683E-04  0.872E-03    0.15       1.2  T
  13   -189.3316157 -0.121157E-04  0.403E-03    0.14       2.5  T
  14   -189.3316148  0.964885E-06  0.272E-03    0.14       3.7  T
  15   -189.3316165 -0.173757E-05  0.773E-04    0.14      13.1  T
     SCC iter.                  ...        0 min,  0.520 sec
     gradient                   ...        0 min,  0.029 sec
 * total energy  :  -186.7340248 Eh     change       -0.3328448E-02 Eh
   gradient norm :     0.0166824 Eh/α   predicted    -0.3212103E-02 (  -3.50%)
   displ. norm   :     0.3885815 α      lambda       -0.1558142E-02
   maximum displ.:     0.1177819 α      in ANC's #42, #18, #6, ...

........................................................................
.............................. CYCLE   19 ..............................
........................................................................
   1   -189.3367539 -0.189337E+03  0.183E-01    0.14       0.0  T
   2   -189.3362259  0.527958E-03  0.128E-01    0.16       1.0  T
   3   -189.1858186  0.150407E+00  0.120E+00    0.03       1.0  T
   4   -189.3353620 -0.149543E+00  0.137E-01    0.17       1.0  T
   5   -189.3359074 -0.545346E-03  0.833E-02    0.13       1.0  T
   6   -189.3343655  0.154184E-02  0.114E-01    0.19       1.0  T
   7   -189.3362481 -0.188260E-02  0.731E-02    0.17       1.0  T
   8   -189.3368562 -0.608105E-03  0.426E-02    0.15       1.0  T
   9   -189.3366668  0.189374E-03  0.508E-02    0.16       1.0  T
  10   -189.3368575 -0.190684E-03  0.365E-02    0.15       1.0  T
  11   -189.3368061  0.514040E-04  0.392E-02    0.15       1.0  T
  12   -189.3368312 -0.250849E-04  0.341E-02    0.15       1.0  T
  13   -189.3368571 -0.259381E-04  0.293E-02    0.15       1.0  T
  14   -189.3368864 -0.292457E-04  0.241E-02    0.15       1.0  T
  15   -189.3369038 -0.173771E-04  0.191E-02    0.15       1.0  T
  16   -189.3369199 -0.160907E-04  0.120E-02    0.15       1.0  T
  17   -189.3369263 -0.640168E-05  0.755E-03    0.14       1.3  T
  18   -189.3369298 -0.355340E-05  0.333E-03    0.14       3.0  T
  19   -189.3369306 -0.793240E-06  0.139E-03    0.14       7.3  T
  20   -189.3369308 -0.150458E-06  0.395E-04    0.14      25.6  T
     SCC iter.                  ...        0 min,  0.459 sec
     gradient                   ...        0 min,  0.031 sec
 * total energy  :  -186.7341097 Eh     change       -0.8492909E-04 Eh
   gradient norm :     0.0400421 Eh/α   predicted    -0.8967090E-03 ( 955.83%)
   displ. norm   :     0.3695537 α      lambda       -0.2404779E-02
   maximum displ.:     0.1277611 α      in ANC's #20, #6, #18, ...

........................................................................
.............................. CYCLE   20 ..............................
........................................................................
   1   -189.3358285 -0.189336E+03  0.172E-01    0.15       0.0  T
   2   -189.3301924  0.563611E-02  0.257E-01    0.10       1.0  T
   3   -189.3317340 -0.154156E-02  0.164E-01    0.19       1.0  T
   4   -189.1325203  0.199214E+00  0.826E-01    0.06       1.0  T
   5   -189.3319419 -0.199422E+00  0.157E-01    0.19       1.0  T
   6   -189.3338826 -0.194068E-02  0.115E-01    0.19       1.0  T
   7   -189.3345471 -0.664479E-03  0.982E-02    0.18       1.0  T
   8   -189.3350134 -0.466312E-03  0.837E-02    0.17       1.0  T
   9   -189.3355809 -0.567543E-03  0.564E-02    0.16       1.0  T
  10   -189.3359396 -0.358724E-03  0.972E-03    0.14       1.0  T
  11   -189.3359290  0.106666E-04  0.920E-03    0.14       1.1  T
  12   -189.3359421 -0.131628E-04  0.584E-03    0.14       1.7  T
  13   -189.3359493 -0.712227E-05  0.285E-03    0.14       3.5  T
  14   -189.3359503 -0.109296E-05  0.198E-03    0.14       5.1  T
  15   -189.3359504 -0.889478E-07  0.158E-03    0.14       6.4  T
     SCC iter.                  ...        0 min,  0.350 sec
     gradient                   ...        0 min,  0.026 sec
 * total energy  :  -186.7355814 Eh     change       -0.1471718E-02 Eh
   gradient norm :     0.0267145 Eh/α   predicted    -0.1366604E-02 (  -7.14%)
   displ. norm   :     0.4762192 α      lambda       -0.2560300E-02
   maximum displ.:     0.2062497 α      in ANC's #20, #6, #42, ...
 * RMSD in coord.:     0.7328452 α      energy gain  -0.1008929E+00 Eh

generating ANC from model Hessian ...
Using Lindh-Hessian (1995)
 Shifting diagonal of input Hessian by   4.980259747383996E-003
 Lowest  eigenvalues of input Hessian
   -0.000000   -0.000000   -0.000000    0.000000    0.000000    0.000000
    0.005000    0.005001    0.005026    0.005060    0.005096    0.005177
    0.005278    0.005302    0.005422    0.005519    0.005715    0.005960
 Highest eigenvalues
    2.152224    2.215837    2.228013    2.238072    2.318721    2.429122
 

........................................................................
.............................. CYCLE   21 ..............................
........................................................................
   1   -189.3409164 -0.189341E+03  0.226E-01    0.14       0.0  T
   2   -189.3399216  0.994829E-03  0.151E-01    0.17       1.0  T
   3   -188.8883335  0.451588E+00  0.141E+00    0.09       1.0  T
   4   -189.3238886 -0.435555E+00  0.281E-01    0.18       1.0  T
   5   -189.3366799 -0.127914E-01  0.165E-01    0.15       1.0  T
   6   -189.3407980 -0.411808E-02  0.758E-02    0.14       1.0  T
   7   -189.3410096 -0.211587E-03  0.530E-02    0.15       1.0  T
   8   -189.3406591  0.350532E-03  0.599E-02    0.17       1.0  T
   9   -189.3408835 -0.224460E-03  0.545E-02    0.17       1.0  T
  10   -189.3408158  0.677777E-04  0.514E-02    0.17       1.0  T
  11   -189.3411095 -0.293755E-03  0.346E-02    0.16       1.0  T
  12   -189.3412359 -0.126402E-03  0.253E-02    0.15       1.0  T
  13   -189.3412642 -0.282579E-04  0.226E-02    0.15       1.0  T
  14   -189.3413614 -0.972689E-04  0.937E-03    0.15       1.1  T
  15   -189.3413806 -0.191717E-04  0.275E-03    0.14       3.7  T
  16   -189.3413805  0.100014E-06  0.267E-03    0.14       3.8  T
  17   -189.3413818 -0.123510E-05  0.958E-04    0.14      10.5  T
  18   -189.3413819 -0.176975E-06  0.360E-04    0.14      28.1  T
  19   -189.3413820 -0.236699E-07  0.157E-04    0.14      64.4  T
     SCC iter.                  ...        0 min,  0.580 sec
     gradient                   ...        0 min,  0.033 sec
 * total energy  :  -186.7357149 Eh     change       -0.1334877E-03 Eh
   gradient norm :     0.0537764 Eh/α   predicted     0.0000000E+00 (-100.00%)
   displ. norm   :     0.2422342 α      lambda       -0.3176144E-02
   maximum displ.:     0.1233600 α      in ANC's #19, #15, #6, ...

........................................................................
.............................. CYCLE   22 ..............................
........................................................................
   1   -189.3426342 -0.189343E+03  0.126E-01    0.14       0.0  T
   2   -189.3425136  0.120524E-03  0.776E-02    0.14       1.0  T
   3   -189.3363275  0.618618E-02  0.175E-01    0.19       1.0  T
   4   -189.3402271 -0.389963E-02  0.125E-01    0.11       1.0  T
   5   -189.3411072 -0.880131E-03  0.937E-02    0.18       1.0  T
   6   -189.3424307 -0.132343E-02  0.405E-02    0.13       1.0  T
   7   -189.3427400 -0.309337E-03  0.204E-02    0.15       1.0  T
   8   -189.3427018  0.381881E-04  0.192E-02    0.15       1.0  T
   9   -189.3427712 -0.693680E-04  0.832E-03    0.14       1.2  T
  10   -189.3427755 -0.432004E-05  0.354E-03    0.14       2.9  T
  11   -189.3427773 -0.175885E-05  0.114E-03    0.14       8.9  T
     SCC iter.                  ...        0 min,  0.438 sec
     gradient                   ...        0 min,  0.033 sec
 * total energy  :  -186.7376513 Eh     change       -0.1936394E-02 Eh
   gradient norm :     0.0116195 Eh/α   predicted    -0.1681258E-02 ( -13.18%)
   displ. norm   :     0.3055272 α      lambda       -0.1221939E-02
   maximum displ.:     0.2052553 α      in ANC's #19, #42, #15, ...

........................................................................
.............................. CYCLE   23 ..............................
........................................................................
   1   -189.3435752 -0.189344E+03  0.128E-01    0.14       0.0  T
   2   -189.3434173  0.157830E-03  0.744E-02    0.13       1.0  T
   3   -189.3358782  0.753913E-02  0.194E-01    0.24       1.0  T
   4   -189.3433289 -0.745072E-02  0.663E-02    0.13       1.0  T
   5   -189.3433186  0.102703E-04  0.468E-02    0.16       1.0  T
   6   -189.3431872  0.131432E-03  0.496E-02    0.13       1.0  T
   7   -189.3436106 -0.423406E-03  0.152E-02    0.14       1.0  T
   8   -189.3435959  0.147577E-04  0.129E-02    0.15       1.0  T
   9   -189.3436234 -0.275227E-04  0.692E-03    0.14       1.5  T
  10   -189.3436330 -0.966246E-05  0.348E-03    0.14       2.9  T
  11   -189.3436344 -0.140562E-05  0.155E-03    0.14       6.5  T
  12   -189.3436346 -0.189890E-06  0.826E-04    0.14      12.2  T
     SCC iter.                  ...        0 min,  0.213 sec
     gradient                   ...        0 min,  0.019 sec
 * total energy  :  -186.7385569 Eh     change       -0.9055828E-03 Eh
   gradient norm :     0.0150229 Eh/α   predicted    -0.6680023E-03 ( -26.24%)
   displ. norm   :     0.4996709 α      lambda       -0.1474910E-02
   maximum displ.:     0.2998376 α      in ANC's #19, #42, #15, ...

........................................................................
.............................. CYCLE   24 ..............................
........................................................................
   1   -189.3405792 -0.189341E+03  0.222E-01    0.15       0.0  T
   2   -189.3393278  0.125146E-02  0.139E-01    0.12       1.0  T
   3   -189.3246242  0.147036E-01  0.281E-01    0.19       1.0  T
   4   -189.3368524 -0.122282E-01  0.150E-01    0.23       1.0  T
   5   -189.3385656 -0.171315E-02  0.100E-01    0.17       1.0  T
   6   -189.3402609 -0.169532E-02  0.494E-02    0.16       1.0  T
   7   -189.3405260 -0.265108E-03  0.360E-02    0.14       1.0  T
   8   -189.3406279 -0.101909E-03  0.189E-02    0.15       1.0  T
   9   -189.3406653 -0.373955E-04  0.705E-03    0.14       1.4  T
  10   -189.3406720 -0.675175E-05  0.407E-03    0.14       2.5  T
  11   -189.3406717  0.368073E-06  0.341E-03    0.14       3.0  T
  12   -189.3406744 -0.267927E-05  0.101E-03    0.14      10.0  T
  13   -189.3406744 -0.691070E-07  0.568E-04    0.14      17.8  T
     SCC iter.                  ...        0 min,  0.189 sec
     gradient                   ...        0 min,  0.020 sec
 * total energy  :  -186.7397941 Eh     change       -0.1237230E-02 Eh
   gradient norm :     0.0275927 Eh/α   predicted    -0.9215759E-03 ( -25.51%)
   displ. norm   :     0.6463842 α      lambda       -0.1988565E-02
   maximum displ.:     0.3784981 α      in ANC's #19, #42, #15, ...

........................................................................
.............................. CYCLE   25 ..............................
........................................................................
   1   -189.3356292 -0.189336E+03  0.303E-01    0.15       0.0  T
   2   -189.3327137  0.291541E-02  0.194E-01    0.11       1.0  T
   3   -189.3119498  0.207639E-01  0.353E-01    0.14       1.0  T
   4   -189.3292452 -0.172954E-01  0.214E-01    0.29       1.0  T
   5   -189.3315687 -0.232347E-02  0.146E-01    0.22       1.0  T
   6   -189.3343162 -0.274750E-02  0.885E-02    0.19       1.0  T
   7   -189.3352528 -0.936615E-03  0.592E-02    0.16       1.0  T
   8   -189.3355731 -0.320355E-03  0.321E-02    0.14       1.0  T
   9   -189.3357205 -0.147344E-03  0.228E-02    0.14       1.0  T
  10   -189.3357572 -0.366733E-04  0.164E-02    0.14       1.0  T
  11   -189.3357988 -0.416883E-04  0.553E-03    0.15       1.8  T
  12   -189.3358004 -0.159443E-05  0.298E-03    0.15       3.4  T
  13   -189.3357994  0.100073E-05  0.288E-03    0.14       3.5  T
     SCC iter.                  ...        0 min,  0.185 sec
     gradient                   ...        0 min,  0.019 sec
 * total energy  :  -186.7413777 Eh     change       -0.1583611E-02 Eh
   gradient norm :     0.0300417 Eh/α   predicted    -0.1409728E-02 ( -10.98%)
   displ. norm   :     0.5625681 α      lambda       -0.2404838E-02
   maximum displ.:     0.2703562 α      in ANC's #19, #42, #15, ...

........................................................................
.............................. CYCLE   26 ..............................
........................................................................
   1   -189.3396998 -0.189340E+03  0.280E-01    0.15       0.0  T
   2   -189.3382709  0.142890E-02  0.167E-01    0.12       1.0  T
   3   -189.3235946  0.146763E-01  0.288E-01    0.17       1.0  T
   4   -189.3363304 -0.127358E-01  0.161E-01    0.23       1.0  T
   5   -189.3373678 -0.103740E-02  0.113E-01    0.18       1.0  T
   6   -189.3392744 -0.190660E-02  0.631E-02    0.17       1.0  T
   7   -189.3398152 -0.540818E-03  0.287E-02    0.15       1.0  T
   8   -189.3398115  0.366056E-05  0.257E-02    0.15       1.0  T
   9   -189.3398529 -0.413121E-04  0.954E-03    0.15       1.1  T
  10   -189.3398647 -0.118026E-04  0.564E-03    0.15       1.8  T
  11   -189.3398518  0.128127E-04  0.815E-03    0.14       1.2  T
  12   -189.3398664 -0.145962E-04  0.127E-03    0.15       7.9  T
  13   -189.3398664 -0.837647E-08  0.108E-03    0.15       9.4  T
  14   -189.3398664  0.404472E-07  0.105E-03    0.15       9.6  T
     SCC iter.                  ...        0 min,  0.200 sec
     gradient                   ...        0 min,  0.019 sec
 * total energy  :  -186.7431368 Eh     change       -0.1759102E-02 Eh
   gradient norm :     0.0217449 Eh/α   predicted    -0.1582991E-02 ( -10.01%)
   displ. norm   :     0.6163526 α      lambda       -0.2199266E-02
   maximum displ.:     0.3263179 α      in ANC's #19, #15, #42, ...

........................................................................
.............................. CYCLE   27 ..............................
........................................................................
   1   -189.3425663 -0.189343E+03  0.245E-01    0.16       0.0  T
   2   -189.3407844  0.178182E-02  0.161E-01    0.12       1.0  T
   3   -189.3250570  0.157275E-01  0.304E-01    0.14       1.0  T
   4   -189.3384063 -0.133493E-01  0.184E-01    0.25       1.0  T
   5   -189.3409273 -0.252100E-02  0.103E-01    0.20       1.0  T
   6   -189.3418738 -0.946492E-03  0.680E-02    0.17       1.0  T
   7   -189.3424973 -0.623509E-03  0.462E-02    0.16       1.0  T
   8   -189.3426780 -0.180765E-03  0.186E-02    0.15       1.0  T
   9   -189.3426814 -0.335446E-05  0.157E-02    0.14       1.0  T
  10   -189.3427154 -0.340273E-04  0.504E-03    0.15       2.0  T
  11   -189.3427143  0.110925E-05  0.482E-03    0.15       2.1  T
  12   -189.3427174 -0.305588E-05  0.182E-03    0.15       5.5  T
     SCC iter.                  ...        0 min,  0.173 sec
     gradient                   ...        0 min,  0.019 sec
 * total energy  :  -186.7446252 Eh     change       -0.1488330E-02 Eh
   gradient norm :     0.0235141 Eh/α   predicted    -0.1517373E-02 (   1.95%)
   displ. norm   :     0.5594767 α      lambda       -0.2098325E-02
   maximum displ.:     0.2932613 α      in ANC's #19, #15, #6, ...

........................................................................
.............................. CYCLE   28 ..............................
........................................................................
   1   -189.3490350 -0.189349E+03  0.214E-01    0.16       0.0  T
   2   -189.3471213  0.191365E-02  0.155E-01    0.12       1.0  T
   3   -189.3302458  0.168755E-01  0.325E-01    0.12       1.0  T
   4   -189.3440825 -0.138367E-01  0.196E-01    0.26       1.0  T
   5   -189.3443048 -0.222306E-03  0.159E-01    0.18       1.0  T
   6   -189.3471526 -0.284779E-02  0.106E-01    0.19       1.0  T
   7   -189.3487787 -0.162609E-02  0.577E-02    0.17       1.0  T
   8   -189.3490323 -0.253610E-03  0.336E-02    0.16       1.0  T
   9   -189.3491431 -0.110779E-03  0.907E-03    0.15       1.1  T
  10   -189.3491512 -0.809931E-05  0.829E-03    0.15       1.2  T
  11   -189.3491408  0.104226E-04  0.110E-02    0.15       1.0  T
  12   -189.3491501 -0.931260E-05  0.592E-03    0.15       1.7  T
  13   -189.3491545 -0.438270E-05  0.256E-03    0.15       4.0  T
  14   -189.3491556 -0.113414E-05  0.170E-03    0.15       5.9  T
     SCC iter.                  ...        0 min,  0.204 sec
     gradient                   ...        0 min,  0.019 sec
 * total energy  :  -186.7461613 Eh     change       -0.1536190E-02 Eh
   gradient norm :     0.0169460 Eh/α   predicted    -0.1377565E-02 ( -10.33%)
   displ. norm   :     0.7006145 α      lambda       -0.1601549E-02
   maximum displ.:     0.3477884 α      in ANC's #19, #6, #15, ...

........................................................................
.............................. CYCLE   29 ..............................
........................................................................
   1   -189.3420453 -0.189342E+03  0.292E-01    0.16       0.0  T
   2   -189.3407026  0.134277E-02  0.175E-01    0.12       1.0  T
   3   -189.3200775  0.206251E-01  0.359E-01    0.12       1.0  T
   4   -189.3366968 -0.166194E-01  0.205E-01    0.27       1.0  T
   5   -189.3380016 -0.130474E-02  0.148E-01    0.18       1.0  T
   6   -189.3405307 -0.252916E-02  0.963E-02    0.19       1.0  T
   7   -189.3421569 -0.162616E-02  0.369E-02    0.16       1.0  T
   8   -189.3420522  0.104709E-03  0.344E-02    0.16       1.0  T
   9   -189.3421915 -0.139300E-03  0.152E-02    0.15       1.0  T
  10   -189.3422256 -0.340924E-04  0.629E-03    0.15       1.6  T
  11   -189.3422269 -0.135876E-05  0.652E-03    0.15       1.5  T
  12   -189.3422227  0.425189E-05  0.643E-03    0.15       1.6  T
  13   -189.3422296 -0.693820E-05  0.163E-03    0.15       6.2  T
  14   -189.3422296  0.421566E-07  0.217E-03    0.15       4.6  T
  15   -189.3422297 -0.129625E-06  0.169E-03    0.15       6.0  T
     SCC iter.                  ...        0 min,  0.216 sec
     gradient                   ...        0 min,  0.019 sec
 * total energy  :  -186.7473217 Eh     change       -0.1160333E-02 Eh
   gradient norm :     0.0187372 Eh/α   predicted    -0.1193847E-02 (   2.89%)
   displ. norm   :     0.5491733 α      lambda       -0.2083842E-02
   maximum displ.:     0.2210853 α      in ANC's #6, #7, #15, ...

........................................................................
.............................. CYCLE   30 ..............................
........................................................................
   1   -189.3670989 -0.189367E+03  0.202E-01    0.15       0.0  T
   2   -189.3667323  0.366670E-03  0.120E-01    0.16       1.0  T
   3   -189.2755740  0.911583E-01  0.579E-01    0.05       1.0  T
   4   -189.3626601 -0.870861E-01  0.160E-01    0.23       1.0  T
   5   -189.3651307 -0.247053E-02  0.126E-01    0.15       1.0  T
   6   -189.3665883 -0.145765E-02  0.612E-02    0.18       1.0  T
   7   -189.3669010 -0.312636E-03  0.384E-02    0.17       1.0  T
   8   -189.3671485 -0.247518E-03  0.230E-02    0.16       1.0  T
   9   -189.3672378 -0.893294E-04  0.907E-03    0.15       1.1  T
  10   -189.3672456 -0.781351E-05  0.538E-03    0.15       1.9  T
  11   -189.3672434  0.222887E-05  0.550E-03    0.15       1.8  T
  12   -189.3672472 -0.381084E-05  0.149E-03    0.15       6.8  T
  13   -189.3672475 -0.335989E-06  0.924E-04    0.15      10.9  T
  14   -189.3672476 -0.302882E-07  0.719E-04    0.15      14.0  T
     SCC iter.                  ...        0 min,  0.202 sec
     gradient                   ...        0 min,  0.019 sec
 * total energy  :  -186.7470787 Eh     change        0.2429657E-03 Eh
   gradient norm :     0.0405875 Eh/α   predicted    -0.1356155E-02 (-658.17%)
   displ. norm   :     0.3454731 α      lambda       -0.3044664E-02
   maximum displ.:     0.2095352 α      in ANC's #19, #15, #6, ...

........................................................................
.............................. CYCLE   31 ..............................
........................................................................
   1   -189.3541475 -0.189354E+03  0.136E-01    0.16       0.0  T
   2   -189.3535781  0.569334E-03  0.924E-02    0.13       1.0  T
   3   -189.3461029  0.747519E-02  0.196E-01    0.17       1.0  T
   4   -189.3537038 -0.760088E-02  0.770E-02    0.17       1.0  T
   5   -189.3538268 -0.122953E-03  0.462E-02    0.17       1.0  T
   6   -189.3538505 -0.237633E-04  0.451E-02    0.16       1.0  T
   7   -189.3541639 -0.313409E-03  0.165E-02    0.16       1.0  T
   8   -189.3541047  0.592881E-04  0.201E-02    0.14       1.0  T
   9   -189.3541984 -0.936995E-04  0.361E-03    0.15       2.8  T
  10   -189.3541965  0.190000E-05  0.514E-03    0.15       2.0  T
  11   -189.3541992 -0.274352E-05  0.257E-03    0.15       3.9  T
     SCC iter.                  ...        0 min,  0.164 sec
     gradient                   ...        0 min,  0.019 sec
 * total energy  :  -186.7486698 Eh     change       -0.1591050E-02 Eh
   gradient norm :     0.0174998 Eh/α   predicted    -0.1704025E-02 (   7.10%)
   displ. norm   :     0.4413192 α      lambda       -0.1068871E-02
   maximum displ.:     0.1682725 α      in ANC's #19, #6, #15, ...

........................................................................
.............................. CYCLE   32 ..............................
........................................................................
   1   -189.3404126 -0.189340E+03  0.184E-01    0.16       0.0  T
   2   -189.3402750  0.137562E-03  0.105E-01    0.14       1.0  T
   3   -189.3341856  0.608938E-02  0.177E-01    0.22       1.0  T
   4   -189.3388263 -0.464072E-02  0.870E-02    0.13       1.0  T
   5   -189.3392420 -0.415636E-03  0.787E-02    0.17       1.0  T
   6   -189.3401810 -0.939051E-03  0.441E-02    0.17       1.0  T
   7   -189.3404720 -0.290918E-03  0.223E-02    0.15       1.0  T
   8   -189.3405409 -0.689298E-04  0.959E-03    0.15       1.1  T
   9   -189.3405495 -0.861789E-05  0.624E-03    0.16       1.6  T
  10   -189.3405567 -0.724682E-05  0.157E-03    0.15       6.4  T
  11   -189.3405567  0.649288E-08  0.117E-03    0.15       8.6  T
  12   -189.3405568 -0.996326E-07  0.822E-04    0.15      12.3  T
     SCC iter.                  ...        0 min,  0.176 sec
     gradient                   ...        0 min,  0.019 sec
 * total energy  :  -186.7490319 Eh     change       -0.3621218E-03 Eh
   gradient norm :     0.0248917 Eh/α   predicted    -0.6385250E-03 (  76.33%)
   displ. norm   :     0.3477446 α      lambda       -0.9743283E-03
   maximum displ.:     0.1556819 α      in ANC's #6, #7, #19, ...

........................................................................
.............................. CYCLE   33 ..............................
........................................................................
   1   -189.3461159 -0.189346E+03  0.118E-01    0.15       0.0  T
   2   -189.3461053  0.105809E-04  0.654E-02    0.15       1.0  T
   3   -189.3434313  0.267401E-02  0.117E-01    0.23       1.0  T
   4   -189.3450236 -0.159223E-02  0.696E-02    0.13       1.0  T
   5   -189.3456281 -0.604499E-03  0.507E-02    0.18       1.0  T
   6   -189.3459075 -0.279404E-03  0.376E-02    0.17       1.0  T
   7   -189.3460811 -0.173647E-03  0.200E-02    0.16       1.0  T
   8   -189.3461725 -0.913453E-04  0.448E-03    0.15       2.3  T
   9   -189.3461740 -0.148551E-05  0.380E-03    0.15       2.7  T
  10   -189.3461735  0.481952E-06  0.303E-03    0.15       3.3  T
     SCC iter.                  ...        0 min,  0.148 sec
     gradient                   ...        0 min,  0.019 sec
 * total energy  :  -186.7496387 Eh     change       -0.6067614E-03 Eh
   gradient norm :     0.0184145 Eh/α   predicted    -0.5460778E-03 ( -10.00%)
   displ. norm   :     0.3816523 α      lambda       -0.1479500E-02
   maximum displ.:     0.1801205 α      in ANC's #6, #7, #8, ...

........................................................................
.............................. CYCLE   34 ..............................
........................................................................
   1   -189.3688512 -0.189369E+03  0.143E-01    0.15       0.0  T
   2   -189.3683766  0.474610E-03  0.948E-02    0.18       1.0  T
   3   -189.1635529  0.204824E+00  0.125E+00    0.03       1.0  T
   4   -189.3679609 -0.204408E+00  0.727E-02    0.13       1.0  T
   5   -189.3661813  0.177958E-02  0.110E-01    0.22       1.0  T
   6   -189.3678092 -0.162785E-02  0.809E-02    0.18       1.0  T
   7   -189.3686520 -0.842836E-03  0.506E-02    0.17       1.0  T
   8   -189.3689125 -0.260503E-03  0.361E-02    0.16       1.0  T
   9   -189.3690014 -0.889207E-04  0.274E-02    0.16       1.0  T
  10   -189.3689765  0.249427E-04  0.282E-02    0.16       1.0  T
  11   -189.3689975 -0.209985E-04  0.245E-02    0.16       1.0  T
  12   -189.3690050 -0.750183E-05  0.223E-02    0.16       1.0  T
  13   -189.3690230 -0.180184E-04  0.185E-02    0.16       1.0  T
  14   -189.3690347 -0.116912E-04  0.151E-02    0.16       1.0  T
  15   -189.3690415 -0.683439E-05  0.127E-02    0.16       1.0  T
  16   -189.3690515 -0.100231E-04  0.819E-03    0.16       1.2  T
  17   -189.3690561 -0.458853E-05  0.485E-03    0.15       2.1  T
  18   -189.3690579 -0.173165E-05  0.268E-03    0.15       3.8  T
  19   -189.3690585 -0.640698E-06  0.117E-03    0.15       8.6  T
     SCC iter.                  ...        0 min,  0.288 sec
     gradient                   ...        0 min,  0.020 sec
 * total energy  :  -186.7497785 Eh     change       -0.1398460E-03 Eh
   gradient norm :     0.0348079 Eh/α   predicted    -0.8475027E-03 ( 506.03%)
   displ. norm   :     0.3739131 α      lambda       -0.1352338E-02
   maximum displ.:     0.1542438 α      in ANC's #6, #19, #23, ...

........................................................................
.............................. CYCLE   35 ..............................
........................................................................
   1   -189.3568385 -0.189357E+03  0.134E-01    0.15       0.0  T
   2   -189.3567652  0.732339E-04  0.791E-02    0.14       1.0  T
   3   -189.3516536  0.511167E-02  0.159E-01    0.23       1.0  T
   4   -189.3564369 -0.478331E-02  0.536E-02    0.14       1.0  T
   5   -189.3563729  0.640252E-04  0.579E-02    0.15       1.0  T
   6   -189.3568439 -0.471077E-03  0.288E-02    0.16       1.0  T
   7   -189.3569378 -0.938850E-04  0.106E-02    0.15       1.0  T
   8   -189.3569484 -0.105882E-04  0.606E-03    0.15       1.7  T
   9   -189.3569511 -0.272291E-05  0.311E-03    0.15       3.2  T
  10   -189.3569503  0.827888E-06  0.349E-03    0.15       2.9  T
     SCC iter.                  ...        0 min,  0.155 sec
     gradient                   ...        0 min,  0.020 sec
 * total energy  :  -186.7505965 Eh     change       -0.8180093E-03 Eh
   gradient norm :     0.0179496 Eh/α   predicted    -0.7707041E-03 (  -5.78%)
   displ. norm   :     0.3694646 α      lambda       -0.1022558E-02
   maximum displ.:     0.1746728 α      in ANC's #6, #8, #7, ...

........................................................................
.............................. CYCLE   36 ..............................
........................................................................
   1   -189.3532156 -0.189353E+03  0.135E-01    0.16       0.0  T
   2   -189.3526718  0.543776E-03  0.873E-02    0.13       1.0  T
   3   -189.3453184  0.735346E-02  0.195E-01    0.22       1.0  T
   4   -189.3524336 -0.711520E-02  0.746E-02    0.19       1.0  T
   5   -189.3521000  0.333616E-03  0.917E-02    0.14       1.0  T
   6   -189.3533050 -0.120501E-02  0.197E-02    0.15       1.0  T
   7   -189.3532185  0.864518E-04  0.238E-02    0.16       1.0  T
   8   -189.3532990 -0.804560E-04  0.120E-02    0.15       1.0  T
   9   -189.3533301 -0.310985E-04  0.637E-03    0.16       1.6  T
  10   -189.3533334 -0.336368E-05  0.274E-03    0.15       3.7  T
  11   -189.3533345 -0.105981E-05  0.120E-03    0.15       8.4  T
  12   -189.3533346 -0.100700E-06  0.841E-04    0.15      12.0  T
     SCC iter.                  ...        0 min,  0.183 sec
     gradient                   ...        0 min,  0.020 sec
 * total energy  :  -186.7502156 Eh     change        0.3808732E-03 Eh
   gradient norm :     0.0349257 Eh/α   predicted    -0.5810724E-03 (-252.56%)
   displ. norm   :     0.2712955 α      lambda       -0.1839131E-02
   maximum displ.:     0.1286742 α      in ANC's #19, #6, #7, ...

........................................................................
.............................. CYCLE   37 ..............................
........................................................................
   1   -189.3499118 -0.189350E+03  0.103E-01    0.15       0.0  T
   2   -189.3499519 -0.401581E-04  0.569E-02    0.16       1.0  T
   3   -189.3489150  0.103692E-02  0.947E-02    0.13       1.0  T
   4   -189.3492915 -0.376486E-03  0.665E-02    0.18       1.0  T
   5   -189.3494753 -0.183791E-03  0.433E-02    0.14       1.0  T
   6   -189.3496615 -0.186190E-03  0.377E-02    0.17       1.0  T
   7   -189.3498838 -0.222373E-03  0.224E-02    0.16       1.0  T
   8   -189.3499742 -0.903377E-04  0.746E-03    0.16       1.4  T
   9   -189.3499753 -0.112844E-05  0.417E-03    0.16       2.4  T
  10   -189.3499780 -0.272127E-05  0.169E-03    0.15       6.0  T
     SCC iter.                  ...        0 min,  0.156 sec
     gradient                   ...        0 min,  0.020 sec
 * total energy  :  -186.7512002 Eh     change       -0.9845515E-03 Eh
   gradient norm :     0.0137163 Eh/α   predicted    -0.9872505E-03 (   0.27%)
   displ. norm   :     0.3609774 α      lambda       -0.5771953E-03
   maximum displ.:     0.1842307 α      in ANC's #6, #8, #7, ...

........................................................................
.............................. CYCLE   38 ..............................
........................................................................
   1   -189.3542119 -0.189354E+03  0.114E-01    0.15       0.0  T
   2   -189.3541035  0.108400E-03  0.670E-02    0.17       1.0  T
   3   -189.2527103  0.101393E+00  0.923E-01    0.04       1.0  T
   4   -189.3536707 -0.100960E+00  0.484E-02    0.14       1.0  T
   5   -189.3537510 -0.803837E-04  0.494E-02    0.18       1.0  T
   6   -189.3541992 -0.448128E-03  0.208E-02    0.16       1.0  T
   7   -189.3541524  0.467747E-04  0.249E-02    0.15       1.0  T
   8   -189.3541753 -0.229404E-04  0.209E-02    0.16       1.0  T
   9   -189.3542222 -0.468593E-04  0.148E-02    0.16       1.0  T
  10   -189.3542278 -0.557022E-05  0.126E-02    0.16       1.0  T
  11   -189.3542305 -0.272923E-05  0.112E-02    0.16       1.0  T
  12   -189.3542340 -0.352751E-05  0.921E-03    0.16       1.1  T
  13   -189.3542371 -0.310463E-05  0.705E-03    0.16       1.4  T
  14   -189.3542387 -0.161106E-05  0.568E-03    0.16       1.8  T
  15   -189.3542400 -0.127261E-05  0.424E-03    0.15       2.4  T
  16   -189.3542411 -0.109717E-05  0.245E-03    0.15       4.1  T
  17   -189.3542415 -0.382263E-06  0.125E-03    0.15       8.1  T
     SCC iter.                  ...        0 min,  0.268 sec
     gradient                   ...        0 min,  0.019 sec
 * total energy  :  -186.7514587 Eh     change       -0.2585420E-03 Eh
   gradient norm :     0.0180706 Eh/α   predicted    -0.3262052E-03 (  26.17%)
   displ. norm   :     0.3974111 α      lambda       -0.6118013E-03
   maximum displ.:     0.2119832 α      in ANC's #6, #8, #7, ...

........................................................................
.............................. CYCLE   39 ..............................
........................................................................
   1   -189.3579829 -0.189358E+03  0.122E-01    0.15       0.0  T
   2   -189.3578612  0.121714E-03  0.705E-02    0.16       1.0  T
   3   -189.2926207  0.652404E-01  0.865E-01    0.05       1.0  T
   4   -189.3558207 -0.632000E-01  0.104E-01    0.15       1.0  T
   5   -189.3572719 -0.145121E-02  0.520E-02    0.13       1.0  T
   6   -189.3575271 -0.255158E-03  0.487E-02    0.18       1.0  T
   7   -189.3579724 -0.445392E-03  0.225E-02    0.16       1.0  T
   8   -189.3579780 -0.550959E-05  0.197E-02    0.16       1.0  T
   9   -189.3580057 -0.277790E-04  0.133E-02    0.16       1.0  T
  10   -189.3580075 -0.174044E-05  0.120E-02    0.16       1.0  T
  11   -189.3580096 -0.211043E-05  0.105E-02    0.16       1.0  T
  12   -189.3580110 -0.138604E-05  0.916E-03    0.16       1.1  T
  13   -189.3580129 -0.193582E-05  0.737E-03    0.16       1.4  T
  14   -189.3580143 -0.139668E-05  0.585E-03    0.15       1.7  T
  15   -189.3580150 -0.703336E-06  0.476E-03    0.15       2.1  T
  16   -189.3580156 -0.612930E-06  0.362E-03    0.15       2.8  T
  17   -189.3580161 -0.476772E-06  0.226E-03    0.15       4.5  T
  18   -189.3580164 -0.294127E-06  0.888E-04    0.15      11.4  T
     SCC iter.                  ...        0 min,  0.278 sec
     gradient                   ...        0 min,  0.020 sec
 * total energy  :  -186.7518975 Eh     change       -0.4387523E-03 Eh
   gradient norm :     0.0162155 Eh/α   predicted    -0.3542155E-03 ( -19.27%)
   displ. norm   :     0.6534435 α      lambda       -0.8636634E-03
   maximum displ.:     0.3531719 α      in ANC's #6, #8, #7, ...

........................................................................
.............................. CYCLE   40 ..............................
........................................................................
   1   -189.3502458 -0.189350E+03  0.210E-01    0.16       0.0  T
   2   -189.3494589  0.786978E-03  0.123E-01    0.13       1.0  T
   3   -189.3380175  0.114414E-01  0.244E-01    0.21       1.0  T
   4   -189.3480038 -0.998638E-02  0.115E-01    0.23       1.0  T
   5   -189.3491318 -0.112795E-02  0.783E-02    0.17       1.0  T
   6   -189.3502602 -0.112846E-02  0.311E-02    0.16       1.0  T
   7   -189.3503412 -0.809746E-04  0.140E-02    0.16       1.0  T
   8   -189.3502321  0.109087E-03  0.221E-02    0.15       1.0  T
   9   -189.3503375 -0.105348E-03  0.989E-03    0.16       1.0  T
  10   -189.3503563 -0.187745E-04  0.212E-03    0.16       4.8  T
  11   -189.3503552  0.101521E-05  0.289E-03    0.15       3.5  T
  12   -189.3503567 -0.143654E-05  0.101E-03    0.16      10.1  T
     SCC iter.                  ...        0 min,  0.182 sec
     gradient                   ...        0 min,  0.020 sec
 * total energy  :  -186.7523224 Eh     change       -0.4249144E-03 Eh
   gradient norm :     0.0124022 Eh/α   predicted    -0.6162218E-03 (  45.02%)
   displ. norm   :     0.4822498 α      lambda       -0.6046694E-03
   maximum displ.:     0.2738739 α      in ANC's #6, #8, #7, ...

........................................................................
.............................. CYCLE   41 ..............................
........................................................................
   1   -189.3531170 -0.189353E+03  0.139E-01    0.16       0.0  T
   2   -189.3530794  0.376034E-04  0.764E-02    0.15       1.0  T
   3   -189.3479031  0.517629E-02  0.185E-01    0.14       1.0  T
   4   -189.3529188 -0.501569E-02  0.412E-02    0.17       1.0  T
   5   -189.3521456  0.773135E-03  0.649E-02    0.13       1.0  T
   6   -189.3530177 -0.872103E-03  0.279E-02    0.17       1.0  T
   7   -189.3531485 -0.130794E-03  0.978E-03    0.16       1.0  T
   8   -189.3531477  0.818261E-06  0.762E-03    0.16       1.3  T
   9   -189.3531579 -0.101993E-04  0.184E-03    0.16       5.5  T
  10   -189.3531580 -0.114187E-06  0.115E-03    0.16       8.8  T
  11   -189.3531580 -0.833481E-08  0.107E-03    0.15       9.4  T
[...]
     3   6 C      3.015     0.016    27.629     8.622
     4   6 C      3.150    -0.005    27.860     8.634
     5   6 C      3.081     0.124    25.209     8.231
     6   8 O      1.709    -0.208    17.452     5.640
     7   6 C      2.711     0.339    21.245     7.545
     8   8 O      0.858    -0.314    20.029     6.000
     9   6 C      2.804     0.212    23.512     7.944
    10   8 O      0.888    -0.295    19.675     5.948
    11  16 S      2.044    -0.003   141.162    19.997
    12   6 C      2.923    -0.036    28.885     8.814
    13   6 C      2.897    -0.025    28.626     8.772
    14   6 C      3.036     0.008    27.801     8.648
    15   6 C      3.179     0.071    26.009     8.326
    16   7 N      1.852    -0.220    26.633     7.649
    17   6 C      3.279     0.087    24.729     8.004
    18   6 C      3.198    -0.027    28.119     8.643
    19   6 C      2.979     0.089    26.020     8.367
    20  16 S      1.037    -0.277   151.025    20.785
    21   6 C      3.204    -0.030    28.143     8.641
    22   6 C      3.277     0.089    24.709     8.004
    23   7 N      1.853    -0.222    26.699     7.658
    24   6 C      3.179     0.073    25.962     8.319
    25   6 C      3.044     0.002    27.947     8.671
    26   6 C      2.966     0.021    27.531     8.606
    27   6 C      2.914    -0.033    28.813     8.802
    28   6 C      3.078     0.005    27.823     8.648
    29   6 C      3.013    -0.003    28.087     8.693
    30   6 C      3.854    -0.028    21.035     6.523
    31   6 C      3.732     0.024    20.255     6.424
    32   7 N      2.629    -0.334    28.603     7.943
    33   6 C      3.734     0.021    20.300     6.430
    34   7 N      2.631    -0.338    28.702     7.957
    35   6 C      3.076     0.005    27.828     8.649
    36   6 C      2.906    -0.001    28.063     8.686
    37   6 C      3.868    -0.010    20.713     6.472
    38   6 C      2.918    -0.032    28.807     8.801
    39   6 C      2.896    -0.027    28.685     8.781
    40   6 C      3.047    -0.003    28.052     8.687
    41   6 C      3.063    -0.004    28.072     8.688
    42   6 C      2.904    -0.025    28.617     8.771
    43   6 C      2.920    -0.030    28.743     8.792
    44   6 C      2.911    -0.022    28.543     8.761
    45   6 C      2.893    -0.033    28.830     8.803
    46   6 C      3.034     0.008    27.808     8.650
    47   6 C      3.173     0.073    26.009     8.330
    48   7 N      1.854    -0.218    26.589     7.643
    49   6 C      3.261     0.090    24.911     8.063
    50   6 C      3.232    -0.025    27.756     8.552
    51   6 C      2.975     0.089    26.006     8.365
    52  16 S      1.128    -0.268   150.713    20.760
    53   6 C      3.204    -0.027    28.069     8.630
    54   6 C      3.269     0.091    24.785     8.030
    55   7 N      1.853    -0.209    26.370     7.611
    56   6 C      3.163     0.074    26.037     8.340
    57   6 C      3.063     0.007    27.809     8.648
    58   6 C      2.977     0.001    27.988     8.678
    59  16 S      2.440     0.070   138.213    19.787
    60   6 C      3.017     0.012    27.714     8.636
    61   6 C      3.144    -0.006    27.904     8.643
    62   6 C      3.067     0.116    25.386     8.262
    63   8 O      1.709    -0.208    17.454     5.641
    64   6 C      2.711     0.337    21.271     7.549
    65   8 O      0.858    -0.316    20.069     6.006
    66   6 C      2.804     0.215    23.452     7.934
    67   8 O      0.888    -0.295    19.680     5.949
    68  16 S      2.046    -0.029   142.233    20.073
    69   6 C      2.917    -0.026    28.661     8.779
    70   6 C      2.842    -0.076    29.885     8.959
    71   1 H      0.927     0.086     1.919     2.166
    72   1 H      0.926     0.095     1.828     2.115
    73   1 H      0.925     0.053     2.286     2.365
    74   1 H      0.926     0.054     2.269     2.355
    75   1 H      0.926     0.053     2.286     2.365
    76   1 H      0.926     0.062     2.178     2.308
    77   1 H      0.924     0.050     2.315     2.380
    78   1 H      0.923     0.010     2.884     2.656
    79   1 H      0.924     0.040     2.449     2.447
    80   1 H      0.860     0.144     1.441     1.880
    81   1 H      0.860     0.145     1.439     1.879
    82   1 H      0.924     0.026     2.643     2.543
    83   1 H      0.924     0.040     2.455     2.450
    84   1 H      0.860     0.138     1.486     1.909
    85   1 H      0.860     0.144     1.444     1.883
    86   1 H      0.925     0.052     2.290     2.366
    87   1 H      0.923     0.085     1.926     2.171
    88   1 H      0.926     0.044     2.399     2.422
    89   1 H      0.926     0.048     2.343     2.393
    90   1 H      0.926     0.043     2.410     2.428
    91   1 H      0.926     0.058     2.221     2.331
    92   1 H      0.926     0.050     2.314     2.379
    93   1 H      0.925     0.066     2.125     2.280
    94   1 H      0.926     0.055     2.259     2.350
    95   1 H      0.926     0.078     1.999     2.211
    96   1 H      0.925     0.063     2.164     2.301
    97   1 H      0.926     0.068     2.113     2.273
    98   1 H      0.926     0.064     2.156     2.296

 Mol. C6AA /au·bohr⁶  :     191160.272419
 Mol. C8AA /au·bohr⁸  :    5503272.209726
 Mol. α(0) /au        :        700.904505


Wiberg/Mayer (AO) data.
largest (>0.10) Wiberg bond orders for each atom
          total WBO             WBO to atom ...
     1  C   3.908        C    5 1.499    S    2 1.217    H   71 0.964
     2  S   2.618        C    1 1.217    C    3 1.124
     3  C   3.947        C    4 1.405    C   12 1.215    S    2 1.124
     4  C   3.921        C    3 1.405    C    5 1.236    S   11 1.057
     5  C   3.912        C    1 1.499    C    4 1.236    O    6 1.012
     6  O   2.412        C    7 1.102    C    5 1.012    O    8 0.160
     7  C   3.924        O    8 1.783    O    6 1.102    C    9 0.912
     8  O   2.115        C    7 1.783    O    6 0.160
     9  C   3.931        O   10 1.834    S   11 1.071    C    7 0.912
    10  O   2.160        C    9 1.834    S   11 0.225
    11  S   2.578        C    9 1.071    C    4 1.057    O   10 0.225
    12  C   3.941        C   13 1.621    C    3 1.215    H   72 0.926
    13  C   3.983        C   12 1.621    C   14 1.208    H   73 0.956
    14  C   3.956        C   18 1.433    C   13 1.208    C   15 1.103
    15  C   3.842        N   16 1.628    C   14 1.103    H   74 0.965
    16  N   3.047        C   15 1.628    C   17 1.205
    17  C   3.905        C   22 1.405    N   16 1.205    C   18 1.058
    18  C   3.897        C   14 1.433    C   19 1.154    C   17 1.058
    19  C   3.962        S   20 1.551    C   18 1.154    C   21 1.150
    20  S   1.988        C   19 1.551
    21  C   3.917        C   25 1.460    C   19 1.150    C   22 1.055
    22  C   3.912        C   17 1.405    N   23 1.204    C   21 1.055
    23  N   3.040        C   24 1.621    C   22 1.204
    24  C   3.858        N   23 1.621    C   25 1.108    H   75 0.964
    25  C   3.946        C   21 1.460    C   26 1.141    C   24 1.108
    26  C   3.950        C   27 1.453    C   43 1.198    C   25 1.141
    27  C   3.929        C   26 1.453    C   28 1.282    H   76 0.953
    28  C   3.969        C   29 1.390    C   27 1.282    C   41 1.106
    29  C   3.845        C   28 1.390    C   35 1.146    C   30 1.029
    30  C   3.987        C   29 1.029    C   33 0.970    H   77 0.959    C   31 0.954
    31  C   3.973        N   32 1.033    H   79 0.974    H   78 0.969    C   30 0.954
    32  N   3.020        C   31 1.033    H   80 0.964    H   81 0.964
    33  C   3.975        N   34 1.028    H   83 0.974    C   30 0.970    H   82 0.961
    34  N   3.007        C   33 1.028    H   85 0.965    H   84 0.965
    35  C   3.984        C   36 1.657    C   29 1.146    C   40 1.055
    36  C   3.921        C   35 1.657    C   37 1.037    H   86 0.961
    37  C   3.990        C   36 1.037    C   38 1.010    C   44 0.958    H   87 0.905
    38  C   3.893        C   39 1.697    C   37 1.010    H   88 0.970
    39  C   3.980        C   38 1.697    C   40 1.224    H   89 0.961
    40  C   3.908        C   41 1.402    C   39 1.224    C   35 1.055
    41  C   3.974        C   40 1.402    C   42 1.237    C   28 1.106
    42  C   3.966        C   43 1.618    C   41 1.237    H   90 0.966
    43  C   3.926        C   42 1.618    C   26 1.198    H   91 0.962
    44  C   3.926        C   45 1.771    H   92 0.965    C   37 0.958
    45  C   3.980        C   44 1.771    C   46 1.156    H   93 0.956
    46  C   3.946        C   50 1.475    C   45 1.156    C   47 1.102
    47  C   3.845        N   48 1.626    C   46 1.102    H   94 0.965
    48  N   3.044        C   47 1.626    C   49 1.203
    49  C   3.910        C   54 1.418    N   48 1.203    C   50 1.049
    50  C   3.936        C   46 1.475    C   51 1.145    C   49 1.049
    51  C   3.966        S   52 1.564    C   53 1.158    C   50 1.145
    52  S   2.034        C   51 1.564
    53  C   3.928        C   57 1.445    C   51 1.158    C   54 1.049
    54  C   3.916        C   49 1.418    N   55 1.204    C   53 1.049
    55  N   3.055        C   56 1.637    C   54 1.204
    56  C   3.844        N   55 1.637    C   57 1.088    H   95 0.960
    57  C   3.949        C   53 1.445    C   58 1.199    C   56 1.088
    58  C   3.950        C   62 1.355    C   57 1.199    S   59 1.144
    59  S   2.684        C   60 1.163    C   58 1.144
    60  C   3.936        C   61 1.402    S   59 1.163    C   69 1.153
    61  C   3.944        C   60 1.402    C   62 1.277    S   68 1.039
    62  C   3.887        C   58 1.355    C   61 1.277    O   63 1.018
    63  O   2.412        C   64 1.097    C   62 1.018    O   65 0.157
    64  C   3.919        O   65 1.778    O   63 1.097    C   66 0.916
    65  O   2.106        C   64 1.778    O   63 0.157
    66  C   3.934        O   67 1.835    S   68 1.070    C   64 0.916
    67  O   2.166        C   66 1.835    S   68 0.230
    68  S   2.554        C   66 1.070    C   61 1.039    O   67 0.230
    69  C   3.986        C   70 1.841    C   60 1.153    H   96 0.951
    70  C   3.949        C   69 1.841    H   98 0.976    H   97 0.968
    71  H   0.992        C    1 0.964
    72  H   0.991        C   12 0.926
    73  H   0.996        C   13 0.956
    74  H   0.996        C   15 0.965
    75  H   0.996        C   24 0.964
    76  H   0.996        C   27 0.953
    77  H   0.997        C   30 0.959
    78  H   0.998        C   31 0.969
    79  H   0.997        C   31 0.974
    80  H   0.979        N   32 0.964
    81  H   0.978        N   32 0.964
    82  H   0.998        C   33 0.961
    83  H   0.998        C   33 0.974
    84  H   0.981        N   34 0.965
    85  H   0.978        N   34 0.965
    86  H   0.996        C   36 0.961
    87  H   0.982        C   37 0.905
    88  H   0.997        C   38 0.970
    89  H   0.995        C   39 0.961
    90  H   0.997        C   42 0.966
    91  H   0.996        C   43 0.962
    92  H   0.997        C   44 0.965
    93  H   0.995        C   45 0.956
    94  H   0.997        C   47 0.965
    95  H   0.993        C   56 0.960
    96  H   0.995        C   69 0.951
    97  H   0.995        C   70 0.968
    98  H   0.995        C   70 0.976

molecular dipole:
                 x           y           z       tot (Debye)
 q only:       -3.269       3.393      -2.289
   full:       -2.035       3.456      -2.498      12.009
molecular quadrupole (traceless):
                xx          xy          yy          xz          yz          zz
 q only:       65.266     194.709     -27.821    -115.072     166.248     -37.445
  q+dip:       77.087     160.161     -40.763     -89.031     189.515     -36.324
   full:       72.730     161.981     -30.454     -95.575     189.690     -42.276

           -------------------------------------------------
          |                Geometry Summary                 |
           -------------------------------------------------

      molecular mass/u    :     1025.1898000
   center of mass at/Å    :        4.7718865     -10.9773887       5.7405348
  moments of inertia/u·Å² :        0.1159037E+05   0.8554390E+05   0.9370665E+05
rotational constants/cm⁻¹ :        0.1454452E-02   0.1970641E-03   0.1798979E-03

 * 90 selected distances

     #   Z        #   Z                                     value/Å
     1   6 C      2  16 S                                 1.7087786
     2  16 S      3   6 C                                 1.7440664
     3   6 C      4   6 C                                 1.3856684
     1   6 C      5   6 C                                 1.3688167
     4   6 C      5   6 C                                 1.4111395
     5   6 C      6   8 O                                 1.3623915
     6   8 O      7   6 C                                 1.3403213
     7   6 C      8   8 O                                 1.1972990
     9   6 C     10   8 O                                 1.1986480
     4   6 C     11  16 S                                 1.7525677 (max)
     3   6 C     12   6 C                                 1.4158331
    12   6 C     13   6 C                                 1.3539547
    13   6 C     14   6 C                                 1.4184303
    15   6 C     16   7 N                                 1.3002251
    16   7 N     17   6 C                                 1.3630573
    14   6 C     18   6 C                                 1.3841231
    18   6 C     19   6 C                                 1.4430540
    19   6 C     20  16 S                                 1.6498354
    19   6 C     21   6 C                                 1.4431821
    17   6 C     22   6 C                                 1.3708076
    22   6 C     23   7 N                                 1.3633146
    23   7 N     24   6 C                                 1.3012643
    21   6 C     25   6 C                                 1.3799195
    25   6 C     26   6 C                                 1.4363971
    26   6 C     27   6 C                                 1.3830920
    27   6 C     28   6 C                                 1.4064580
    28   6 C     29   6 C                                 1.3970829
    31   6 C     32   7 N                                 1.4500089
    30   6 C     33   6 C                                 1.5391227
    33   6 C     34   7 N                                 1.4521868
    35   6 C     36   6 C                                 1.3472419
    36   6 C     37   6 C                                 1.4864684
    38   6 C     39   6 C                                 1.3471658
    39   6 C     40   6 C                                 1.4134154
    40   6 C     41   6 C                                 1.3828994
    41   6 C     42   6 C                                 1.4117891
    26   6 C     43   6 C                                 1.4297518
    42   6 C     43   6 C                                 1.3578290
    44   6 C     45   6 C                                 1.3368173
    45   6 C     46   6 C                                 1.4295603
    47   6 C     48   7 N                                 1.3024955
    48   7 N     49   6 C                                 1.3650870
    46   6 C     50   6 C                                 1.3741565
    50   6 C     51   6 C                                 1.4406527
    51   6 C     52  16 S                                 1.6459013
    51   6 C     53   6 C                                 1.4395219
    49   6 C     54   6 C                                 1.3706002
    54   6 C     55   7 N                                 1.3626603
    55   7 N     56   6 C                                 1.2984946
    53   6 C     57   6 C                                 1.3797551
    57   6 C     58   6 C                                 1.4177567
    58   6 C     59  16 S                                 1.7381940
    59  16 S     60   6 C                                 1.7300442
    60   6 C     61   6 C                                 1.3837490
    58   6 C     62   6 C                                 1.3938017
    61   6 C     62   6 C                                 1.4019187
    62   6 C     63   8 O                                 1.3610725
    63   8 O     64   6 C                                 1.3414399
    64   6 C     65   8 O                                 1.1979473
    66   6 C     67   8 O                                 1.1980370
    60   6 C     69   6 C                                 1.4331868
    69   6 C     70   6 C                                 1.3318761
     1   6 C     71   1 H                                 1.0705306
    12   6 C     72   1 H                                 1.0831068
    13   6 C     73   1 H                                 1.0839661
    15   6 C     74   1 H                                 1.0765206
    24   6 C     75   1 H                                 1.0760334
    27   6 C     76   1 H                                 1.0777804
    30   6 C     77   1 H                                 1.0942659
    31   6 C     78   1 H                                 1.1024591
    31   6 C     79   1 H                                 1.0927934
    32   7 N     80   1 H                                 1.0141618
    32   7 N     81   1 H                                 1.0127455 (min)
    33   6 C     82   1 H                                 1.0973937
    33   6 C     83   1 H                                 1.0934017
    34   7 N     84   1 H                                 1.0150637
    34   7 N     85   1 H                                 1.0133364
    36   6 C     86   1 H                                 1.0813641
    37   6 C     87   1 H                                 1.0997804
    38   6 C     88   1 H                                 1.0790171
    39   6 C     89   1 H                                 1.0799797
    42   6 C     90   1 H                                 1.0793358
    43   6 C     91   1 H                                 1.0773212
    44   6 C     92   1 H                                 1.0799643
    45   6 C     93   1 H                                 1.0833309
    47   6 C     94   1 H                                 1.0756788
    56   6 C     95   1 H                                 1.0742527
    69   6 C     96   1 H                                 1.0825318
    70   6 C     97   1 H                                 1.0778525
    70   6 C     98   1 H                                 1.0748944

 * 6 distinct bonds (by element types)

   Z      Z             #   av. dist./Å        max./Å        min./Å
   1 H    6 C          24     1.0830648     1.1024591     1.0705306
   6 C    6 C          37     1.4012701     1.5391227     1.3318761
   1 H    7 N           4     1.0138269     1.0150637     1.0127455
   6 C    7 N          10     1.3558794     1.4521868     1.2984946
   6 C    8 O           8     1.2746446     1.3623915     1.1972990
   6 C   16 S           7     1.7099125     1.7525677     1.6459013


optimized geometry written to: xtbopt.xyz


           -------------------------------------------------
          | TOTAL ENERGY             -186.759433016585 Eh   |
          | GRADIENT NORM               0.000470076659 Eh/α |
          | HOMO-LUMO GAP               0.158804077840 eV   |
           -------------------------------------------------

------------------------------------------------------------------------
 * finished run on 2021/05/25 at 21:50:40.830     
------------------------------------------------------------------------
 total:
 * wall-time:     0 d,  0 h,  0 min, 31.705 sec
 *  cpu-time:     0 d,  0 h,  5 min, 53.501 sec
 * ratio c/w:    11.150 speedup
 SCF:
 * wall-time:     0 d,  0 h,  0 min,  0.930 sec
 *  cpu-time:     0 d,  0 h,  0 min,  9.220 sec
 * ratio c/w:     9.911 speedup
 ANC optimizer:
 * wall-time:     0 d,  0 h,  0 min, 30.684 sec
 *  cpu-time:     0 d,  0 h,  5 min, 43.604 sec
 * ratio c/w:    11.198 speedup

