      -----------------------------------------------------------      
     |                   =====================                   |     
     |                           x T B                           |     
     |                   =====================                   |     
     |                         S. Grimme                         |     
     |          Mulliken Center for Theoretical Chemistry        |     
     |                    University of Bonn                     |     
     |                Version 6.2 RC2 (SAW190805)                |     
      -----------------------------------------------------------      

   This program is distributed in the hope that it will be useful,
   but WITHOUT ANY WARRANTY; without even the implied warranty of
   MERCHANTABILITY or FITNESS FOR A PARTICULAR PURPOSE.
   
   FOR NON-COMMERCIAL, ACADEMIA USE ONLY.
   
   Cite this work as:
   * S. Grimme, C. Bannwarth, P. Shushkov, J. Chem. Theory Comput., 2017,
     13, 1989-2009. DOI: 10.1021/acs.jctc.7b00118
   * C. Bannwarth, S. Ehlert and S. Grimme., J. Chem. Theory Comput., 2019,
     15, 1652-1671. DOI: 10.1021/acs.jctc.8b01176
   * P. Pracht, E. Caldeweyher, S. Ehlert, S. Grimme, ChemRxiv, 2019, preprint.
     DOI: 10.26434/chemrxiv.8326202.v1
   
   for DFT-D4:
   * E. Caldeweyher, C. Bannwarth and S. Grimme, J. Chem. Phys., 2017,
     147, 034112. DOI: 10.1063/1.4993215
   * E. Caldeweyher, S. Ehlert, A. Hansen, H. Neugebauer, S. Spicher,
     C. Bannwarth and S. Grimme, J. Chem. Phys., 2019, 150, 154122.
     DOI: 10.1063/1.5090222
   
   for sTDA-xTB:
   * S. Grimme and C. Bannwarth, J. Chem. Phys., 2016, 145, 054103.
     DOI: 10.1063/1.4959605
   
   in the mass-spec context:
   * V. Asgeirsson, C. Bauer and S. Grimme, Chem. Sci., 2017, 8, 4879.
     DOI: 10.1039/c7sc00601b
   
   for metadynamics refer to:
   * S. Grimme, J. Chem. Theory Comput., 2019, 155, 2847-2862
     DOI: 10.1021/acs.jctc.9b00143
   
   with help from (in alphabetical order)
   C. Bannwarth, F. Bohle, G. Brandenburg, E. Caldeweyher, M. Checinski,
   S. Dohm, S. Ehlert, S. Ehrlich, F. März, H. Neugebauer, J. Pisarek,
   P. Pracht, P. Shushkov, and S. Spicher.
   
 * started run on 2021/05/26 at 09:33:51.580     

           -------------------------------------------------
          |                Calculation Setup                |
           -------------------------------------------------

          program call               : /ihome/ghutchison/geoffh/xtb/xtb /ihome/ghutchison/blp62/GA/running_GA/more_units/generations/79/260_644_103_644_260.xyz -opt
          hostname                   : smp-n176
          coordinate file            : /ihome/ghutchison/blp62/GA/running_GA/more_units/generations/79/260_644_103_644_260.xyz
          omp threads                :                    12
          number of atoms            :                    94
          number of electrons        :                   354
          charge                     :                     0
          spin                       :                   0.0
          first test random number   :      0.98983754969024


########################################################################
# WARNING! Please study the warnings concerning your input carefully
#  - XTBPATH is not set, using XTBHOME instead
#  - the use of '-opt' is discouraged, please use '--opt' next time
########################################################################

           ------------------------------------------------- 
          |                 G F N 2 - x T B                 |
          | Geometry, Frequencies, Noncovalent interactions |
          |            JCTC 2019 parametrisation            |
           ------------------------------------------------- 
             KAB for C  - Si     :                1.0500
             KAB for H  - Pd     :                0.9500
             k(s)              :                1.8500
             k(p)              :                2.2300
             k(d)              :                2.2300
             k(f)              :                2.0000
             kEN (H0ij)        :               -2.0000
             D4 a1             :                0.5200
             D4 a2             :                5.0000
             D4 s6             :                1.0000
             D4 s8             :                2.7000
             D4 s9             :                5.0000
             alphaj            :                2.0000

  Z AO/shell   Hii/eV     exponent
  1     Wed Apr 25 08:07:45 CEST 2018   EN: 2.200 GM2: 0.406  GM3: 0.0800  RAES: 1.40
     1s    -10.707211    1.230000
  6     Wed Apr 25 08:07:45 CEST 2018   EN: 2.550 GM2: 0.538  GM3: 0.1500  RAES: 3.00
     2s    -13.970922    2.096432
     2p    -10.063292    1.800000
  7     Wed Apr 25 08:07:45 CEST 2018   EN: 3.040 GM2: 0.461  GM3:-0.0640  RAES: 1.90
     2s    -16.686243    2.339881
     2p    -12.523956    2.014332
  9     Mon Apr 23 13:58:50 CEST 2018   EN: 3.980 GM2: 0.532  GM3: 0.1426  RAES: 2.40
     2s    -23.458179    2.416361
     2p    -15.746583    2.308399
 16     Tue Apr 24 11:44:34 CEST 2018   EN: 2.580 GM2: 0.340  GM3:-0.0502  RAES: 3.10
     3s    -20.029654    1.981333
     3p    -11.377694    2.025643
     3d     -0.420282    1.702555

           ------------------------------------------------- 
          |        Self-Consistent Charge Iterations        |
           ------------------------------------------------- 

          ...................................................
          :                      SETUP                      :
          :.................................................:
          :  # basis functions                 328          :
          :  # atomic orbitals                 324          :
          :  # shells                          168          :
          :  # electrons                       354          :
          :  max. iterations                   250          :
          :  Hamiltonian                  GFN2-xTB          :
          :  restarted?                      false          :
          :  GBSA solvation                  false          :
          :  PC potential                    false          :
          :  electronic temp.          300.0000000     K    :
          :  accuracy                    1.0000000          :
          :  -> integral cutoff          0.2500000E+02      :
          :  -> integral neglect         0.1000000E-07      :
          :  -> SCF convergence          0.1000000E-05 Eh   :
          :  -> wf. convergence          0.1000000E-03 e    :
          :  Broyden damping             0.4000000          :
          ...................................................

 iter      E             dE          RMSdq      gap      omega  full diag
   1   -203.9854845 -0.203985E+03  0.484E+00    0.53       0.0  T
   2   -203.9419822  0.435023E-01  0.301E+00    0.02       1.0  T
   3   -202.7360432  0.120594E+01  0.301E+00    0.11       1.0  T
   4   -202.7777829 -0.417397E-01  0.399E+00    0.05       1.0  T
   5   -204.2521605 -0.147438E+01  0.147E+00    0.53       1.0  T
   6   -204.3308342 -0.786737E-01  0.706E-01    0.18       1.0  T
   7   -204.3288988  0.193537E-02  0.563E-01    0.16       1.0  T
   8   -204.3435932 -0.146943E-01  0.405E-01    0.15       1.0  T
   9   -204.3324788  0.111143E-01  0.349E-01    0.13       1.0  T
  10   -204.3447396 -0.122608E-01  0.261E-01    0.17       1.0  T
  11   -204.3470357 -0.229612E-02  0.189E-01    0.15       1.0  T
  12   -204.3478080 -0.772259E-03  0.164E-01    0.17       1.0  T
  13   -204.3493356 -0.152755E-02  0.107E-01    0.14       1.0  T
  14   -204.3484715  0.864078E-03  0.122E-01    0.21       1.0  T
  15   -204.3499365 -0.146504E-02  0.581E-02    0.18       1.0  T
  16   -204.3504595 -0.522998E-03  0.374E-02    0.15       1.0  T
  17   -204.3505251 -0.655517E-04  0.244E-02    0.15       1.0  T
  18   -204.3505335 -0.842986E-05  0.187E-02    0.15       1.0  T
  19   -204.3505445 -0.109849E-04  0.159E-02    0.15       1.0  T
  20   -204.3505474 -0.287448E-05  0.804E-03    0.15       1.3  T
  21   -204.3505500 -0.266359E-05  0.485E-03    0.15       2.1  T
  22   -204.3505534 -0.334523E-05  0.147E-03    0.15       7.0  T
  23   -204.3505535 -0.913414E-07  0.163E-03    0.15       6.3  T
  24   -204.3505535 -0.875788E-07  0.119E-03    0.15       8.7  T
  25   -204.3505536 -0.565468E-07  0.481E-04    0.15      21.5  T
  26   -204.3505536 -0.183981E-07  0.174E-04    0.15      59.4  T

   *** convergence criteria satisfied after 26 iterations ***

         #    Occupation            Energy/Eh            Energy/eV
      -------------------------------------------------------------
         1        2.0000           -0.8904405             -24.2301
       ...           ...                  ...                  ...
       171        2.0000           -0.4177626             -11.3679
       172        2.0000           -0.4157863             -11.3141
       173        2.0000           -0.3945781             -10.7370
       174        1.9974           -0.3841911             -10.4544
       175        1.9974           -0.3841724             -10.4539
       176        1.9910           -0.3829987             -10.4219
       177        1.8963           -0.3806281             -10.3574 (HOMO)
       178        0.0964           -0.3750327             -10.2052 (LUMO)
       179        0.0214           -0.3735665             -10.1653
       180                         -0.3505154              -9.5380
       181                         -0.3471167              -9.4455
       182                         -0.3344392              -9.1006
       ...                                ...                  ...
       324                          0.7748751              21.0854
      -------------------------------------------------------------
                  HL-Gap            0.0055954 Eh            0.1523 eV
             Fermi-level           -0.3778667 Eh          -10.2823 eV

 SCC (total)                   0 d,  0 h,  0 min,  6.065 sec
 SCC setup                      ...        0 min,  0.002 sec (  0.029%)
 Dispersion                     ...        0 min,  0.003 sec (  0.047%)
 integral evaluation            ...        0 min,  0.080 sec (  1.323%)
 zeroth order Hamiltonian       ...        0 min,  0.001 sec (  0.018%)
 iterations                     ...        0 min,  5.769 sec ( 95.109%)
 molecular gradient             ...        0 min,  0.188 sec (  3.106%)
 printout                       ...        0 min,  0.022 sec (  0.367%)

         :::::::::::::::::::::::::::::::::::::::::::::::::::::
         ::                     SUMMARY                     ::
         :::::::::::::::::::::::::::::::::::::::::::::::::::::
         :: total energy            -202.067114094678 Eh    ::
         :: gradient norm              0.238613686587 Eh/a0 ::
         :: HOMO-LUMO gap              0.152258132750 eV    ::
         ::.................................................::
         :: SCC energy              -204.350553617404 Eh    ::
         :: -> isotropic ES            0.235942143333 Eh    ::
         :: -> anisotropic ES          0.012180804342 Eh    ::
         :: -> anisotropic XC          0.016027552268 Eh    ::
         :: -> dispersion             -0.139967640689 Eh    ::
         :: repulsion energy           2.282022771119 Eh    ::
         :: add. restraining           0.000000000000 Eh    ::
         :::::::::::::::::::::::::::::::::::::::::::::::::::::

      ----------------------------------------------------------- 
     |                   =====================                   |
     |                        A N C O P T                        |
     |                   =====================                   |
     |               Approximate Normal Coordinate               |
     |                Rational Function Optimizer                |
      ----------------------------------------------------------- 

          ...................................................
          :                      SETUP                      :
          :.................................................:
          :   optimization level            normal          :
          :   max. optcycles                   282          :
          :   ANC micro-cycles                  20          :
          :   degrees of freedom               276          :
          :.................................................:
          :   RF solver                   davidson          :
          :   input Hessian                  false          :
          :   write xtbopt.log                true          :
          :   linear?                        false          :
          :   energy convergence         0.5000000E-05 Eh   :
          :   grad. convergence          0.1000000E-02 Eh/α :
          :   maximium RF displ.         2.0000000          :
          :   Hlow (freq-cutoff)         0.5000000E-02      :
          :   Hmax (freq-cutoff)         5.0000000          :
          :   S6 in model hess.         20.0000000          :
          ...................................................

generating ANC from model Hessian ...
Using Lindh-Hessian (1995)
 Shifting diagonal of input Hessian by   4.986197313866254E-003
 Lowest  eigenvalues of input Hessian
   -0.000000   -0.000000   -0.000000   -0.000000   -0.000000    0.000000
    0.005000    0.005020    0.005025    0.005073    0.005143    0.005271
    0.005391    0.005454    0.005528    0.005709    0.005802    0.005919
 Highest eigenvalues
    2.116980    2.131235    2.148591    2.160928    2.367155    2.368403
 

........................................................................
.............................. CYCLE    1 ..............................
........................................................................
   1   -204.3505536 -0.204351E+03  0.836E-05    0.15       0.0  T
   2   -204.3505536  0.422256E-08  0.149E-04    0.15      69.2  T
   3   -204.3505536  0.420783E-09  0.154E-04    0.15      67.2  T
     SCC iter.                  ...        0 min,  1.216 sec
     gradient                   ...        0 min,  0.269 sec
 * total energy  :  -202.0671141 Eh     change       -0.2053093E-07 Eh
   gradient norm :     0.2386159 Eh/α   predicted     0.0000000E+00 (-100.00%)
   displ. norm   :     0.3891613 α      lambda       -0.5886062E-01
   maximum displ.:     0.0734348 α      in ANC's #115, #52, #116, ...

........................................................................
.............................. CYCLE    2 ..............................
........................................................................
   1   -204.2982114 -0.204298E+03  0.722E-01    0.04       0.0  T
   2   -203.3054320  0.992779E+00  0.381E+00    0.32       1.0  T
   3   -204.2808960 -0.975464E+00  0.921E-01    0.31       1.0  T
   4   -204.3753262 -0.944301E-01  0.439E-01    0.13       1.0  T
   5   -204.3851295 -0.980336E-02  0.339E-01    0.29       1.0  T
   6   -204.3953099 -0.101804E-01  0.229E-01    0.22       1.0  T
   7   -204.3926788  0.263117E-02  0.219E-01    0.10       1.0  T
   8   -204.3947205 -0.204172E-02  0.277E-01    0.10       1.0  T
   9   -204.3987595 -0.403897E-02  0.167E-01    0.19       1.0  T
  10   -204.4013477 -0.258824E-02  0.114E-01    0.18       1.0  T
  11   -204.4035761 -0.222842E-02  0.478E-02    0.15       1.0  T
  12   -204.4036003 -0.242089E-04  0.433E-02    0.15       1.0  T
  13   -204.4038035 -0.203185E-03  0.254E-02    0.14       1.0  T
  14   -204.4038028  0.676978E-06  0.257E-02    0.14       1.0  T
  15   -204.4038230 -0.201659E-04  0.199E-02    0.14       1.0  T
  16   -204.4038235 -0.494408E-06  0.177E-02    0.14       1.0  T
  17   -204.4038275 -0.402035E-05  0.154E-02    0.14       1.0  T
  18   -204.4038290 -0.145297E-05  0.136E-02    0.14       1.0  T
  19   -204.4038284  0.615760E-06  0.114E-02    0.14       1.0  T
  20   -204.4038311 -0.276832E-05  0.937E-03    0.14       1.1  T
  21   -204.4038320 -0.902022E-06  0.765E-03    0.14       1.3  T
  22   -204.4038326 -0.623249E-06  0.667E-03    0.14       1.5  T
  23   -204.4038332 -0.595908E-06  0.536E-03    0.14       1.9  T
  24   -204.4038339 -0.620144E-06  0.350E-03    0.14       2.9  T
     SCC iter.                  ...        0 min,  6.954 sec
     gradient                   ...        0 min,  0.104 sec
 * total energy  :  -202.1088649 Eh     change       -0.4175080E-01 Eh
   gradient norm :     0.1039059 Eh/α   predicted    -0.3388750E-01 ( -18.83%)
   displ. norm   :     0.3867747 α      lambda       -0.2027708E-01
   maximum displ.:     0.0835547 α      in ANC's #28, #48, #19, ...

........................................................................
.............................. CYCLE    3 ..............................
........................................................................
   1   -204.3568890 -0.204357E+03  0.622E-01    0.05       0.0  T
   2   -203.3702372  0.986652E+00  0.380E+00    0.31       1.0  T
   3   -204.3166791 -0.946442E+00  0.883E-01    0.23       1.0  T
   4   -204.3959309 -0.792517E-01  0.581E-01    0.09       1.0  T
   5   -204.4116630 -0.157322E-01  0.416E-01    0.14       1.0  T
   6   -204.4200613 -0.839826E-02  0.307E-01    0.30       1.0  T
   7   -204.4294096 -0.934826E-02  0.205E-01    0.20       1.0  T
   8   -204.4182024  0.112071E-01  0.273E-01    0.07       1.0  T
   9   -204.4290006 -0.107981E-01  0.184E-01    0.16       1.0  T
  10   -204.4309797 -0.197918E-02  0.169E-01    0.21       1.0  T
  11   -204.4347339 -0.375420E-02  0.104E-01    0.18       1.0  T
  12   -204.4371201 -0.238615E-02  0.225E-02    0.14       1.0  T
  13   -204.4371643 -0.442165E-04  0.161E-02    0.13       1.0  T
  14   -204.4371642  0.118107E-06  0.111E-02    0.13       1.0  T
  15   -204.4371699 -0.569222E-05  0.815E-03    0.13       1.3  T
  16   -204.4371740 -0.416242E-05  0.662E-03    0.13       1.6  T
  17   -204.4371732  0.872310E-06  0.622E-03    0.13       1.7  T
  18   -204.4371717  0.142056E-05  0.606E-03    0.13       1.7  T
  19   -204.4371745 -0.278086E-05  0.490E-03    0.13       2.1  T
  20   -204.4371749 -0.371926E-06  0.425E-03    0.13       2.4  T
     SCC iter.                  ...        0 min,  5.984 sec
     gradient                   ...        0 min,  0.089 sec
 * total energy  :  -202.1211380 Eh     change       -0.1227309E-01 Eh
   gradient norm :     0.0319845 Eh/α   predicted    -0.1165530E-01 (  -5.03%)
   displ. norm   :     0.4218374 α      lambda       -0.4345087E-02
   maximum displ.:     0.1512187 α      in ANC's #19, #28, #48, ...

........................................................................
.............................. CYCLE    4 ..............................
........................................................................
   1   -204.4237835 -0.204424E+03  0.306E-01    0.08       0.0  T
   2   -204.3838335  0.399500E-01  0.560E-01    0.20       1.0  T
   3   -204.4226447 -0.388112E-01  0.293E-01    0.15       1.0  T
   4   -204.4299177 -0.727305E-02  0.279E-01    0.11       1.0  T
   5   -204.4330523 -0.313461E-02  0.161E-01    0.14       1.0  T
   6   -204.2910609  0.141991E+00  0.788E-01    0.04       1.0  T
   7   -204.4303297 -0.139269E+00  0.192E-01    0.20       1.0  T
   8   -204.4318528 -0.152310E-02  0.163E-01    0.18       1.0  T
   9   -204.4323533 -0.500514E-03  0.159E-01    0.19       1.0  T
  10   -204.4341265 -0.177319E-02  0.122E-01    0.17       1.0  T
  11   -204.4354472 -0.132072E-02  0.973E-02    0.17       1.0  T
  12   -204.4365435 -0.109628E-02  0.659E-02    0.15       1.0  T
  13   -204.4370810 -0.537535E-03  0.410E-02    0.14       1.0  T
  14   -204.4372347 -0.153724E-03  0.267E-02    0.13       1.0  T
  15   -204.4373340 -0.993043E-04  0.641E-03    0.13       1.6  T
  16   -204.4373000  0.340434E-04  0.124E-02    0.12       1.0  T
  17   -204.4373360 -0.360146E-04  0.127E-03    0.13       8.1  T
  18   -204.4373358  0.176522E-06  0.112E-03    0.13       9.2  T
  19   -204.4373359 -0.127227E-07  0.114E-03    0.13       9.0  T
     SCC iter.                  ...        0 min,  4.994 sec
     gradient                   ...        0 min,  0.115 sec
 * total energy  :  -202.1244698 Eh     change       -0.3331789E-02 Eh
   gradient norm :     0.0195867 Eh/α   predicted    -0.2559141E-02 ( -23.19%)
   displ. norm   :     0.5624194 α      lambda       -0.3431693E-02
   maximum displ.:     0.2338134 α      in ANC's #19, #28, #16, ...

........................................................................
.............................. CYCLE    5 ..............................
........................................................................
   1   -204.4198879 -0.204420E+03  0.347E-01    0.08       0.0  T
   2   -204.3751327  0.447553E-01  0.593E-01    0.17       1.0  T
   3   -204.4201938 -0.450611E-01  0.279E-01    0.17       1.0  T
   4   -204.3714426  0.487511E-01  0.582E-01    0.04       1.0  T
   5   -204.3524970  0.189457E-01  0.595E-01    0.10       1.0  T
   6   -204.4275037 -0.750067E-01  0.189E-01    0.11       1.0  T
   7   -204.4306551 -0.315139E-02  0.135E-01    0.14       1.0  T
   8   -204.4323810 -0.172595E-02  0.982E-02    0.13       1.0  T
   9   -204.4315035  0.877504E-03  0.113E-01    0.16       1.0  T
  10   -204.4327585 -0.125497E-02  0.730E-02    0.15       1.0  T
  11   -204.4335180 -0.759534E-03  0.420E-02    0.13       1.0  T
  12   -204.4336643 -0.146227E-03  0.235E-02    0.13       1.0  T
  13   -204.4337350 -0.706917E-04  0.118E-02    0.12       1.0  T
  14   -204.4337488 -0.138514E-04  0.812E-03    0.12       1.3  T
  15   -204.4337629 -0.140602E-04  0.270E-03    0.12       3.8  T
  16   -204.4337640 -0.115658E-05  0.111E-03    0.12       9.3  T
  17   -204.4337640 -0.163904E-07  0.967E-04    0.12      10.7  T
     SCC iter.                  ...        0 min,  4.060 sec
     gradient                   ...        0 min,  0.111 sec
 * total energy  :  -202.1270699 Eh     change       -0.2600152E-02 Eh
   gradient norm :     0.0140241 Eh/α   predicted    -0.2258597E-02 ( -13.14%)
   displ. norm   :     0.5847304 α      lambda       -0.2328845E-02
   maximum displ.:     0.2539309 α      in ANC's #19, #16, #28, ...

........................................................................
.............................. CYCLE    6 ..............................
........................................................................
   1   -204.4240975 -0.204424E+03  0.296E-01    0.08       0.0  T
   2   -204.3861319  0.379656E-01  0.507E-01    0.20       1.0  T
   3   -204.4230465 -0.369146E-01  0.217E-01    0.15       1.0  T
   4   -204.0129877  0.410059E+00  0.172E+00    0.08       1.0  T
   5   -204.2874004 -0.274413E+00  0.737E-01    0.04       1.0  T
   6   -204.4204864 -0.133086E+00  0.220E-01    0.13       1.0  T
   7   -204.4209896 -0.503249E-03  0.220E-01    0.20       1.0  T
   8   -204.4238510 -0.286137E-02  0.180E-01    0.18       1.0  T
   9   -204.4262252 -0.237424E-02  0.152E-01    0.17       1.0  T
  10   -204.4280092 -0.178393E-02  0.118E-01    0.16       1.0  T
  11   -204.4306216 -0.261241E-02  0.486E-02    0.13       1.0  T
  12   -204.4306568 -0.352499E-04  0.459E-02    0.13       1.0  T
  13   -204.4307681 -0.111260E-03  0.363E-02    0.12       1.0  T
  14   -204.4307540  0.140968E-04  0.356E-02    0.12       1.0  T
  15   -204.4307824 -0.284237E-04  0.309E-02    0.12       1.0  T
  16   -204.4307990 -0.166223E-04  0.264E-02    0.12       1.0  T
  17   -204.4308009 -0.185379E-05  0.251E-02    0.12       1.0  T
  18   -204.4308078 -0.694478E-05  0.205E-02    0.12       1.0  T
  19   -204.4308174 -0.952257E-05  0.114E-02    0.12       1.0  T
  20   -204.4308196 -0.220384E-05  0.744E-03    0.12       1.4  T
  21   -204.4308212 -0.164525E-05  0.343E-03    0.12       3.0  T
  22   -204.4308216 -0.416316E-06  0.849E-04    0.12      12.2  T
  23   -204.4308216 -0.205090E-07  0.153E-04    0.12      67.6  T
     SCC iter.                  ...        0 min,  4.963 sec
     gradient                   ...        0 min,  0.097 sec
 * total energy  :  -202.1289934 Eh     change       -0.1923439E-02 Eh
   gradient norm :     0.0177315 Eh/α   predicted    -0.1562591E-02 ( -18.76%)
   displ. norm   :     0.6675721 α      lambda       -0.2421469E-02
   maximum displ.:     0.2807227 α      in ANC's #19, #16, #28, ...

........................................................................
.............................. CYCLE    7 ..............................
........................................................................
   1   -204.4260393 -0.204426E+03  0.286E-01    0.09       0.0  T
   2   -204.3914491  0.345903E-01  0.474E-01    0.27       1.0  T
   3   -204.4152284 -0.237793E-01  0.284E-01    0.14       1.0  T
   4   -203.8602754  0.554953E+00  0.239E+00    0.11       1.0  T
   5   -204.0916728 -0.231397E+00  0.120E+00    0.09       1.0  T
   6   -204.4130758 -0.321403E+00  0.296E-01    0.26       1.0  T
   7   -204.4199615 -0.688567E-02  0.223E-01    0.21       1.0  T
   8   -204.4235670 -0.360555E-02  0.181E-01    0.20       1.0  T
   9   -204.4266999 -0.313286E-02  0.130E-01    0.17       1.0  T
  10   -204.4289044 -0.220448E-02  0.854E-02    0.15       1.0  T
  11   -204.4298591 -0.954719E-03  0.515E-02    0.13       1.0  T
  12   -204.4300390 -0.179899E-03  0.394E-02    0.12       1.0  T
  13   -204.4300381  0.861498E-06  0.382E-02    0.12       1.0  T
  14   -204.4300379  0.255112E-06  0.364E-02    0.12       1.0  T
  15   -204.4300513 -0.134271E-04  0.325E-02    0.12       1.0  T
  16   -204.4300554 -0.410126E-05  0.304E-02    0.12       1.0  T
  17   -204.4300607 -0.526612E-05  0.285E-02    0.12       1.0  T
  18   -204.4300674 -0.669340E-05  0.246E-02    0.12       1.0  T
  19   -204.4300742 -0.685156E-05  0.200E-02    0.12       1.0  T
  20   -204.4300826 -0.836374E-05  0.142E-02    0.12       1.0  T
  21   -204.4300881 -0.551192E-05  0.675E-03    0.12       1.5  T
  22   -204.4300894 -0.133598E-05  0.244E-03    0.12       4.2  T
  23   -204.4300897 -0.242915E-06  0.715E-04    0.12      14.4  T
     SCC iter.                  ...        0 min,  4.300 sec
     gradient                   ...        0 min,  0.251 sec
 * total energy  :  -202.1311133 Eh     change       -0.2119931E-02 Eh
   gradient norm :     0.0198100 Eh/α   predicted    -0.1750317E-02 ( -17.44%)
   displ. norm   :     0.7304736 α      lambda       -0.2766549E-02
   maximum displ.:     0.2853010 α      in ANC's #19, #16, #15, ...

........................................................................
.............................. CYCLE    8 ..............................
........................................................................
   1   -204.4313041 -0.204431E+03  0.280E-01    0.11       0.0  T
   2   -204.4053992  0.259050E-01  0.405E-01    0.32       1.0  T
   3   -204.3631614  0.422377E-01  0.566E-01    0.05       1.0  T
   4   -204.4172654 -0.541040E-01  0.290E-01    0.16       1.0  T
   5   -204.4217570 -0.449158E-02  0.235E-01    0.17       1.0  T
   6   -204.4252640 -0.350702E-02  0.187E-01    0.20       1.0  T
   7   -204.4268628 -0.159879E-02  0.168E-01    0.18       1.0  T
   8   -204.4294616 -0.259888E-02  0.127E-01    0.16       1.0  T
   9   -204.4323959 -0.293427E-02  0.537E-02    0.14       1.0  T
  10   -204.4326846 -0.288643E-03  0.374E-02    0.13       1.0  T
  11   -204.4329692 -0.284632E-03  0.961E-03    0.12       1.1  T
  12   -204.4329802 -0.110490E-04  0.578E-03    0.12       1.8  T
  13   -204.4329780  0.224258E-05  0.530E-03    0.12       1.9  T
  14   -204.4329816 -0.358226E-05  0.286E-03    0.12       3.6  T
  15   -204.4329832 -0.158653E-05  0.134E-03    0.12       7.7  T
  16   -204.4329834 -0.266722E-06  0.487E-04    0.12      21.2  T
     SCC iter.                  ...        0 min,  3.300 sec
     gradient                   ...        0 min,  0.150 sec
 * total energy  :  -202.1335130 Eh     change       -0.2399728E-02 Eh
   gradient norm :     0.0181983 Eh/α   predicted    -0.2121380E-02 ( -11.60%)
   displ. norm   :     0.7316517 α      lambda       -0.2627167E-02
   maximum displ.:     0.2935218 α      in ANC's #16, #19, #15, ...

........................................................................
.............................. CYCLE    9 ..............................
........................................................................
   1   -204.4382419 -0.204438E+03  0.271E-01    0.12       0.0  T
   2   -204.4218584  0.163835E-01  0.325E-01    0.20       1.0  T
   3   -204.2695589  0.152300E+00  0.843E-01    0.02       1.0  T
   4   -204.3516691 -0.821102E-01  0.655E-01    0.12       1.0  T
   5   -204.4292124 -0.775432E-01  0.240E-01    0.18       1.0  T
   6   -204.4320309 -0.281857E-02  0.185E-01    0.20       1.0  T
   7   -204.4342822 -0.225128E-02  0.152E-01    0.18       1.0  T
   8   -204.4360769 -0.179468E-02  0.118E-01    0.17       1.0  T
   9   -204.4381460 -0.206908E-02  0.660E-02    0.15       1.0  T
  10   -204.4387726 -0.626647E-03  0.378E-02    0.14       1.0  T
  11   -204.4390129 -0.240246E-03  0.169E-02    0.13       1.0  T
  12   -204.4390611 -0.482671E-04  0.890E-03    0.12       1.2  T
  13   -204.4390700 -0.884256E-05  0.584E-03    0.12       1.8  T
  14   -204.4390754 -0.546239E-05  0.304E-03    0.12       3.4  T
  15   -204.4390766 -0.111243E-05  0.769E-04    0.12      13.4  T
  16   -204.4390766 -0.610913E-07  0.492E-04    0.12      21.0  T
     SCC iter.                  ...        0 min,  5.831 sec
     gradient                   ...        0 min,  0.154 sec
 * total energy  :  -202.1357213 Eh     change       -0.2208278E-02 Eh
   gradient norm :     0.0159630 Eh/α   predicted    -0.2016779E-02 (  -8.67%)
   displ. norm   :     0.7199997 α      lambda       -0.2147502E-02
   maximum displ.:     0.3005350 α      in ANC's #16, #15, #19, ...

........................................................................
.............................. CYCLE   10 ..............................
........................................................................
   1   -204.4427627 -0.204443E+03  0.258E-01    0.12       0.0  T
   2   -204.4351591  0.760367E-02  0.240E-01    0.15       1.0  T
   3   -204.2644180  0.170741E+00  0.883E-01    0.04       1.0  T
   4   -204.4344694 -0.170051E+00  0.226E-01    0.24       1.0  T
   5   -204.4359810 -0.151157E-02  0.215E-01    0.09       1.0  T
   6   -204.4406801 -0.469916E-02  0.111E-01    0.16       1.0  T
   7   -204.4421106 -0.143050E-02  0.723E-02    0.13       1.0  T
   8   -204.4427407 -0.630016E-03  0.451E-02    0.14       1.0  T
   9   -204.4430080 -0.267360E-03  0.279E-02    0.12       1.0  T
  10   -204.4430789 -0.708549E-04  0.207E-02    0.13       1.0  T
  11   -204.4431559 -0.770427E-04  0.633E-03    0.13       1.6  T
  12   -204.4431584 -0.250619E-05  0.399E-03    0.13       2.6  T
  13   -204.4431596 -0.118179E-05  0.277E-03    0.13       3.7  T
  14   -204.4431603 -0.656320E-06  0.175E-03    0.13       5.9  T
     SCC iter.                  ...        0 min,  3.281 sec
     gradient                   ...        0 min,  0.058 sec
 * total energy  :  -202.1375204 Eh     change       -0.1799115E-02 Eh
   gradient norm :     0.0172426 Eh/α   predicted    -0.1630385E-02 (  -9.38%)
   displ. norm   :     0.6728931 α      lambda       -0.1914162E-02
   maximum displ.:     0.2821716 α      in ANC's #16, #15, #19, ...

........................................................................
.............................. CYCLE   11 ..............................
........................................................................
   1   -204.4519969 -0.204452E+03  0.227E-01    0.13       0.0  T
   2   -204.4479997  0.399720E-02  0.198E-01    0.11       1.0  T
   3   -204.3134525  0.134547E+00  0.775E-01    0.18       1.0  T
   4   -204.4395287 -0.126076E+00  0.271E-01    0.28       1.0  T
   5   -204.4069707  0.325580E-01  0.411E-01    0.05       1.0  T
   6   -204.4474872 -0.405164E-01  0.158E-01    0.20       1.0  T
   7   -204.4496814 -0.219422E-02  0.116E-01    0.16       1.0  T
   8   -204.4511976 -0.151621E-02  0.750E-02    0.14       1.0  T
   9   -204.4520601 -0.862547E-03  0.315E-02    0.13       1.0  T
  10   -204.4521671 -0.106934E-03  0.196E-02    0.13       1.0  T
  11   -204.4522171 -0.500301E-04  0.853E-03    0.13       1.2  T
  12   -204.4522289 -0.118398E-04  0.303E-03    0.13       3.4  T
  13   -204.4522297 -0.702442E-06  0.132E-03    0.13       7.8  T
  14   -204.4522298 -0.135881E-06  0.809E-04    0.13      12.8  T
     SCC iter.                  ...        0 min,  3.653 sec
     gradient                   ...        0 min,  0.081 sec
 * total energy  :  -202.1390486 Eh     change       -0.1528178E-02 Eh
   gradient norm :     0.0153554 Eh/α   predicted    -0.1390437E-02 (  -9.01%)
   displ. norm   :     0.7540414 α      lambda       -0.1810210E-02
   maximum displ.:     0.3144601 α      in ANC's #16, #28, #15, ...

........................................................................
.............................. CYCLE   12 ..............................
........................................................................
   1   -204.4430886 -0.204443E+03  0.264E-01    0.12       0.0  T
   2   -204.4407457  0.234288E-02  0.177E-01    0.17       1.0  T
   3   -203.9372753  0.503470E+00  0.138E+00    0.13       1.0  T
   4   -204.3893064 -0.452031E+00  0.484E-01    0.18       1.0  T
   5   -204.4401686 -0.508621E-01  0.131E-01    0.16       1.0  T
   6   -204.4423444 -0.217583E-02  0.642E-02    0.15       1.0  T
   7   -204.4430103 -0.665918E-03  0.359E-02    0.14       1.0  T
   8   -204.4432196 -0.209312E-03  0.191E-02    0.13       1.0  T
   9   -204.4432633 -0.436300E-04  0.111E-02    0.13       1.0  T
  10   -204.4432822 -0.189701E-04  0.523E-03    0.13       2.0  T
  11   -204.4432859 -0.364103E-05  0.239E-03    0.13       4.3  T
  12   -204.4432862 -0.300043E-06  0.171E-03    0.13       6.0  T
  13   -204.4432866 -0.477544E-06  0.599E-04    0.13      17.2  T
     SCC iter.                  ...        0 min,  2.139 sec
     gradient                   ...        0 min,  0.180 sec
 * total energy  :  -202.1402379 Eh     change       -0.1189253E-02 Eh
   gradient norm :     0.0229296 Eh/α   predicted    -0.1419729E-02 (  19.38%)
   displ. norm   :     0.5097266 α      lambda       -0.1793999E-02
   maximum displ.:     0.2035281 α      in ANC's #16, #10, #11, ...

........................................................................
.............................. CYCLE   13 ..............................
........................................................................
   1   -204.4574022 -0.204457E+03  0.166E-01    0.13       0.0  T
   2   -204.4380025  0.193997E-01  0.309E-01    0.07       1.0  T
   3   -204.4489568 -0.109543E-01  0.211E-01    0.25       1.0  T
   4   -204.4561609 -0.720412E-02  0.114E-01    0.15       1.0  T
   5   -204.4558533  0.307677E-03  0.884E-02    0.17       1.0  T
   6   -204.4567010 -0.847743E-03  0.686E-02    0.14       1.0  T
   7   -204.4576541 -0.953099E-03  0.136E-02    0.13       1.0  T
   8   -204.4576605 -0.635379E-05  0.852E-03    0.13       1.2  T
   9   -204.4576647 -0.422666E-05  0.639E-03    0.12       1.6  T
  10   -204.4576734 -0.873807E-05  0.188E-03    0.13       5.5  T
  11   -204.4576737 -0.304057E-06  0.112E-03    0.13       9.2  T
  12   -204.4576737  0.326656E-07  0.910E-04    0.13      11.3  T
     SCC iter.                  ...        0 min,  2.657 sec
     gradient                   ...        0 min,  0.093 sec
 * total energy  :  -202.1413077 Eh     change       -0.1069831E-02 Eh
   gradient norm :     0.0197968 Eh/α   predicted    -0.1130062E-02 (   5.63%)
   displ. norm   :     0.5628891 α      lambda       -0.1615788E-02
   maximum displ.:     0.1964242 α      in ANC's #16, #11, #8, ...

........................................................................
.............................. CYCLE   14 ..............................
........................................................................
   1   -204.4455902 -0.204446E+03  0.193E-01    0.11       0.0  T
   2   -204.4284318  0.171584E-01  0.311E-01    0.30       1.0  T
   3   -204.4331031 -0.467130E-02  0.266E-01    0.10       1.0  T
   4   -204.3592621  0.738410E-01  0.683E-01    0.03       1.0  T
   5   -204.4438013 -0.845392E-01  0.139E-01    0.14       1.0  T
   6   -204.4461850 -0.238375E-02  0.573E-02    0.14       1.0  T
   7   -204.4466407 -0.455729E-03  0.287E-02    0.12       1.0  T
   8   -204.4461959  0.444798E-03  0.506E-02    0.14       1.0  T
   9   -204.4466285 -0.432519E-03  0.271E-02    0.13       1.0  T
  10   -204.4467616 -0.133115E-03  0.115E-02    0.13       1.0  T
  11   -204.4467622 -0.622190E-06  0.985E-03    0.13       1.0  T
  12   -204.4467704 -0.821696E-05  0.696E-03    0.13       1.5  T
  13   -204.4467724 -0.199997E-05  0.540E-03    0.12       1.9  T
  14   -204.4467746 -0.218243E-05  0.322E-03    0.12       3.2  T
  15   -204.4467754 -0.761888E-06  0.197E-03    0.12       5.2  T
  16   -204.4467755 -0.171483E-06  0.131E-03    0.12       7.9  T
     SCC iter.                  ...        0 min,  3.903 sec
     gradient                   ...        0 min,  0.070 sec
 * total energy  :  -202.1418344 Eh     change       -0.5266627E-03 Eh
   gradient norm :     0.0238534 Eh/α   predicted    -0.1063871E-02 ( 102.00%)
   displ. norm   :     0.3934205 α      lambda       -0.1299499E-02
   maximum displ.:     0.1510614 α      in ANC's #16, #8, #11, ...

........................................................................
.............................. CYCLE   15 ..............................
........................................................................
   1   -204.4507481 -0.204451E+03  0.139E-01    0.13       0.0  T
   2   -204.3922216  0.585265E-01  0.487E-01    0.04       1.0  T
   3   -204.4469252 -0.547036E-01  0.146E-01    0.20       1.0  T
   4   -204.4408888  0.603646E-02  0.231E-01    0.11       1.0  T
   5   -204.4495395 -0.865073E-02  0.964E-02    0.16       1.0  T
   6   -204.4497227 -0.183213E-03  0.765E-02    0.16       1.0  T
   7   -204.4506426 -0.919856E-03  0.457E-02    0.14       1.0  T
   8   -204.4509777 -0.335091E-03  0.243E-02    0.13       1.0  T
   9   -204.4511187 -0.141006E-03  0.542E-03    0.12       1.9  T
  10   -204.4511204 -0.173396E-05  0.389E-03    0.12       2.7  T
  11   -204.4511221 -0.170652E-05  0.240E-03    0.12       4.3  T
     SCC iter.                  ...        0 min,  3.425 sec
     gradient                   ...        0 min,  0.058 sec
 * total energy  :  -202.1424984 Eh     change       -0.6640339E-03 Eh
   gradient norm :     0.0177234 Eh/α   predicted    -0.7503192E-03 (  12.99%)
   displ. norm   :     0.3264744 α      lambda       -0.1095671E-02
   maximum displ.:     0.1254626 α      in ANC's #16, #19, #8, ...

........................................................................
.............................. CYCLE   16 ..............................
........................................................................
   1   -204.4486384 -0.204449E+03  0.144E-01    0.13       0.0  T
   2   -204.4218498  0.267886E-01  0.341E-01    0.06       1.0  T
   3   -204.4418817 -0.200318E-01  0.186E-01    0.23       1.0  T
   4   -204.4438039 -0.192221E-02  0.169E-01    0.11       1.0  T
   5   -204.4464179 -0.261401E-02  0.103E-01    0.18       1.0  T
   6   -204.4480629 -0.164505E-02  0.633E-02    0.14       1.0  T
   7   -204.4487645 -0.701555E-03  0.292E-02    0.13       1.0  T
   8   -204.4489280 -0.163529E-03  0.774E-03    0.12       1.3  T
   9   -204.4489018  0.262661E-04  0.119E-02    0.13       1.0  T
  10   -204.4489366 -0.348546E-04  0.237E-03    0.12       4.3  T
  11   -204.4489372 -0.614161E-06  0.104E-03    0.12       9.9  T
  12   -204.4489373 -0.927975E-07  0.587E-04    0.12      17.6  T
     SCC iter.                  ...        0 min,  4.680 sec
     gradient                   ...        0 min,  0.144 sec
 * total energy  :  -202.1427973 Eh     change       -0.2989432E-03 Eh
   gradient norm :     0.0185751 Eh/α   predicted    -0.6062303E-03 ( 102.79%)
   displ. norm   :     0.2903813 α      lambda       -0.9405030E-03
   maximum displ.:     0.1229201 α      in ANC's #11, #8, #3, ...

........................................................................
.............................. CYCLE   17 ..............................
........................................................................
   1   -204.4597447 -0.204460E+03  0.102E-01    0.12       0.0  T
   2   -204.4594980  0.246667E-03  0.683E-02    0.13       1.0  T
   3   -204.4246307  0.348673E-01  0.369E-01    0.05       1.0  T
   4   -204.4555155 -0.308848E-01  0.145E-01    0.16       1.0  T
   5   -204.4565904 -0.107494E-02  0.123E-01    0.13       1.0  T
   6   -204.4595984 -0.300794E-02  0.310E-02    0.13       1.0  T
   7   -204.4597397 -0.141316E-03  0.177E-02    0.13       1.0  T
   8   -204.4597852 -0.454917E-04  0.930E-03    0.13       1.1  T
   9   -204.4597931 -0.791649E-05  0.587E-03    0.13       1.8  T
  10   -204.4598011 -0.803458E-05  0.202E-03    0.12       5.1  T
  11   -204.4598013 -0.193429E-06  0.138E-03    0.12       7.5  T
  12   -204.4598017 -0.367546E-06  0.577E-04    0.12      17.9  T
     SCC iter.                  ...        0 min,  3.146 sec
     gradient                   ...        0 min,  0.044 sec
 * total energy  :  -202.1433165 Eh     change       -0.5191555E-03 Eh
   gradient norm :     0.0147895 Eh/α   predicted    -0.5099079E-03 (  -1.78%)
   displ. norm   :     0.4578605 α      lambda       -0.9049674E-03
   maximum displ.:     0.1688031 α      in ANC's #8, #11, #3, ...

........................................................................
.............................. CYCLE   18 ..............................
........................................................................
   1   -204.4526652 -0.204453E+03  0.138E-01    0.12       0.0  T
   2   -204.4525803  0.848499E-04  0.805E-02    0.12       1.0  T
   3   -204.4389122  0.136682E-01  0.242E-01    0.19       1.0  T
   4   -204.4507385 -0.118263E-01  0.971E-02    0.15       1.0  T
   5   -204.4512594 -0.520946E-03  0.771E-02    0.10       1.0  T
   6   -204.4525170 -0.125763E-02  0.294E-02    0.13       1.0  T
   7   -204.4527064 -0.189332E-03  0.677E-03    0.12       1.5  T
   8   -204.4527095 -0.309783E-05  0.352E-03    0.12       2.9  T
   9   -204.4527105 -0.107433E-05  0.206E-03    0.12       5.0  T
  10   -204.4527110 -0.421148E-06  0.691E-04    0.12      14.9  T
     SCC iter.                  ...        0 min,  4.516 sec
     gradient                   ...        0 min,  0.057 sec
 * total energy  :  -202.1436473 Eh     change       -0.3308603E-03 Eh
   gradient norm :     0.0167367 Eh/α   predicted    -0.5473406E-03 (  65.43%)
   displ. norm   :     0.3639717 α      lambda       -0.7393646E-03
   maximum displ.:     0.1336886 α      in ANC's #8, #11, #16, ...

........................................................................
.............................. CYCLE   19 ..............................
........................................................................
   1   -204.4509746 -0.204451E+03  0.124E-01    0.13       0.0  T
   2   -204.4254399  0.255346E-01  0.321E-01    0.06       1.0  T
   3   -204.4469633 -0.215234E-01  0.144E-01    0.20       1.0  T
   4   -204.4474269 -0.463546E-03  0.130E-01    0.18       1.0  T
   5   -204.4482878 -0.860961E-03  0.106E-01    0.18       1.0  T
   6   -204.4498708 -0.158302E-02  0.715E-02    0.16       1.0  T
   7   -204.4508011 -0.930267E-03  0.364E-02    0.14       1.0  T
   8   -204.4511078 -0.306697E-03  0.102E-02    0.13       1.0  T
   9   -204.4511265 -0.187234E-04  0.286E-03    0.12       3.6  T
  10   -204.4511270 -0.496296E-06  0.179E-03    0.12       5.8  T
  11   -204.4511275 -0.493381E-06  0.855E-04    0.12      12.1  T
     SCC iter.                  ...        0 min,  3.206 sec
     gradient                   ...        0 min,  0.104 sec
 * total energy  :  -202.1440241 Eh     change       -0.3767744E-03 Eh
   gradient norm :     0.0160597 Eh/α   predicted    -0.4186598E-03 (  11.12%)
   displ. norm   :     0.3728073 α      lambda       -0.9454798E-03
   maximum displ.:     0.1311437 α      in ANC's #11, #8, #29, ...

........................................................................
.............................. CYCLE   20 ..............................
........................................................................
   1   -204.4545774 -0.204455E+03  0.148E-01    0.14       0.0  T
   2   -204.3523817  0.102196E+00  0.631E-01    0.03       1.0  T
   3   -204.4510213 -0.986396E-01  0.145E-01    0.19       1.0  T
   4   -204.4439065  0.711480E-02  0.241E-01    0.13       1.0  T
   5   -204.4529219 -0.901546E-02  0.101E-01    0.16       1.0  T
   6   -204.4535751 -0.653141E-03  0.767E-02    0.16       1.0  T
   7   -204.4543474 -0.772293E-03  0.531E-02    0.15       1.0  T
   8   -204.4548610 -0.513688E-03  0.249E-02    0.13       1.0  T
   9   -204.4550042 -0.143123E-03  0.862E-03    0.13       1.2  T
  10   -204.4550109 -0.672535E-05  0.547E-03    0.13       1.9  T
  11   -204.4550148 -0.389053E-05  0.312E-03    0.13       3.3  T
  12   -204.4550164 -0.165761E-05  0.175E-03    0.13       5.9  T
  13   -204.4550169 -0.424741E-06  0.105E-03    0.13       9.9  T
     SCC iter.                  ...        0 min,  2.024 sec
     gradient                   ...        0 min,  0.056 sec
 * total energy  :  -202.1445067 Eh     change       -0.4825440E-03 Eh
   gradient norm :     0.0160337 Eh/α   predicted    -0.5384454E-03 (  11.58%)
   displ. norm   :     0.4346949 α      lambda       -0.7934856E-03
   maximum displ.:     0.1527162 α      in ANC's #8, #11, #14, ...
 * RMSD in coord.:     0.8340047 α      energy gain  -0.7739257E-01 Eh

generating ANC from model Hessian ...
Using Lindh-Hessian (1995)
 Shifting diagonal of input Hessian by   4.995531172282763E-003
 Lowest  eigenvalues of input Hessian
   -0.000000   -0.000000   -0.000000   -0.000000    0.000000    0.000000
    0.005000    0.005014    0.005039    0.005084    0.005136    0.005290
    0.005353    0.005416    0.005553    0.005687    0.005850    0.005974
 Highest eigenvalues
    2.053564    2.069020    2.078504    2.144540    2.232756    2.238074
 

........................................................................
.............................. CYCLE   21 ..............................
........................................................................
   1   -204.4613371 -0.204461E+03  0.138E-01    0.13       0.0  T
   2   -204.4417472  0.195899E-01  0.291E-01    0.07       1.0  T
   3   -204.4557019 -0.139546E-01  0.169E-01    0.22       1.0  T
   4   -204.4568681 -0.116624E-02  0.153E-01    0.16       1.0  T
   5   -204.4589088 -0.204064E-02  0.102E-01    0.18       1.0  T
   6   -204.4604274 -0.151868E-02  0.672E-02    0.15       1.0  T
   7   -204.4614117 -0.984206E-03  0.220E-02    0.13       1.0  T
   8   -204.4615029 -0.912341E-04  0.777E-03    0.12       1.3  T
   9   -204.4615121 -0.924228E-05  0.267E-03    0.13       3.9  T
  10   -204.4615123 -0.209944E-06  0.179E-03    0.13       5.8  T
  11   -204.4615124 -0.598087E-07  0.151E-03    0.13       6.8  T
  12   -204.4615129 -0.464550E-06  0.386E-04    0.13      26.8  T
  13   -204.4615129 -0.518747E-08  0.225E-04    0.13      45.8  T
     SCC iter.                  ...        0 min,  3.541 sec
     gradient                   ...        0 min,  0.100 sec
 * total energy  :  -202.1449046 Eh     change       -0.3979564E-03 Eh
   gradient norm :     0.0188286 Eh/α   predicted     0.0000000E+00 (-100.00%)
   displ. norm   :     0.1592779 α      lambda       -0.6329261E-03
   maximum displ.:     0.0608343 α      in ANC's #10, #2, #32, ...

........................................................................
.............................. CYCLE   22 ..............................
........................................................................
   1   -204.4578441 -0.204458E+03  0.605E-02    0.13       0.0  T
   2   -204.4571806  0.663514E-03  0.601E-02    0.11       1.0  T
   3   -204.4534144  0.376615E-02  0.137E-01    0.21       1.0  T
   4   -204.4564550 -0.304053E-02  0.768E-02    0.15       1.0  T
   5   -204.4572117 -0.756757E-03  0.533E-02    0.14       1.0  T
   6   -204.4577953 -0.583561E-03  0.170E-02    0.13       1.0  T
   7   -204.4578480 -0.527568E-04  0.790E-03    0.12       1.3  T
   8   -204.4578567 -0.868301E-05  0.460E-03    0.12       2.2  T
   9   -204.4578616 -0.486616E-05  0.811E-04    0.13      12.7  T
  10   -204.4578616 -0.473264E-07  0.416E-04    0.13      24.8  T
  11   -204.4578616 -0.159276E-07  0.209E-04    0.13      49.4  T
     SCC iter.                  ...        0 min,  4.369 sec
     gradient                   ...        0 min,  0.162 sec
 * total energy  :  -202.1453978 Eh     change       -0.4931908E-03 Eh
   gradient norm :     0.0085719 Eh/α   predicted    -0.3244917E-03 ( -34.21%)
   displ. norm   :     0.2338491 α      lambda       -0.5033531E-03
   maximum displ.:     0.0950870 α      in ANC's #32, #28, #10, ...

........................................................................
.............................. CYCLE   23 ..............................
........................................................................
   1   -204.4549548 -0.204455E+03  0.929E-02    0.13       0.0  T
   2   -204.4543387  0.616056E-03  0.710E-02    0.11       1.0  T
   3   -204.4464538  0.788491E-02  0.196E-01    0.25       1.0  T
   4   -204.4516126 -0.515878E-02  0.117E-01    0.18       1.0  T
   5   -204.4537223 -0.210969E-02  0.744E-02    0.16       1.0  T
   6   -204.4547889 -0.106659E-02  0.285E-02    0.14       1.0  T
   7   -204.4548290 -0.401429E-04  0.243E-02    0.12       1.0  T
   8   -204.4549749 -0.145920E-03  0.567E-03    0.12       1.8  T
   9   -204.4549801 -0.516391E-05  0.160E-03    0.13       6.4  T
  10   -204.4549803 -0.240847E-06  0.815E-04    0.13      12.7  T
  11   -204.4549805 -0.106622E-06  0.335E-04    0.13      30.8  T
     SCC iter.                  ...        0 min,  3.196 sec
     gradient                   ...        0 min,  0.078 sec
 * total energy  :  -202.1457756 Eh     change       -0.3777680E-03 Eh
   gradient norm :     0.0045355 Eh/α   predicted    -0.2660169E-03 ( -29.58%)
   displ. norm   :     0.3779712 α      lambda       -0.4915058E-03
   maximum displ.:     0.1543091 α      in ANC's #32, #28, #10, ...

........................................................................
.............................. CYCLE   24 ..............................
........................................................................
   1   -204.4521749 -0.204452E+03  0.139E-01    0.13       0.0  T
   2   -204.4513372  0.837649E-03  0.980E-02    0.11       1.0  T
   3   -204.4370762  0.142610E-01  0.270E-01    0.30       1.0  T
   4   -204.4465743 -0.949809E-02  0.153E-01    0.21       1.0  T
   5   -204.4500096 -0.343531E-02  0.994E-02    0.17       1.0  T
   6   -204.4517484 -0.173880E-02  0.446E-02    0.15       1.0  T
   7   -204.4514374  0.310961E-03  0.546E-02    0.11       1.0  T
   8   -204.4522145 -0.777022E-03  0.733E-03    0.13       1.4  T
   9   -204.4522213 -0.679896E-05  0.225E-03    0.13       4.6  T
  10   -204.4522187  0.258332E-05  0.354E-03    0.13       2.9  T
  11   -204.4522217 -0.305899E-05  0.708E-04    0.13      14.6  T
  12   -204.4522218 -0.589049E-07  0.352E-04    0.13      29.3  T
  13   -204.4522218 -0.150704E-07  0.127E-04    0.13      81.1  T
     SCC iter.                  ...        0 min,  5.986 sec
     gradient                   ...        0 min,  0.095 sec
 * total energy  :  -202.1461670 Eh     change       -0.3913935E-03 Eh
   gradient norm :     0.0116574 Eh/α   predicted    -0.2808673E-03 ( -28.24%)
   displ. norm   :     0.5121475 α      lambda       -0.5829681E-03
   maximum displ.:     0.2023502 α      in ANC's #32, #10, #28, ...

........................................................................
.............................. CYCLE   25 ..............................
........................................................................
   1   -204.4495091 -0.204450E+03  0.184E-01    0.13       0.0  T
   2   -204.4481048  0.140430E-02  0.129E-01    0.11       1.0  T
   3   -204.4282307  0.198741E-01  0.327E-01    0.34       1.0  T
   4   -204.4431158 -0.148851E-01  0.167E-01    0.23       1.0  T
   5   -204.4460093 -0.289345E-02  0.128E-01    0.19       1.0  T
   6   -204.4486016 -0.259233E-02  0.645E-02    0.16       1.0  T
   7   -204.4474832  0.111837E-02  0.891E-02    0.10       1.0  T
   8   -204.4495593 -0.207609E-02  0.135E-02    0.13       1.0  T
   9   -204.4495787 -0.193704E-04  0.772E-03    0.13       1.3  T
  10   -204.4495797 -0.100943E-05  0.677E-03    0.13       1.5  T
  11   -204.4495909 -0.112279E-04  0.147E-03    0.13       7.0  T
  12   -204.4495913 -0.320102E-06  0.717E-04    0.13      14.4  T
  13   -204.4495914 -0.978331E-07  0.168E-04    0.13      61.3  T
     SCC iter.                  ...        0 min,  1.635 sec
     gradient                   ...        0 min,  0.073 sec
 * total energy  :  -202.1465475 Eh     change       -0.3805600E-03 Eh
   gradient norm :     0.0190794 Eh/α   predicted    -0.3679403E-03 (  -3.32%)
   displ. norm   :     0.2693529 α      lambda       -0.5097784E-03
   maximum displ.:     0.1000276 α      in ANC's #10, #2, #17, ...

........................................................................
.............................. CYCLE   26 ..............................
........................................................................
   1   -204.4530508 -0.204453E+03  0.944E-02    0.13       0.0  T
   2   -204.4526105  0.440340E-03  0.681E-02    0.12       1.0  T
   3   -204.4415065  0.111039E-01  0.230E-01    0.24       1.0  T
   4   -204.4527769 -0.112704E-01  0.397E-02    0.14       1.0  T
   5   -204.4530356 -0.258665E-03  0.153E-02    0.12       1.0  T
   6   -204.4528341  0.201453E-03  0.315E-02    0.14       1.0  T
   7   -204.4530002 -0.166114E-03  0.168E-02    0.12       1.0  T
   8   -204.4530730 -0.727261E-04  0.298E-03    0.13       3.5  T
   9   -204.4530741 -0.116695E-05  0.111E-03    0.13       9.3  T
  10   -204.4530741 -0.482615E-08  0.818E-04    0.13      12.6  T
     SCC iter.                  ...        0 min,  0.489 sec
     gradient                   ...        0 min,  0.087 sec
 * total energy  :  -202.1469710 Eh     change       -0.4234344E-03 Eh
   gradient norm :     0.0142560 Eh/α   predicted    -0.2733871E-03 ( -35.44%)
   displ. norm   :     0.3853895 α      lambda       -0.7580018E-03
   maximum displ.:     0.1588706 α      in ANC's #10, #2, #17, ...

........................................................................
.............................. CYCLE   27 ..............................
........................................................................
   1   -204.4607013 -0.204461E+03  0.125E-01    0.13       0.0  T
   2   -204.4601900  0.511278E-03  0.837E-02    0.12       1.0  T
   3   -204.4453135  0.148765E-01  0.268E-01    0.29       1.0  T
   4   -204.4595930 -0.142795E-01  0.712E-02    0.16       1.0  T
   5   -204.4602293 -0.636321E-03  0.487E-02    0.12       1.0  T
   6   -204.4606099 -0.380634E-03  0.243E-02    0.14       1.0  T
   7   -204.4606963 -0.863996E-04  0.144E-02    0.12       1.0  T
   8   -204.4607447 -0.484013E-04  0.365E-03    0.13       2.8  T
   9   -204.4607459 -0.113947E-05  0.172E-03    0.13       6.0  T
  10   -204.4607459 -0.382851E-07  0.124E-03    0.13       8.3  T
     SCC iter.                  ...        0 min,  0.971 sec
     gradient                   ...        0 min,  0.038 sec
 * total energy  :  -202.1474607 Eh     change       -0.4897739E-03 Eh
   gradient norm :     0.0051467 Eh/α   predicted    -0.4352930E-03 ( -11.12%)
   displ. norm   :     0.5761257 α      lambda       -0.4628253E-03
   maximum displ.:     0.2304651 α      in ANC's #10, #32, #2, ...

........................................................................
.............................. CYCLE   28 ..............................
........................................................................
   1   -204.4578076 -0.204458E+03  0.187E-01    0.13       0.0  T
   2   -204.4568773  0.930343E-03  0.123E-01    0.11       1.0  T
   3   -204.4372496  0.196277E-01  0.318E-01    0.35       1.0  T
   4   -204.4521681 -0.149185E-01  0.156E-01    0.23       1.0  T
   5   -204.4552448 -0.307665E-02  0.109E-01    0.17       1.0  T
   6   -204.4574200 -0.217525E-02  0.449E-02    0.15       1.0  T
   7   -204.4564945  0.925494E-03  0.726E-02    0.10       1.0  T
   8   -204.4578494 -0.135492E-02  0.127E-02    0.13       1.0  T
   9   -204.4578714 -0.219791E-04  0.828E-03    0.13       1.2  T
  10   -204.4578780 -0.664310E-05  0.557E-03    0.13       1.9  T
  11   -204.4578858 -0.774500E-05  0.685E-04    0.13      15.1  T
  12   -204.4578857  0.523937E-07  0.665E-04    0.13      15.5  T
  13   -204.4578858 -0.782313E-07  0.175E-04    0.13      58.9  T
     SCC iter.                  ...        0 min,  1.610 sec
     gradient                   ...        0 min,  0.059 sec
 * total energy  :  -202.1476514 Eh     change       -0.1906417E-03 Eh
   gradient norm :     0.0128877 Eh/α   predicted    -0.3082334E-03 (  61.68%)
   displ. norm   :     0.1560159 α      lambda       -0.3603991E-03
   maximum displ.:     0.0667659 α      in ANC's #10, #2, #4, ...

........................................................................
.............................. CYCLE   29 ..............................
........................................................................
   1   -204.4606248 -0.204461E+03  0.481E-02    0.13       0.0  T
   2   -204.4605902  0.345961E-04  0.296E-02    0.12       1.0  T
   3   -204.4573218  0.326840E-02  0.115E-01    0.19       1.0  T
   4   -204.4605487 -0.322689E-02  0.211E-02    0.13       1.0  T
   5   -204.4604819  0.668343E-04  0.268E-02    0.13       1.0  T
   6   -204.4606287 -0.146801E-03  0.577E-03    0.13       1.8  T
   7   -204.4606340 -0.530411E-05  0.235E-03    0.13       4.4  T
   8   -204.4606343 -0.301384E-06  0.157E-03    0.13       6.6  T
   9   -204.4606346 -0.281631E-06  0.456E-04    0.13      22.6  T
     SCC iter.                  ...        0 min,  2.359 sec
     gradient                   ...        0 min,  0.209 sec
 * total energy  :  -202.1479002 Eh     change       -0.2488472E-03 Eh
   gradient norm :     0.0067277 Eh/α   predicted    -0.1845902E-03 ( -25.82%)
   displ. norm   :     0.3799178 α      lambda       -0.2913057E-03
   maximum displ.:     0.1788783 α      in ANC's #10, #2, #14, ...

........................................................................
.............................. CYCLE   30 ..............................
........................................................................
   1   -204.4606736 -0.204461E+03  0.113E-01    0.13       0.0  T
   2   -204.4581108  0.256280E-02  0.118E-01    0.10       1.0  T
   3   -204.4520826  0.602819E-02  0.199E-01    0.27       1.0  T
   4   -204.4541422 -0.205962E-02  0.165E-01    0.21       1.0  T
   5   -204.4576618 -0.351961E-02  0.114E-01    0.19       1.0  T
   6   -204.4594996 -0.183771E-02  0.695E-02    0.16       1.0  T
   7   -204.4607044 -0.120486E-02  0.871E-03    0.13       1.2  T
   8   -204.4606753  0.291210E-04  0.124E-02    0.12       1.0  T
   9   -204.4607109 -0.355763E-04  0.332E-03    0.13       3.1  T
  10   -204.4607125 -0.162199E-05  0.138E-03    0.13       7.5  T
  11   -204.4607128 -0.294168E-06  0.649E-04    0.13      15.9  T
     SCC iter.                  ...        0 min,  3.264 sec
     gradient                   ...        0 min,  0.062 sec
 * total energy  :  -202.1481304 Eh     change       -0.2301518E-03 Eh
   gradient norm :     0.0066496 Eh/α   predicted    -0.1666776E-03 ( -27.58%)
   displ. norm   :     0.4902344 α      lambda       -0.3058049E-03
   maximum displ.:     0.2370132 α      in ANC's #10, #2, #14, ...

........................................................................
.............................. CYCLE   31 ..............................
........................................................................
   1   -204.4586730 -0.204459E+03  0.149E-01    0.13       0.0  T
   2   -204.4483261  0.103469E-01  0.216E-01    0.08       1.0  T
   3   -204.4502707 -0.194462E-02  0.204E-01    0.27       1.0  T
   4   -204.4463061  0.396465E-02  0.231E-01    0.20       1.0  T
   5   -204.4535769 -0.727085E-02  0.151E-01    0.23       1.0  T
   6   -204.4556807 -0.210379E-02  0.112E-01    0.20       1.0  T
   7   -204.4580964 -0.241567E-02  0.526E-02    0.15       1.0  T
   8   -204.4586899 -0.593515E-03  0.186E-02    0.14       1.0  T
   9   -204.4587372 -0.472444E-04  0.108E-02    0.12       1.0  T
  10   -204.4587576 -0.204289E-04  0.494E-03    0.13       2.1  T
  11   -204.4587634 -0.583339E-05  0.121E-03    0.13       8.5  T
  12   -204.4587636 -0.191691E-06  0.667E-04    0.13      15.5  T
  13   -204.4587635  0.749075E-07  0.738E-04    0.13      14.0  T
     SCC iter.                  ...        0 min,  4.722 sec
     gradient                   ...        0 min,  0.052 sec
 * total energy  :  -202.1483654 Eh     change       -0.2350394E-03 Eh
   gradient norm :     0.0066534 Eh/α   predicted    -0.1896525E-03 ( -19.31%)
   displ. norm   :     0.4305620 α      lambda       -0.2267373E-03
   maximum displ.:     0.2132811 α      in ANC's #10, #2, #5, ...

........................................................................
.............................. CYCLE   32 ..............................
........................................................................
   1   -204.4577926 -0.204458E+03  0.131E-01    0.14       0.0  T
   2   -204.4441976  0.135950E-01  0.241E-01    0.07       1.0  T
   3   -204.4518149 -0.761736E-02  0.171E-01    0.24       1.0  T
   4   -204.4512164  0.598517E-03  0.168E-01    0.21       1.0  T
   5   -204.4543682 -0.315177E-02  0.123E-01    0.20       1.0  T
   6   -204.4558884 -0.152024E-02  0.897E-02    0.18       1.0  T
   7   -204.4575775 -0.168904E-02  0.364E-02    0.14       1.0  T
   8   -204.4578693 -0.291824E-03  0.101E-02    0.13       1.0  T
   9   -204.4578855 -0.162340E-04  0.348E-03    0.13       3.0  T
  10   -204.4578856 -0.605651E-07  0.257E-03    0.13       4.0  T
  11   -204.4578871 -0.153539E-05  0.636E-04    0.13      16.2  T
     SCC iter.                  ...        0 min,  4.090 sec
     gradient                   ...        0 min,  0.101 sec
 * total energy  :  -202.1485382 Eh     change       -0.1727928E-03 Eh
   gradient norm :     0.0071455 Eh/α   predicted    -0.1343858E-03 ( -22.23%)
   displ. norm   :     0.3866357 α      lambda       -0.2152361E-03
   maximum displ.:     0.1964364 α      in ANC's #10, #2, #5, ...

........................................................................
.............................. CYCLE   33 ..............................
........................................................................
   1   -204.4582779 -0.204458E+03  0.117E-01    0.13       0.0  T
   2   -204.4514089  0.686902E-02  0.176E-01    0.09       1.0  T
   3   -204.4516152 -0.206371E-03  0.177E-01    0.25       1.0  T
   4   -204.4521218 -0.506577E-03  0.162E-01    0.21       1.0  T
   5   -204.4554000 -0.327821E-02  0.112E-01    0.19       1.0  T
   6   -204.4568388 -0.143882E-02  0.777E-02    0.17       1.0  T
   7   -204.4582938 -0.145499E-02  0.162E-02    0.13       1.0  T
   8   -204.4583321 -0.383162E-04  0.655E-03    0.13       1.6  T
   9   -204.4583379 -0.571585E-05  0.351E-03    0.13       2.9  T
  10   -204.4583391 -0.122333E-05  0.166E-03    0.13       6.2  T
  11   -204.4583396 -0.566425E-06  0.569E-04    0.13      18.1  T
     SCC iter.                  ...        0 min,  2.577 sec
     gradient                   ...        0 min,  0.130 sec
 * total energy  :  -202.1487090 Eh     change       -0.1707815E-03 Eh
   gradient norm :     0.0066907 Eh/α   predicted    -0.1237077E-03 ( -27.56%)
   displ. norm   :     0.4262851 α      lambda       -0.2598231E-03
   maximum displ.:     0.2180674 α      in ANC's #10, #2, #5, ...

........................................................................
.............................. CYCLE   34 ..............................
........................................................................
   1   -204.4603857 -0.204460E+03  0.125E-01    0.13       0.0  T
   2   -204.4516020  0.878367E-02  0.198E-01    0.08       1.0  T
   3   -204.4536232 -0.202119E-02  0.180E-01    0.25       1.0  T
   4   -204.4554044 -0.178121E-02  0.146E-01    0.21       1.0  T
   5   -204.4572698 -0.186535E-02  0.117E-01    0.19       1.0  T
   6   -204.4587897 -0.151995E-02  0.822E-02    0.17       1.0  T
   7   -204.4603633 -0.157363E-02  0.224E-02    0.14       1.0  T
   8   -204.4604535 -0.901319E-04  0.703E-03    0.13       1.5  T
   9   -204.4604612 -0.768673E-05  0.310E-03    0.13       3.3  T
  10   -204.4604614 -0.262612E-06  0.191E-03    0.13       5.4  T
  11   -204.4604622 -0.765984E-06  0.632E-04    0.13      16.3  T
     SCC iter.                  ...        0 min,  2.624 sec
     gradient                   ...        0 min,  0.126 sec
 * total energy  :  -202.1488992 Eh     change       -0.1901590E-03 Eh
   gradient norm :     0.0066285 Eh/α   predicted    -0.1535193E-03 ( -19.27%)
   displ. norm   :     0.4011361 α      lambda       -0.2222963E-03
   maximum displ.:     0.2045594 α      in ANC's #10, #5, #2, ...

........................................................................
.............................. CYCLE   35 ..............................
........................................................................
   1   -204.4602249 -0.204460E+03  0.116E-01    0.13       0.0  T
   2   -204.4601951  0.298108E-04  0.658E-02    0.13       1.0  T
   3   -204.4551922  0.500289E-02  0.148E-01    0.21       1.0  T
   4   -204.4600811 -0.488894E-02  0.278E-02    0.12       1.0  T
   5   -204.4594310  0.650131E-03  0.595E-02    0.15       1.0  T
   6   -204.4602287 -0.797676E-03  0.113E-02    0.13       1.0  T
   7   -204.4602437 -0.150865E-04  0.544E-03    0.13       1.9  T
   8   -204.4602493 -0.554490E-05  0.202E-03    0.13       5.1  T
   9   -204.4602498 -0.476259E-06  0.121E-03    0.13       8.5  T
  10   -204.4602500 -0.255947E-06  0.493E-04    0.13      20.9  T
     SCC iter.                  ...        0 min,  3.959 sec
     gradient                   ...        0 min,  0.057 sec
 * total energy  :  -202.1490388 Eh     change       -0.1396648E-03 Eh
   gradient norm :     0.0090766 Eh/α   predicted    -0.1290360E-03 (  -7.61%)
   displ. norm   :     0.3181190 α      lambda       -0.2175130E-03
   maximum displ.:     0.1425079 α      in ANC's #10, #5, #2, ...

........................................................................
.............................. CYCLE   36 ..............................
........................................................................
   1   -204.4631409 -0.204463E+03  0.895E-02    0.13       0.0  T
   2   -204.4618610  0.127986E-02  0.870E-02    0.11       1.0  T
   3   -204.4554365  0.642456E-02  0.185E-01    0.26       1.0  T
   4   -204.4602786 -0.484215E-02  0.108E-01    0.19       1.0  T
   5   -204.4619347 -0.165612E-02  0.721E-02    0.16       1.0  T
   6   -204.4628312 -0.896473E-03  0.368E-02    0.15       1.0  T
   7   -204.4630060 -0.174811E-03  0.255E-02    0.12       1.0  T
   8   -204.4631221 -0.116025E-03  0.132E-02    0.12       1.0  T
   9   -204.4631667 -0.446849E-04  0.145E-03    0.13       7.1  T
  10   -204.4631667  0.738237E-07  0.124E-03    0.13       8.3  T
  11   -204.4631669 -0.276538E-06  0.524E-04    0.13      19.7  T
     SCC iter.                  ...        0 min,  3.819 sec
     gradient                   ...        0 min,  0.101 sec
 * total energy  :  -202.1491802 Eh     change       -0.1413425E-03 Eh
   gradient norm :     0.0088794 Eh/α   predicted    -0.1197631E-03 ( -15.27%)
   displ. norm   :     0.3787979 α      lambda       -0.2638050E-03
   maximum displ.:     0.1793750 α      in ANC's #10, #5, #2, ...

........................................................................
.............................. CYCLE   37 ..............................
........................................................................
   1   -204.4601075 -0.204460E+03  0.104E-01    0.13       0.0  T
   2   -204.4599803  0.127197E-03  0.633E-02    0.14       1.0  T
   3   -204.3951238  0.648564E-01  0.509E-01    0.04       1.0  T
   4   -204.4564931 -0.613692E-01  0.127E-01    0.17       1.0  T
   5   -204.4600348 -0.354176E-02  0.233E-02    0.13       1.0  T
   6   -204.4601030 -0.681912E-04  0.129E-02    0.13       1.0  T
   7   -204.4601280 -0.249909E-04  0.579E-03    0.13       1.8  T
   8   -204.4601318 -0.376205E-05  0.238E-03    0.13       4.3  T
   9   -204.4601322 -0.461729E-06  0.106E-03    0.13       9.7  T
  10   -204.4601324 -0.162392E-06  0.445E-04    0.13      23.2  T
     SCC iter.                  ...        0 min,  3.589 sec
     gradient                   ...        0 min,  0.082 sec
 * total energy  :  -202.1493246 Eh     change       -0.1444670E-03 Eh
   gradient norm :     0.0095117 Eh/α   predicted    -0.1508380E-03 (   4.41%)
   displ. norm   :     0.3125650 α      lambda       -0.3291821E-03
   maximum displ.:     0.1279448 α      in ANC's #5, #9, #8, ...

........................................................................
.............................. CYCLE   38 ..............................
........................................................................
   1   -204.4628153 -0.204463E+03  0.905E-02    0.13       0.0  T
   2   -204.4609353  0.188005E-02  0.104E-01    0.16       1.0  T
   3   -204.4223374  0.385978E-01  0.399E-01    0.05       1.0  T
   4   -204.4496479 -0.273104E-01  0.241E-01    0.19       1.0  T
   5   -204.4618628 -0.122150E-01  0.663E-02    0.16       1.0  T
   6   -204.4623308 -0.467976E-03  0.469E-02    0.15       1.0  T
   7   -204.4627502 -0.419361E-03  0.234E-02    0.14       1.0  T
   8   -204.4628439 -0.936752E-04  0.115E-02    0.13       1.0  T
   9   -204.4628738 -0.299931E-04  0.336E-03    0.13       3.1  T
  10   -204.4628754 -0.156409E-05  0.110E-03    0.13       9.4  T
  11   -204.4628756 -0.170894E-06  0.556E-04    0.13      18.5  T
     SCC iter.                  ...        0 min,  3.366 sec
     gradient                   ...        0 min,  0.057 sec
 * total energy  :  -202.1494599 Eh     change       -0.1352494E-03 Eh
   gradient norm :     0.0079292 Eh/α   predicted    -0.1806756E-03 (  33.59%)
   displ. norm   :     0.3802941 α      lambda       -0.1951179E-03
   maximum displ.:     0.1776340 α      in ANC's #10, #5, #2, ...

........................................................................
.............................. CYCLE   39 ..............................
........................................................................
   1   -204.4587789 -0.204459E+03  0.111E-01    0.13       0.0  T
   2   -204.4549212  0.385765E-02  0.136E-01    0.09       1.0  T
   3   -204.4517142  0.320699E-02  0.181E-01    0.26       1.0  T
   4   -204.4479772  0.373699E-02  0.216E-01    0.20       1.0  T
   5   -204.4558900 -0.791279E-02  0.111E-01    0.19       1.0  T
   6   -204.4576102 -0.172017E-02  0.703E-02    0.16       1.0  T
   7   -204.4588154 -0.120515E-02  0.119E-02    0.13       1.0  T
   8   -204.4588163 -0.967747E-06  0.813E-03    0.13       1.3  T
   9   -204.4588303 -0.139902E-04  0.292E-03    0.13       3.5  T
  10   -204.4588312 -0.897509E-06  0.953E-04    0.13      10.8  T
  11   -204.4588313 -0.854231E-07  0.477E-04    0.13      21.6  T
     SCC iter.                  ...        0 min,  3.972 sec
     gradient                   ...        0 min,  0.162 sec
 * total energy  :  -202.1495709 Eh     change       -0.1110017E-03 Eh
   gradient norm :     0.0081982 Eh/α   predicted    -0.1116697E-03 (   0.60%)
   displ. norm   :     0.1940469 α      lambda       -0.2437056E-03
   maximum displ.:     0.0876436 α      in ANC's #5, #2, #6, ...

........................................................................
.............................. CYCLE   40 ..............................
........................................................................
   1   -204.4593074 -0.204459E+03  0.553E-02    0.13       0.0  T
   2   -204.4576025  0.170486E-02  0.865E-02    0.10       1.0  T
   3   -204.4567264  0.876093E-03  0.106E-01    0.18       1.0  T
   4   -204.4563563  0.370182E-03  0.116E-01    0.15       1.0  T
   5   -204.4589603 -0.260404E-02  0.396E-02    0.15       1.0  T
   6   -204.4592445 -0.284148E-03  0.191E-02    0.14       1.0  T
   7   -204.4593279 -0.834957E-04  0.497E-03    0.13       2.1  T
   8   -204.4593288 -0.824328E-06  0.304E-03    0.13       3.4  T
   9   -204.4593309 -0.212189E-05  0.101E-03    0.13      10.2  T
  10   -204.4593310 -0.147436E-06  0.406E-04    0.13      25.4  T
     SCC iter.                  ...        0 min,  1.504 sec
     gradient                   ...        0 min,  0.142 sec
 * total energy  :  -202.1497081 Eh     change       -0.1372466E-03 Eh
   gradient norm :     0.0069867 Eh/α   predicted    -0.1264426E-03 (  -7.87%)
   displ. norm   :     0.3483687 α      lambda       -0.1637205E-03
   maximum displ.:     0.1804893 α      in ANC's #5, #2, #6, ...

........................................................................
.............................. CYCLE   41 ..............................
........................................................................
   1   -204.4591762 -0.204459E+03  0.841E-02    0.13       0.0  T
   2   -204.4589867  0.189571E-03  0.561E-02    0.13       1.0  T
   3   -204.4418269  0.171598E-01  0.280E-01    0.11       1.0  T
   4   -204.4578634 -0.160365E-01  0.746E-02    0.16       1.0  T
   5   -204.4588507 -0.987348E-03  0.367E-02    0.12       1.0  T
   6   -204.4591577 -0.306946E-03  0.137E-02    0.13       1.0  T
   7   -204.4591896 -0.318762E-04  0.588E-03    0.13       1.8  T
   8   -204.4591946 -0.505534E-05  0.191E-03    0.13       5.4  T
   9   -204.4591945  0.641825E-07  0.141E-03    0.13       7.3  T
  10   -204.4591948 -0.300640E-06  0.691E-04    0.13      14.9  T
     SCC iter.                  ...        0 min,  2.213 sec
     gradient                   ...        0 min,  0.086 sec
 * total energy  :  -202.1498448 Eh     change       -0.1366617E-03 Eh
   gradient norm :     0.0069758 Eh/α   predicted    -0.9179808E-04 ( -32.83%)
   displ. norm   :     0.5262465 α      lambda       -0.2605157E-03
   maximum displ.:     0.2814449 α      in ANC's #5, #6, #2, ...

........................................................................
.............................. CYCLE   42 ..............................
........................................................................
   1   -204.4603142 -0.204460E+03  0.129E-01    0.13       0.0  T
   2   -204.4601021  0.212109E-03  0.783E-02    0.13       1.0  T
   3   -204.4149531  0.451490E-01  0.446E-01    0.12       1.0  T
   4   -204.4595129 -0.445598E-01  0.616E-02    0.15       1.0  T
   5   -204.4573369  0.217602E-02  0.106E-01    0.10       1.0  T
   6   -204.4602515 -0.291466E-02  0.225E-02    0.13       1.0  T
   7   -204.4603216 -0.701095E-04  0.120E-02    0.13       1.0  T
   8   -204.4603454 -0.237963E-04  0.436E-03    0.13       2.4  T
   9   -204.4603460 -0.568019E-06  0.293E-03    0.13       3.5  T
  10   -204.4603473 -0.130265E-05  0.146E-03    0.13       7.1  T
     SCC iter.                  ...        0 min,  3.388 sec
     gradient                   ...        0 min,  0.065 sec
 * total energy  :  -202.1500430 Eh     change       -0.1982005E-03 Eh
   gradient norm :     0.0058558 Eh/α   predicted    -0.1663360E-03 ( -16.08%)
   displ. norm   :     0.6270148 α      lambda       -0.2230734E-03
   maximum displ.:     0.3371180 α      in ANC's #5, #2, #6, ...
 * RMSD in coord.:     0.6954169 α      energy gain  -0.5536325E-02 Eh

generating ANC from model Hessian ...
Using Lindh-Hessian (1995)
 Shifting diagonal of input Hessian by   4.998690787503916E-003
 Lowest  eigenvalues of input Hessian
   -0.000000   -0.000000    0.000000    0.000000    0.000000    0.000000
    0.005000    0.005017    0.005040    0.005085    0.005139    0.005283
    0.005342    0.005417    0.005570    0.005717    0.005916    0.006055
 Highest eigenvalues
    2.056599    2.068757    2.079357    2.142154    2.227353    2.236231
 

........................................................................
.............................. CYCLE   43 ..............................
........................................................................
   1   -204.4591875 -0.204459E+03  0.148E-01    0.13       0.0  T
   2   -204.4590322  0.155318E-03  0.877E-02    0.13       1.0  T
   3   -204.4200994  0.389328E-01  0.412E-01    0.17       1.0  T
   4   -204.4571563 -0.370569E-01  0.940E-02    0.17       1.0  T
   5   -204.4579942 -0.837897E-03  0.692E-02    0.11       1.0  T
   6   -204.4590958 -0.110162E-02  0.258E-02    0.14       1.0  T
   7   -204.4592013 -0.105508E-03  0.115E-02    0.13       1.0  T
   8   -204.4592238 -0.224298E-04  0.360E-03    0.13       2.9  T
   9   -204.4592239 -0.116122E-06  0.237E-03    0.13       4.4  T
  10   -204.4592245 -0.623949E-06  0.142E-03    0.13       7.3  T
  11   -204.4592247 -0.163362E-06  0.701E-04    0.13      14.7  T
  12   -204.4592247 -0.837031E-07  0.231E-04    0.13      44.6  T
     SCC iter.                  ...        0 min,  1.774 sec
     gradient                   ...        0 min,  0.094 sec
 * total energy  :  -202.1502191 Eh     change       -0.1761205E-03 Eh
   gradient norm :     0.0064920 Eh/α   predicted     0.0000000E+00 (-100.00%)
   displ. norm   :     0.0909315 α      lambda       -0.1206025E-03
   maximum displ.:     0.0337729 α      in ANC's #5, #6, #15, ...

........................................................................
.............................. CYCLE   44 ..............................
........................................................................
   1   -204.4615593 -0.204462E+03  0.385E-02    0.13       0.0  T
   2   -204.4615286  0.306848E-04  0.232E-02    0.13       1.0  T
   3   -204.4580982  0.343033E-02  0.117E-01    0.10       1.0  T
   4   -204.4604379 -0.233967E-02  0.695E-02    0.15       1.0  T
   5   -204.4615561 -0.111815E-02  0.674E-03    0.13       1.5  T
   6   -204.4615621 -0.604181E-05  0.377E-03    0.13       2.7  T
   7   -204.4615625 -0.349522E-06  0.229E-03    0.13       4.5  T
   8   -204.4615632 -0.726006E-06  0.849E-04    0.13      12.1  T
     SCC iter.                  ...        0 min,  0.404 sec
     gradient                   ...        0 min,  0.104 sec
 * total energy  :  -202.1503162 Eh     change       -0.9708238E-04 Eh
   gradient norm :     0.0033158 Eh/α   predicted    -0.6081693E-04 ( -37.36%)
   displ. norm   :     0.1134878 α      lambda       -0.9753085E-04
   maximum displ.:     0.0363400 α      in ANC's #5, #6, #17, ...

........................................................................
.............................. CYCLE   45 ..............................
........................................................................
   1   -204.4631727 -0.204463E+03  0.375E-02    0.13       0.0  T
   2   -204.4630869  0.857814E-04  0.285E-02    0.14       1.0  T
   3   -204.4546581  0.842877E-02  0.181E-01    0.08       1.0  T
   4   -204.4618308 -0.717266E-02  0.786E-02    0.15       1.0  T
   5   -204.4631377 -0.130689E-02  0.132E-02    0.14       1.0  T
[...]
       183                         -0.3033533              -8.2547
       184                         -0.3005611              -8.1787
       185                         -0.2723197              -7.4102
       186                         -0.2638793              -7.1805
       187                         -0.2585883              -7.0365
       188                         -0.2569434              -6.9918
       ...                                ...                  ...
       324                          0.7173182              19.5192
      -------------------------------------------------------------
                  HL-Gap            0.0049128 Eh            0.1337 eV
             Fermi-level           -0.3760812 Eh          -10.2337 eV

     #   Z        covCN         q      C6AA      α(0)
     1   6 C      2.938    -0.029    28.722     8.789
     2  16 S      2.381     0.122   136.154    19.639
     3   6 C      2.985     0.024    27.471     8.598
     4   6 C      3.155    -0.046    28.835     8.781
     5   6 C      3.167    -0.035    28.498     8.723
     6   6 C      3.333     0.493    17.237     6.581
     7   9 F      0.792    -0.206    11.302     3.971
     8   9 F      0.791    -0.194    11.175     3.949
     9   9 F      0.791    -0.195    11.184     3.950
    10   6 C      3.332     0.494    17.235     6.584
    11   9 F      0.792    -0.206    11.299     3.971
    12   9 F      0.792    -0.191    11.144     3.943
    13   9 F      0.791    -0.204    11.277     3.967
    14   6 C      3.078    -0.001    27.957     8.669
    15   6 C      3.168     0.072    26.046     8.339
    16   7 N      1.857    -0.205    26.298     7.601
    17   6 C      3.268     0.088    24.862     8.044
    18   6 C      3.217    -0.022    27.834     8.581
    19   6 C      2.975     0.087    26.054     8.373
    20  16 S      1.078    -0.261   150.342    20.736
    21   6 C      3.218    -0.030    28.025     8.609
    22   6 C      3.271     0.095    24.676     8.008
    23   7 N      1.855    -0.215    26.534     7.635
    24   6 C      3.177     0.075    25.934     8.315
    25   6 C      3.043     0.002    27.930     8.668
    26   6 C      2.967     0.021    27.529     8.606
    27   6 C      2.914    -0.022    28.566     8.764
    28   6 C      3.078     0.008    27.764     8.639
    29   6 C      3.012     0.005    27.904     8.665
    30   6 C      3.854    -0.027    21.025     6.522
    31   6 C      3.733     0.023    20.267     6.426
    32   7 N      2.629    -0.329    28.461     7.923
    33   6 C      3.734     0.018    20.364     6.441
    34   7 N      2.630    -0.329    28.461     7.923
    35   6 C      3.076     0.006    27.814     8.647
    36   6 C      2.905     0.001    28.014     8.679
    37   6 C      3.867    -0.010    20.716     6.472
    38   6 C      2.912    -0.030    28.750     8.792
    39   6 C      2.896    -0.027    28.679     8.780
    40   6 C      3.046     0.001    27.963     8.673
    41   6 C      3.063    -0.004    28.054     8.686
    42   6 C      2.904    -0.025    28.627     8.773
    43   6 C      2.919    -0.033    28.823     8.804
    44   6 C      2.904    -0.023    28.589     8.767
    45   6 C      2.891    -0.035    28.861     8.808
    46   6 C      3.037     0.009    27.790     8.646
    47   6 C      3.182     0.072    25.967     8.318
    48   7 N      1.853    -0.213    26.481     7.627
    49   6 C      3.278     0.094    24.599     7.985
    50   6 C      3.206    -0.027    28.064     8.628
    51   6 C      2.973     0.089    26.013     8.366
    52  16 S      1.069    -0.259   150.218    20.728
    53   6 C      3.217    -0.020    27.801     8.577
    54   6 C      3.267     0.091    24.797     8.035
    55   7 N      1.856    -0.203    26.246     7.593
    56   6 C      3.170     0.074    25.987     8.328
    57   6 C      3.076     0.001    27.932     8.665
    58   6 C      2.986     0.023    27.479     8.599
    59  16 S      2.371     0.127   135.987    19.627
    60   6 C      2.938    -0.028    28.699     8.786
    61   6 C      3.167    -0.034    28.490     8.722
    62   6 C      3.155    -0.046    28.819     8.778
    63   6 C      3.332     0.494    17.235     6.584
    64   9 F      0.792    -0.206    11.302     3.971
    65   9 F      0.792    -0.190    11.137     3.942
    66   9 F      0.791    -0.203    11.271     3.966
    67   6 C      3.333     0.493    17.237     6.581
    68   9 F      0.792    -0.206    11.295     3.970
    69   9 F      0.791    -0.194    11.174     3.949
    70   9 F      0.791    -0.195    11.179     3.949
    71   1 H      0.926     0.089     1.892     2.151
    72   1 H      0.926     0.071     2.071     2.250
    73   1 H      0.926     0.058     2.228     2.334
    74   1 H      0.926     0.076     2.020     2.222
    75   1 H      0.924     0.049     2.329     2.387
    76   1 H      0.923     0.012     2.854     2.642
    77   1 H      0.924     0.043     2.410     2.428
    78   1 H      0.860     0.144     1.442     1.881
    79   1 H      0.860     0.147     1.423     1.868
    80   1 H      0.924     0.044     2.402     2.424
    81   1 H      0.924     0.040     2.449     2.447
    82   1 H      0.860     0.145     1.438     1.879
    83   1 H      0.860     0.151     1.394     1.849
    84   1 H      0.926     0.056     2.251     2.346
    85   1 H      0.923     0.100     1.785     2.090
    86   1 H      0.926     0.054     2.271     2.356
    87   1 H      0.926     0.049     2.330     2.387
    88   1 H      0.926     0.042     2.421     2.433
    89   1 H      0.926     0.041     2.430     2.438
    90   1 H      0.926     0.081     1.970     2.195
    91   1 H      0.925     0.047     2.357     2.401
    92   1 H      0.926     0.059     2.213     2.326
    93   1 H      0.926     0.074     2.046     2.237
    94   1 H      0.926     0.090     1.877     2.142

 Mol. C6AA /au·bohr⁶  :     157417.158521
 Mol. C8AA /au·bohr⁸  :    4308542.453718
 Mol. α(0) /au        :        623.848332


Wiberg/Mayer (AO) data.
largest (>0.10) Wiberg bond orders for each atom
          total WBO             WBO to atom ...
     1  C   3.947        C    5 1.545    S    2 1.254    H   71 0.964
     2  S   2.728        C    1 1.254    C    3 1.170
     3  C   3.959        C    4 1.458    S    2 1.170    C   14 1.143
     4  C   3.947        C    3 1.458    C    5 1.267    C   10 0.955
     5  C   3.963        C    1 1.545    C    4 1.267    C    6 0.951
     6  C   3.839        F    8 0.956    C    5 0.951    F    9 0.951    F    7 0.945
     7  F   1.068        C    6 0.945
     8  F   1.086        C    6 0.956
     9  F   1.084        C    6 0.951
    10  C   3.837        F   12 0.963    C    4 0.955    F   11 0.943    F   13 0.939
    11  F   1.070        C   10 0.943
    12  F   1.090        C   10 0.963
    13  F   1.074        C   10 0.939
    14  C   3.952        C   18 1.472    C    3 1.143    C   15 1.107
    15  C   3.846        N   16 1.613    C   14 1.107    H   72 0.963
    16  N   3.065        C   15 1.613    C   17 1.223
    17  C   3.905        C   22 1.389    N   16 1.223    C   18 1.056
    18  C   3.950        C   14 1.472    C   19 1.128    C   17 1.056
    19  C   3.964        S   20 1.553    C   21 1.171    C   18 1.128
    20  S   2.118        C   19 1.553
    21  C   3.921        C   25 1.441    C   19 1.171    C   22 1.047
    22  C   3.930        C   17 1.389    N   23 1.227    C   21 1.047
    23  N   3.044        C   24 1.593    C   22 1.227
    24  C   3.868        N   23 1.593    C   25 1.128    H   73 0.964
    25  C   3.944        C   21 1.441    C   26 1.134    C   24 1.128
    26  C   3.947        C   27 1.445    C   43 1.208    C   25 1.134
    27  C   3.936        C   26 1.445    C   28 1.287    H   74 0.952
    28  C   3.971        C   29 1.378    C   27 1.287    C   41 1.111
    29  C   3.840        C   28 1.378    C   35 1.142    C   30 1.036
    30  C   3.985        C   29 1.036    C   33 0.964    H   75 0.959    C   31 0.949
    31  C   3.970        N   32 1.036    H   77 0.974    H   76 0.968    C   30 0.949
    32  N   3.027        C   31 1.036    H   78 0.964    H   79 0.963
    33  C   3.970        N   34 1.033    H   81 0.974    C   30 0.964    H   80 0.950
    34  N   3.019        C   33 1.033    H   82 0.961    H   83 0.961
    35  C   3.984        C   36 1.653    C   29 1.142    C   40 1.061
    36  C   3.920        C   35 1.653    C   37 1.029    H   84 0.960
    37  C   3.989        C   38 1.032    C   36 1.029    C   44 0.966    H   85 0.880
    38  C   3.887        C   39 1.697    C   37 1.032    H   86 0.968
    39  C   3.981        C   38 1.697    C   40 1.226    H   87 0.962
    40  C   3.889        C   41 1.386    C   39 1.226    C   35 1.061
    41  C   3.962        C   40 1.386    C   42 1.245    C   28 1.111
    42  C   3.960        C   43 1.606    C   41 1.245    H   88 0.966
    43  C   3.924        C   42 1.606    C   26 1.208    H   89 0.968
    44  C   3.921        C   45 1.786    C   37 0.966    H   90 0.950
    45  C   3.985        C   44 1.786    C   46 1.148    H   91 0.958
    46  C   3.947        C   50 1.459    C   45 1.148    C   47 1.121
    47  C   3.845        N   48 1.596    C   46 1.121    H   92 0.965
    48  N   3.047        C   47 1.596    C   49 1.227
    49  C   3.915        C   54 1.398    N   48 1.227    C   50 1.038
    50  C   3.938        C   46 1.459    C   51 1.159    C   49 1.038
    51  C   3.968        S   52 1.567    C   50 1.159    C   53 1.139
    52  S   2.088        C   51 1.567
    53  C   3.946        C   57 1.474    C   51 1.139    C   54 1.047
    54  C   3.914        C   49 1.398    N   55 1.224    C   53 1.047
    55  N   3.060        C   56 1.609    C   54 1.224
    56  C   3.845        N   55 1.609    C   57 1.108    H   93 0.963
    57  C   3.946        C   53 1.474    C   58 1.139    C   56 1.108
    58  C   3.960        C   62 1.460    S   59 1.171    C   57 1.139
    59  S   2.727        C   60 1.256    C   58 1.171
    60  C   3.946        C   61 1.546    S   59 1.256    H   94 0.964
    61  C   3.963        C   60 1.546    C   62 1.267    C   67 0.951
    62  C   3.946        C   58 1.460    C   61 1.267    C   63 0.955
    63  C   3.838        F   65 0.963    C   62 0.955    F   64 0.943    F   66 0.940
    64  F   1.070        C   63 0.943
    65  F   1.091        C   63 0.963
    66  F   1.074        C   63 0.940
    67  C   3.840        F   69 0.956    F   70 0.951    C   61 0.951    F   68 0.945
    68  F   1.069        C   67 0.945
    69  F   1.086        C   67 0.956
    70  F   1.084        C   67 0.951
    71  H   0.991        C    1 0.964
    72  H   0.994        C   15 0.963
    73  H   0.996        C   24 0.964
    74  H   0.994        C   27 0.952
    75  H   0.996        C   30 0.959
    76  H   0.997        C   31 0.968
    77  H   0.996        C   31 0.974
    78  H   0.979        N   32 0.964
    79  H   0.977        N   32 0.963
    80  H   0.995        C   33 0.950
    81  H   0.997        C   33 0.974
    82  H   0.979        N   34 0.961
    83  H   0.976        N   34 0.961
    84  H   0.996        C   36 0.960
    85  H   0.978        C   37 0.880
    86  H   0.996        C   38 0.968
    87  H   0.996        C   39 0.962
    88  H   0.997        C   42 0.966
    89  H   0.998        C   43 0.968
    90  H   0.992        C   44 0.950
    91  H   0.996        C   45 0.958
    92  H   0.996        C   47 0.965
    93  H   0.994        C   56 0.963
    94  H   0.991        C   60 0.964

molecular dipole:
                 x           y           z       tot (Debye)
 q only:       -1.367      -1.491       0.116
   full:       -0.985      -1.148      -0.023       3.845
molecular quadrupole (traceless):
                xx          xy          yy          xz          yz          zz
 q only:       87.103      66.937     107.562    -114.523      92.653    -194.665
  q+dip:       52.039      67.495      94.135    -123.662      84.508    -146.174
   full:       48.871      74.396     104.235    -123.150      86.651    -153.106

           -------------------------------------------------
          |                Geometry Summary                 |
           -------------------------------------------------

      molecular mass/u    :     1040.9786000
   center of mass at/Å    :       -6.4356237      -1.5722334      -7.7249204
  moments of inertia/u·Å² :        0.6706505E+04   0.8003822E+05   0.8389904E+05
rotational constants/cm⁻¹ :        0.2513624E-02   0.2106198E-03   0.2009276E-03

 * 86 selected distances

     #   Z        #   Z                                     value/Å
     1   6 C      2  16 S                                 1.7001050
     2  16 S      3   6 C                                 1.7343390 (max)
     3   6 C      4   6 C                                 1.3842242
     1   6 C      5   6 C                                 1.3674873
     4   6 C      5   6 C                                 1.4182213
     6   6 C      7   9 F                                 1.3444400
     6   6 C      8   9 F                                 1.3373085
     6   6 C      9   9 F                                 1.3404479
     4   6 C     10   6 C                                 1.4978551
    10   6 C     11   9 F                                 1.3451137
    10   6 C     12   9 F                                 1.3329278
    10   6 C     13   9 F                                 1.3468709
     3   6 C     14   6 C                                 1.4308433
    15   6 C     16   7 N                                 1.3015718
    16   7 N     17   6 C                                 1.3580780
    14   6 C     18   6 C                                 1.3763124
    18   6 C     19   6 C                                 1.4465961
    19   6 C     20  16 S                                 1.6457876
    19   6 C     21   6 C                                 1.4345316
    17   6 C     22   6 C                                 1.3745673
    22   6 C     23   7 N                                 1.3587796
    23   7 N     24   6 C                                 1.3057003
    21   6 C     25   6 C                                 1.3803785
    25   6 C     26   6 C                                 1.4363835
    26   6 C     27   6 C                                 1.3838144
    27   6 C     28   6 C                                 1.4045699
    28   6 C     29   6 C                                 1.3986905
    29   6 C     30   6 C                                 1.4871300
    31   6 C     32   7 N                                 1.4478213
    33   6 C     34   7 N                                 1.4493767
    35   6 C     36   6 C                                 1.3473266
    38   6 C     39   6 C                                 1.3475915
    39   6 C     40   6 C                                 1.4133260
    40   6 C     41   6 C                                 1.3854759
    41   6 C     42   6 C                                 1.4108529
    26   6 C     43   6 C                                 1.4278734
    42   6 C     43   6 C                                 1.3599770
    44   6 C     45   6 C                                 1.3363151
    45   6 C     46   6 C                                 1.4322132
    47   6 C     48   7 N                                 1.3046787
    48   7 N     49   6 C                                 1.3578093
    46   6 C     50   6 C                                 1.3789664
    50   6 C     51   6 C                                 1.4398365
    51   6 C     52  16 S                                 1.6459699
    51   6 C     53   6 C                                 1.4440376
    49   6 C     54   6 C                                 1.3723976
    54   6 C     55   7 N                                 1.3575339
    55   7 N     56   6 C                                 1.3018441
    53   6 C     57   6 C                                 1.3758584
    57   6 C     58   6 C                                 1.4316636
    58   6 C     59  16 S                                 1.7338268
    59  16 S     60   6 C                                 1.7002185
    60   6 C     61   6 C                                 1.3673737
    58   6 C     62   6 C                                 1.3837865
    61   6 C     62   6 C                                 1.4182306
    62   6 C     63   6 C                                 1.4981973
    63   6 C     64   9 F                                 1.3453576
    63   6 C     65   9 F                                 1.3328387
    63   6 C     66   9 F                                 1.3464851
    67   6 C     68   9 F                                 1.3441116
    67   6 C     69   9 F                                 1.3375187
    67   6 C     70   9 F                                 1.3402247
     1   6 C     71   1 H                                 1.0719549
    15   6 C     72   1 H                                 1.0742962
    24   6 C     73   1 H                                 1.0764173
    27   6 C     74   1 H                                 1.0766054
    30   6 C     75   1 H                                 1.0939124
    31   6 C     76   1 H                                 1.1023298
    31   6 C     77   1 H                                 1.0925369
    32   7 N     78   1 H                                 1.0134661
    32   7 N     79   1 H                                 1.0120950 (min)
    33   6 C     80   1 H                                 1.0973565
    33   6 C     81   1 H                                 1.0935258
    34   7 N     82   1 H                                 1.0152107
    34   7 N     83   1 H                                 1.0133909
    36   6 C     84   1 H                                 1.0809978
    37   6 C     85   1 H                                 1.1036056
    38   6 C     86   1 H                                 1.0789874
    39   6 C     87   1 H                                 1.0797233
    42   6 C     88   1 H                                 1.0796445
    43   6 C     89   1 H                                 1.0794563
    44   6 C     90   1 H                                 1.0794770
    45   6 C     91   1 H                                 1.0839648
    47   6 C     92   1 H                                 1.0765772
    56   6 C     93   1 H                                 1.0746372
    60   6 C     94   1 H                                 1.0720343

 * 6 distinct bonds (by element types)

   Z      Z             #   av. dist./Å        max./Å        min./Å
   1 H    6 C          20     1.0834020     1.1036056     1.0719549
   6 C    6 C          34     1.4056737     1.4981973     1.3363151
   1 H    7 N           4     1.0135407     1.0152107     1.0120950
   6 C    7 N          10     1.3543194     1.4493767     1.3015718
   6 C    9 F          12     1.3411371     1.3468709     1.3328387
   6 C   16 S           6     1.6933745     1.7343390     1.6457876


optimized geometry written to: xtbopt.xyz


           -------------------------------------------------
          | TOTAL ENERGY             -202.152568226271 Eh   |
          | GRADIENT NORM               0.000410375741 Eh/α |
          | HOMO-LUMO GAP               0.133684928244 eV   |
           -------------------------------------------------

------------------------------------------------------------------------
 * finished run on 2021/05/26 at 09:40:39.585     
------------------------------------------------------------------------
 total:
 * wall-time:     0 d,  0 h,  6 min, 48.005 sec
 *  cpu-time:     0 d,  0 h, 43 min,  5.939 sec
 * ratio c/w:     6.338 speedup
 SCF:
 * wall-time:     0 d,  0 h,  0 min,  6.083 sec
 *  cpu-time:     0 d,  0 h,  0 min, 38.086 sec
 * ratio c/w:     6.261 speedup
 ANC optimizer:
 * wall-time:     0 d,  0 h,  6 min, 41.758 sec
 *  cpu-time:     0 d,  0 h, 42 min, 27.158 sec
 * ratio c/w:     6.340 speedup

