      -----------------------------------------------------------      
     |                   =====================                   |     
     |                           x T B                           |     
     |                   =====================                   |     
     |                         S. Grimme                         |     
     |          Mulliken Center for Theoretical Chemistry        |     
     |                    University of Bonn                     |     
     |                Version 6.2 RC2 (SAW190805)                |     
      -----------------------------------------------------------      

   This program is distributed in the hope that it will be useful,
   but WITHOUT ANY WARRANTY; without even the implied warranty of
   MERCHANTABILITY or FITNESS FOR A PARTICULAR PURPOSE.
   
   FOR NON-COMMERCIAL, ACADEMIA USE ONLY.
   
   Cite this work as:
   * S. Grimme, C. Bannwarth, P. Shushkov, J. Chem. Theory Comput., 2017,
     13, 1989-2009. DOI: 10.1021/acs.jctc.7b00118
   * C. Bannwarth, S. Ehlert and S. Grimme., J. Chem. Theory Comput., 2019,
     15, 1652-1671. DOI: 10.1021/acs.jctc.8b01176
   * P. Pracht, E. Caldeweyher, S. Ehlert, S. Grimme, ChemRxiv, 2019, preprint.
     DOI: 10.26434/chemrxiv.8326202.v1
   
   for DFT-D4:
   * E. Caldeweyher, C. Bannwarth and S. Grimme, J. Chem. Phys., 2017,
     147, 034112. DOI: 10.1063/1.4993215
   * E. Caldeweyher, S. Ehlert, A. Hansen, H. Neugebauer, S. Spicher,
     C. Bannwarth and S. Grimme, J. Chem. Phys., 2019, 150, 154122.
     DOI: 10.1063/1.5090222
   
   for sTDA-xTB:
   * S. Grimme and C. Bannwarth, J. Chem. Phys., 2016, 145, 054103.
     DOI: 10.1063/1.4959605
   
   in the mass-spec context:
   * V. Asgeirsson, C. Bauer and S. Grimme, Chem. Sci., 2017, 8, 4879.
     DOI: 10.1039/c7sc00601b
   
   for metadynamics refer to:
   * S. Grimme, J. Chem. Theory Comput., 2019, 155, 2847-2862
     DOI: 10.1021/acs.jctc.9b00143
   
   with help from (in alphabetical order)
   C. Bannwarth, F. Bohle, G. Brandenburg, E. Caldeweyher, M. Checinski,
   S. Dohm, S. Ehlert, S. Ehrlich, F. März, H. Neugebauer, J. Pisarek,
   P. Pracht, P. Shushkov, and S. Spicher.
   
 * started run on 2021/05/25 at 19:01:16.783     

           -------------------------------------------------
          |                Calculation Setup                |
           -------------------------------------------------

          program call               : /ihome/ghutchison/geoffh/xtb/xtb /ihome/ghutchison/blp62/GA/running_GA/more_units/generations/64/52_644_113_644_52.xyz -opt
          hostname                   : smp-n107
          coordinate file            : /ihome/ghutchison/blp62/GA/running_GA/more_units/generations/64/52_644_113_644_52.xyz
          omp threads                :                    12
          number of atoms            :                    87
          number of electrons        :                   330
          charge                     :                     0
          spin                       :                   0.0
          first test random number   :      0.41986377848704


########################################################################
# WARNING! Please study the warnings concerning your input carefully
#  - XTBPATH is not set, using XTBHOME instead
#  - the use of '-opt' is discouraged, please use '--opt' next time
########################################################################

           ------------------------------------------------- 
          |                 G F N 2 - x T B                 |
          | Geometry, Frequencies, Noncovalent interactions |
          |            JCTC 2019 parametrisation            |
           ------------------------------------------------- 
             KAB for C  - Si     :                1.0500
             KAB for H  - Pd     :                0.9500
             k(s)              :                1.8500
             k(p)              :                2.2300
             k(d)              :                2.2300
             k(f)              :                2.0000
             kEN (H0ij)        :               -2.0000
             D4 a1             :                0.5200
             D4 a2             :                5.0000
             D4 s6             :                1.0000
             D4 s8             :                2.7000
             D4 s9             :                5.0000
             alphaj            :                2.0000

  Z AO/shell   Hii/eV     exponent
  1     Wed Apr 25 08:07:45 CEST 2018   EN: 2.200 GM2: 0.406  GM3: 0.0800  RAES: 1.40
     1s    -10.707211    1.230000
  6     Wed Apr 25 08:07:45 CEST 2018   EN: 2.550 GM2: 0.538  GM3: 0.1500  RAES: 3.00
     2s    -13.970922    2.096432
     2p    -10.063292    1.800000
  7     Wed Apr 25 08:07:45 CEST 2018   EN: 3.040 GM2: 0.461  GM3:-0.0640  RAES: 1.90
     2s    -16.686243    2.339881
     2p    -12.523956    2.014332
  8     Wed Apr 25 08:07:45 CEST 2018   EN: 3.440 GM2: 0.452  GM3:-0.0517  RAES: 1.80
     2s    -20.229985    2.439742
     2p    -15.503117    2.137023
 16     Tue Apr 24 11:44:34 CEST 2018   EN: 2.580 GM2: 0.340  GM3:-0.0502  RAES: 3.10
     3s    -20.029654    1.981333
     3p    -11.377694    2.025643
     3d     -0.420282    1.702555

           ------------------------------------------------- 
          |        Self-Consistent Charge Iterations        |
           ------------------------------------------------- 

          ...................................................
          :                      SETUP                      :
          :.................................................:
          :  # basis functions                 327          :
          :  # atomic orbitals                 323          :
          :  # shells                          163          :
          :  # electrons                       330          :
          :  max. iterations                   250          :
          :  Hamiltonian                  GFN2-xTB          :
          :  restarted?                      false          :
          :  GBSA solvation                  false          :
          :  PC potential                    false          :
          :  electronic temp.          300.0000000     K    :
          :  accuracy                    1.0000000          :
          :  -> integral cutoff          0.2500000E+02      :
          :  -> integral neglect         0.1000000E-07      :
          :  -> SCF convergence          0.1000000E-05 Eh   :
          :  -> wf. convergence          0.1000000E-03 e    :
          :  Broyden damping             0.4000000          :
          ...................................................

 iter      E             dE          RMSdq      gap      omega  full diag
   1   -184.9946290 -0.184995E+03  0.566E+00    0.79       0.0  T
   2   -185.0743008 -0.796718E-01  0.362E+00    0.05       1.0  T
   3   -185.0344197  0.398812E-01  0.264E+00    0.26       1.0  T
   4   -184.5367750  0.497645E+00  0.391E+00    0.34       1.0  T
   5   -185.3284813 -0.791706E+00  0.886E-01    0.46       1.0  T
   6   -185.2723973  0.560840E-01  0.123E+00    0.04       1.0  T
   7   -185.3549117 -0.825144E-01  0.340E-01    0.10       1.0  T
   8   -185.3610114 -0.609964E-02  0.296E-01    0.19       1.0  T
   9   -185.3639142 -0.290283E-02  0.200E-01    0.20       1.0  T
  10   -185.3644371 -0.522870E-03  0.149E-01    0.20       1.0  T
  11   -185.3648752 -0.438130E-03  0.919E-02    0.15       1.0  T
  12   -185.3649907 -0.115506E-03  0.781E-02    0.16       1.0  T
  13   -185.3649859  0.473841E-05  0.738E-02    0.15       1.0  T
  14   -185.3652174 -0.231450E-03  0.416E-02    0.16       1.0  T
  15   -185.3652503 -0.328982E-04  0.316E-02    0.16       1.0  T
  16   -185.3652828 -0.324728E-04  0.195E-02    0.16       1.0  T
  17   -185.3652998 -0.170152E-04  0.644E-03    0.15       1.7  T
  18   -185.3653010 -0.119296E-05  0.351E-03    0.15       3.1  T
  19   -185.3653013 -0.326144E-06  0.209E-03    0.15       5.1  T
  20   -185.3653015 -0.201025E-06  0.534E-04    0.15      20.1  T
  21   -185.3653015  0.827805E-08  0.507E-04    0.15      21.2  T

   *** convergence criteria satisfied after 21 iterations ***

         #    Occupation            Energy/Eh            Energy/eV
      -------------------------------------------------------------
         1        2.0000           -0.7761227             -21.1194
       ...           ...                  ...                  ...
       159        2.0000           -0.4183600             -11.3842
       160        2.0000           -0.4164602             -11.3325
       161        2.0000           -0.4110188             -11.1844
       162        2.0000           -0.4066197             -11.0647
       163        2.0000           -0.4063535             -11.0574
       164        1.9529           -0.3883359             -10.5672
       165        1.9225           -0.3878473             -10.5539 (HOMO)
       166        0.1235           -0.3822112             -10.4005 (LUMO)
       167        0.0011           -0.3776460             -10.2763
       168                         -0.3585734              -9.7573
       169                         -0.3519006              -9.5757
       170                         -0.3391341              -9.2283
       ...                                ...                  ...
       323                          1.1028737              30.0107
      -------------------------------------------------------------
                  HL-Gap            0.0056361 Eh            0.1534 eV
             Fermi-level           -0.3847964 Eh          -10.4708 eV

 SCC (total)                   0 d,  0 h,  0 min,  0.793 sec
 SCC setup                      ...        0 min,  0.002 sec (  0.285%)
 Dispersion                     ...        0 min,  0.005 sec (  0.670%)
 integral evaluation            ...        0 min,  0.030 sec (  3.759%)
 zeroth order Hamiltonian       ...        0 min,  0.001 sec (  0.160%)
 iterations                     ...        0 min,  0.723 sec ( 91.203%)
 molecular gradient             ...        0 min,  0.030 sec (  3.746%)
 printout                       ...        0 min,  0.001 sec (  0.159%)

         :::::::::::::::::::::::::::::::::::::::::::::::::::::
         ::                     SUMMARY                     ::
         :::::::::::::::::::::::::::::::::::::::::::::::::::::
         :: total energy            -182.500275471080 Eh    ::
         :: gradient norm              0.255527317439 Eh/a0 ::
         :: HOMO-LUMO gap              0.153365381463 eV    ::
         ::.................................................::
         :: SCC energy              -185.365301496923 Eh    ::
         :: -> isotropic ES            0.194114619780 Eh    ::
         :: -> anisotropic ES          0.006299547790 Eh    ::
         :: -> anisotropic XC          0.136668460129 Eh    ::
         :: -> dispersion             -0.147631168566 Eh    ::
         :: repulsion energy           2.863883906984 Eh    ::
         :: add. restraining           0.000000000000 Eh    ::
         :::::::::::::::::::::::::::::::::::::::::::::::::::::

      ----------------------------------------------------------- 
     |                   =====================                   |
     |                        A N C O P T                        |
     |                   =====================                   |
     |               Approximate Normal Coordinate               |
     |                Rational Function Optimizer                |
      ----------------------------------------------------------- 

          ...................................................
          :                      SETUP                      :
          :.................................................:
          :   optimization level            normal          :
          :   max. optcycles                   261          :
          :   ANC micro-cycles                  20          :
          :   degrees of freedom               255          :
          :.................................................:
          :   RF solver                   davidson          :
          :   input Hessian                  false          :
          :   write xtbopt.log                true          :
          :   linear?                        false          :
          :   energy convergence         0.5000000E-05 Eh   :
          :   grad. convergence          0.1000000E-02 Eh/α :
          :   maximium RF displ.         2.0000000          :
          :   Hlow (freq-cutoff)         0.5000000E-02      :
          :   Hmax (freq-cutoff)         5.0000000          :
          :   S6 in model hess.         20.0000000          :
          ...................................................

generating ANC from model Hessian ...
Using Lindh-Hessian (1995)
 Shifting diagonal of input Hessian by   5.118220770189688E-003
 Lowest  eigenvalues of input Hessian
    0.005000   -0.000000   -0.000000   -0.000000   -0.000000    0.000000
    0.000000    0.005128    0.005164    0.005186    0.005190    0.005269
    0.005394    0.005485    0.005626    0.005943    0.006108    0.006314
 Highest eigenvalues
    2.380361    2.431750    2.509650    2.525942    2.569875    2.583584
 

........................................................................
.............................. CYCLE    1 ..............................
........................................................................
   1   -185.3653015 -0.185365E+03  0.252E-04    0.15       0.0  T
   2   -185.3653014  0.103534E-06  0.139E-03    0.15       7.7  T
   3   -185.3653015 -0.104838E-06  0.214E-04    0.15      50.0  T
   4   -185.3653015 -0.226760E-08  0.571E-05    0.15     187.7  T
     SCC iter.                  ...        0 min,  0.107 sec
     gradient                   ...        0 min,  0.026 sec
 * total energy  :  -182.5002755 Eh     change       -0.9856876E-08 Eh
   gradient norm :     0.2555272 Eh/α   predicted     0.0000000E+00 (-100.00%)
   displ. norm   :     0.3920696 α      lambda       -0.6327215E-01
   maximum displ.:     0.0980057 α      in ANC's #78, #95, #177, ...

........................................................................
.............................. CYCLE    2 ..............................
........................................................................
   1   -185.4301599 -0.185430E+03  0.598E-01    0.06       0.0  T
   2   -185.4181149  0.120450E-01  0.672E-01    0.52       1.0  T
   3   -185.4427800 -0.246651E-01  0.335E-01    0.18       1.0  T
   4   -185.4417004  0.107962E-02  0.306E-01    0.25       1.0  T
   5   -185.4442619 -0.256154E-02  0.200E-01    0.16       1.0  T
   6   -185.3467560  0.975059E-01  0.152E+00    0.01       1.0  T
   7   -185.4363337 -0.895777E-01  0.468E-01    0.07       1.0  T
   8   -185.4370322 -0.698497E-03  0.370E-01    0.09       1.0  T
   9   -185.4449512 -0.791908E-02  0.140E-01    0.11       1.0  T
  10   -185.4457309 -0.779660E-03  0.269E-02    0.14       1.0  T
  11   -185.4456063  0.124559E-03  0.611E-02    0.15       1.0  T
  12   -185.4456069 -0.559043E-06  0.608E-02    0.15       1.0  T
  13   -185.4457073 -0.100383E-03  0.357E-02    0.15       1.0  T
  14   -185.4457424 -0.350673E-04  0.203E-02    0.15       1.0  T
  15   -185.4457580 -0.156724E-04  0.433E-03    0.14       2.5  T
  16   -185.4457569  0.114229E-05  0.660E-03    0.14       1.6  T
  17   -185.4457587 -0.177031E-05  0.875E-04    0.14      12.3  T
  18   -185.4457586  0.239766E-07  0.110E-03    0.14       9.8  T
     SCC iter.                  ...        0 min,  0.349 sec
     gradient                   ...        0 min,  0.020 sec
 * total energy  :  -182.5449565 Eh     change       -0.4468104E-01 Eh
   gradient norm :     0.1082736 Eh/α   predicted    -0.3649925E-01 ( -18.31%)
   displ. norm   :     0.4349788 α      lambda       -0.2364905E-01
   maximum displ.:     0.1169344 α      in ANC's #43, #22, #78, ...

........................................................................
.............................. CYCLE    3 ..............................
........................................................................
   1   -185.4569231 -0.185457E+03  0.559E-01    0.06       0.0  T
   2   -185.4416985  0.152245E-01  0.668E-01    0.41       1.0  T
   3   -185.4575381 -0.158396E-01  0.499E-01    0.09       1.0  T
   4   -185.4649703 -0.743218E-02  0.356E-01    0.23       1.0  T
   5   -185.4664072 -0.143688E-02  0.254E-01    0.18       1.0  T
   6   -185.4635193  0.288789E-02  0.309E-01    0.09       1.0  T
   7   -185.4670535 -0.353423E-02  0.164E-01    0.11       1.0  T
   8   -185.4687951 -0.174154E-02  0.637E-02    0.12       1.0  T
   9   -185.4689945 -0.199485E-03  0.316E-02    0.13       1.0  T
  10   -185.4690077 -0.131436E-04  0.244E-02    0.13       1.0  T
  11   -185.4690442 -0.365471E-04  0.656E-03    0.13       1.6  T
  12   -185.4690430  0.124599E-05  0.878E-03    0.13       1.2  T
  13   -185.4690462 -0.317388E-05  0.154E-03    0.13       7.0  T
  14   -185.4690461  0.387245E-07  0.205E-03    0.13       5.2  T
     SCC iter.                  ...        0 min,  0.294 sec
     gradient                   ...        0 min,  0.030 sec
 * total energy  :  -182.5598506 Eh     change       -0.1489408E-01 Eh
   gradient norm :     0.0330686 Eh/α   predicted    -0.1406182E-01 (  -5.59%)
   displ. norm   :     0.5401159 α      lambda       -0.7200294E-02
   maximum displ.:     0.2098702 α      in ANC's #22, #21, #43, ...

........................................................................
.............................. CYCLE    4 ..............................
........................................................................
   1   -185.4707768 -0.185471E+03  0.435E-01    0.08       0.0  T
   2   -185.4584174  0.123594E-01  0.552E-01    0.27       1.0  T
   3   -185.4273770  0.310404E-01  0.104E+00    0.04       1.0  T
   4   -185.4749577 -0.475808E-01  0.235E-01    0.14       1.0  T
   5   -185.4755551 -0.597405E-03  0.115E-01    0.13       1.0  T
   6   -185.4522831  0.232720E-01  0.650E-01    0.06       1.0  T
   7   -185.4724039 -0.201208E-01  0.229E-01    0.11       1.0  T
   8   -185.4758969 -0.349302E-02  0.860E-02    0.14       1.0  T
   9   -185.4761191 -0.222138E-03  0.498E-02    0.12       1.0  T
  10   -185.4760080  0.111072E-03  0.650E-02    0.12       1.0  T
  11   -185.4761189 -0.110894E-03  0.436E-02    0.12       1.0  T
  12   -185.4761904 -0.715031E-04  0.229E-02    0.12       1.0  T
  13   -185.4762045 -0.140851E-04  0.138E-02    0.12       1.0  T
  14   -185.4762087 -0.419784E-05  0.857E-03    0.12       1.3  T
  15   -185.4762105 -0.177544E-05  0.469E-03    0.12       2.3  T
  16   -185.4762113 -0.804826E-06  0.155E-03    0.12       6.9  T
     SCC iter.                  ...        0 min,  0.340 sec
     gradient                   ...        0 min,  0.023 sec
 * total energy  :  -182.5656059 Eh     change       -0.5755285E-02 Eh
   gradient norm :     0.0221555 Eh/α   predicted    -0.4650403E-02 ( -19.20%)
   displ. norm   :     0.6998990 α      lambda       -0.6125486E-02
   maximum displ.:     0.2787168 α      in ANC's #22, #21, #11, ...

........................................................................
.............................. CYCLE    5 ..............................
........................................................................
   1   -185.4579518 -0.185458E+03  0.660E-01    0.06       0.0  T
   2   -185.4368316  0.211202E-01  0.753E-01    0.28       1.0  T
   3   -185.2549833  0.181848E+00  0.218E+00    0.03       1.0  T
   4   -185.4668497 -0.211866E+00  0.399E-01    0.12       1.0  T
   5   -185.4671627 -0.313027E-03  0.301E-01    0.12       1.0  T
   6   -185.4234656  0.436971E-01  0.926E-01    0.04       1.0  T
   7   -185.4159700  0.749557E-02  0.950E-01    0.05       1.0  T
   8   -185.4697893 -0.538192E-01  0.185E-01    0.13       1.0  T
   9   -185.4710095 -0.122024E-02  0.745E-02    0.13       1.0  T
  10   -185.4709092  0.100240E-03  0.862E-02    0.12       1.0  T
  11   -185.4708395  0.697565E-04  0.856E-02    0.13       1.0  T
  12   -185.4710312 -0.191715E-03  0.604E-02    0.12       1.0  T
  13   -185.4711085 -0.772500E-04  0.466E-02    0.12       1.0  T
  14   -185.4711394 -0.309865E-04  0.378E-02    0.12       1.0  T
  15   -185.4711662 -0.267280E-04  0.276E-02    0.12       1.0  T
  16   -185.4711861 -0.199729E-04  0.177E-02    0.12       1.0  T
  17   -185.4711951 -0.896780E-05  0.100E-02    0.12       1.1  T
  18   -185.4711988 -0.369761E-05  0.373E-03    0.12       2.9  T
  19   -185.4711994 -0.631138E-06  0.544E-04    0.12      19.7  T
     SCC iter.                  ...        0 min,  0.568 sec
     gradient                   ...        0 min,  0.028 sec
 * total energy  :  -182.5699904 Eh     change       -0.4384544E-02 Eh
   gradient norm :     0.0228346 Eh/α   predicted    -0.4563053E-02 (   4.07%)
   displ. norm   :     0.7542876 α      lambda       -0.6184782E-02
   maximum displ.:     0.3122811 α      in ANC's #21, #22, #24, ...

........................................................................
.............................. CYCLE    6 ..............................
........................................................................
   1   -185.4445830 -0.185445E+03  0.783E-01    0.07       0.0  T
   2   -185.4112094  0.333736E-01  0.894E-01    0.51       1.0  T
   3   -185.4301712 -0.189618E-01  0.819E-01    0.06       1.0  T
   4   -185.4577165 -0.275453E-01  0.402E-01    0.16       1.0  T
   5   -185.4583122 -0.595658E-03  0.316E-01    0.18       1.0  T
   6   -185.4047478  0.535644E-01  0.990E-01    0.05       1.0  T
   7   -185.4525087 -0.477609E-01  0.355E-01    0.10       1.0  T
   8   -185.4609072 -0.839851E-02  0.217E-01    0.16       1.0  T
   9   -185.4621250 -0.121779E-02  0.121E-01    0.14       1.0  T
  10   -185.4623299 -0.204971E-03  0.867E-02    0.14       1.0  T
  11   -185.4624907 -0.160776E-03  0.508E-02    0.13       1.0  T
  12   -185.4625246 -0.339227E-04  0.331E-02    0.12       1.0  T
  13   -185.4625947 -0.700929E-04  0.130E-02    0.12       1.0  T
  14   -185.4625918  0.289637E-05  0.134E-02    0.12       1.0  T
  15   -185.4626015 -0.968118E-05  0.367E-03    0.12       2.9  T
  16   -185.4626014  0.128376E-06  0.356E-03    0.12       3.0  T
  17   -185.4626020 -0.637107E-06  0.362E-04    0.12      29.6  T
     SCC iter.                  ...        0 min,  0.343 sec
     gradient                   ...        0 min,  0.029 sec
 * total energy  :  -182.5710540 Eh     change       -0.1063539E-02 Eh
   gradient norm :     0.0457256 Eh/α   predicted    -0.4851808E-02 ( 356.19%)
   displ. norm   :     0.3545924 α      lambda       -0.5937867E-02
   maximum displ.:     0.1638483 α      in ANC's #20, #1, #12, ...

........................................................................
.............................. CYCLE    7 ..............................
........................................................................
   1   -185.4822455 -0.185482E+03  0.302E-01    0.10       0.0  T
   2   -185.4741178  0.812770E-02  0.423E-01    0.20       1.0  T
   3   -185.4736659  0.451887E-03  0.487E-01    0.08       1.0  T
   4   -185.4700720  0.359393E-02  0.532E-01    0.08       1.0  T
   5   -185.4731768 -0.310481E-02  0.331E-01    0.11       1.0  T
   6   -185.4816132 -0.843637E-02  0.254E-01    0.16       1.0  T
   7   -185.4814728  0.140364E-03  0.242E-01    0.16       1.0  T
   8   -185.4820683 -0.595473E-03  0.195E-01    0.15       1.0  T
   9   -185.4835808 -0.151252E-02  0.347E-02    0.12       1.0  T
  10   -185.4836328 -0.520674E-04  0.648E-02    0.12       1.0  T
  11   -185.4837221 -0.892550E-04  0.336E-02    0.12       1.0  T
  12   -185.4837608 -0.386639E-04  0.681E-03    0.12       1.6  T
  13   -185.4837610 -0.241671E-06  0.495E-03    0.12       2.2  T
  14   -185.4837620 -0.957912E-06  0.374E-03    0.12       2.9  T
     SCC iter.                  ...        0 min,  0.307 sec
     gradient                   ...        0 min,  0.029 sec
 * total energy  :  -182.5740899 Eh     change       -0.3035914E-02 Eh
   gradient norm :     0.0331172 Eh/α   predicted    -0.3342243E-02 (  10.09%)
   displ. norm   :     0.4760674 α      lambda       -0.4343670E-02
   maximum displ.:     0.2356817 α      in ANC's #25, #24, #11, ...

........................................................................
.............................. CYCLE    8 ..............................
........................................................................
   1   -185.4667070 -0.185467E+03  0.366E-01    0.12       0.0  T
   2   -185.4629089  0.379811E-02  0.349E-01    0.13       1.0  T
   3   -185.2728264  0.190082E+00  0.200E+00    0.04       1.0  T
   4   -185.4611868 -0.188360E+00  0.354E-01    0.19       1.0  T
   5   -185.4414353  0.197515E-01  0.655E-01    0.07       1.0  T
   6   -185.4647338 -0.232984E-01  0.285E-01    0.16       1.0  T
   7   -185.4642266  0.507156E-03  0.282E-01    0.16       1.0  T
   8   -185.4648161 -0.589461E-03  0.268E-01    0.16       1.0  T
   9   -185.4652477 -0.431670E-03  0.239E-01    0.15       1.0  T
  10   -185.4655719 -0.324115E-03  0.211E-01    0.14       1.0  T
  11   -185.4656636 -0.917583E-04  0.202E-01    0.14       1.0  T
  12   -185.4664749 -0.811260E-03  0.143E-01    0.14       1.0  T
  13   -185.4669577 -0.482807E-03  0.991E-02    0.14       1.0  T
  14   -185.4670684 -0.110752E-03  0.860E-02    0.13       1.0  T
  15   -185.4673282 -0.259733E-03  0.328E-02    0.13       1.0  T
  16   -185.4673744 -0.462640E-04  0.717E-03    0.13       1.5  T
  17   -185.4673765 -0.203860E-05  0.260E-03    0.13       4.1  T
  18   -185.4673765 -0.622243E-07  0.227E-03    0.13       4.7  T
     SCC iter.                  ...        0 min,  0.385 sec
     gradient                   ...        0 min,  0.026 sec
 * total energy  :  -182.5725720 Eh     change        0.1517860E-02 Eh
   gradient norm :     0.0872625 Eh/α   predicted    -0.2664060E-02 (-275.51%)
   displ. norm   :     0.3166865 α      lambda       -0.9152068E-02
   maximum displ.:     0.1663426 α      in ANC's #12, #24, #16, ...

........................................................................
.............................. CYCLE    9 ..............................
........................................................................
   1   -185.4847499 -0.185485E+03  0.317E-01    0.11       0.0  T
   2   -185.4803359  0.441397E-02  0.335E-01    0.16       1.0  T
   3   -185.4303889  0.499470E-01  0.104E+00    0.05       1.0  T
   4   -185.3176490  0.112740E+00  0.173E+00    0.05       1.0  T
   5   -185.4828364 -0.165187E+00  0.254E-01    0.14       1.0  T
   6   -185.4820186  0.817772E-03  0.272E-01    0.14       1.0  T
   7   -185.4824826 -0.463982E-03  0.258E-01    0.14       1.0  T
   8   -185.4828751 -0.392531E-03  0.237E-01    0.14       1.0  T
   9   -185.4835263 -0.651239E-03  0.204E-01    0.13       1.0  T
  10   -185.4837414 -0.215046E-03  0.185E-01    0.13       1.0  T
  11   -185.4847203 -0.978913E-03  0.126E-01    0.13       1.0  T
  12   -185.4852234 -0.503143E-03  0.737E-02    0.13       1.0  T
  13   -185.4852583 -0.348697E-04  0.774E-02    0.13       1.0  T
  14   -185.4855089 -0.250612E-03  0.208E-02    0.13       1.0  T
  15   -185.4855348 -0.259263E-04  0.681E-03    0.13       1.6  T
  16   -185.4855367 -0.188124E-05  0.235E-03    0.13       4.6  T
  17   -185.4855369 -0.125123E-06  0.238E-03    0.13       4.5  T
     SCC iter.                  ...        0 min,  0.370 sec
     gradient                   ...        0 min,  0.029 sec
 * total energy  :  -182.5765329 Eh     change       -0.3960884E-02 Eh
   gradient norm :     0.0263094 Eh/α   predicted    -0.5034966E-02 (  27.12%)
   displ. norm   :     0.4630062 α      lambda       -0.2695234E-02
   maximum displ.:     0.1684294 α      in ANC's #12, #11, #16, ...

........................................................................
.............................. CYCLE   10 ..............................
........................................................................
   1   -185.4836763 -0.185484E+03  0.507E-01    0.10       0.0  T
   2   -185.4650524  0.186239E-01  0.633E-01    0.39       1.0  T
   3   -185.4769814 -0.119290E-01  0.534E-01    0.09       1.0  T
   4   -185.4798251 -0.284365E-02  0.453E-01    0.11       1.0  T
   5   -185.4844802 -0.465512E-02  0.304E-01    0.18       1.0  T
   6   -185.4869144 -0.243423E-02  0.266E-01    0.18       1.0  T
   7   -185.4868571  0.573235E-04  0.270E-01    0.19       1.0  T
   8   -185.4782656  0.859146E-02  0.527E-01    0.09       1.0  T
   9   -185.4896193 -0.113537E-01  0.130E-01    0.12       1.0  T
  10   -185.4896530 -0.337529E-04  0.103E-01    0.12       1.0  T
  11   -185.4902155 -0.562478E-03  0.589E-03    0.14       1.8  T
  12   -185.4902021  0.134428E-04  0.196E-02    0.14       1.0  T
  13   -185.4902160 -0.139120E-04  0.771E-03    0.14       1.4  T
  14   -185.4902186 -0.263075E-05  0.253E-03    0.14       4.2  T
  15   -185.4902188 -0.190082E-06  0.184E-03    0.14       5.8  T
     SCC iter.                  ...        0 min,  0.432 sec
     gradient                   ...        0 min,  0.028 sec
 * total energy  :  -182.5775395 Eh     change       -0.1006569E-02 Eh
   gradient norm :     0.0332088 Eh/α   predicted    -0.1636512E-02 (  62.58%)
   displ. norm   :     0.4556477 α      lambda       -0.2154990E-02
   maximum displ.:     0.1984169 α      in ANC's #12, #16, #15, ...

........................................................................
.............................. CYCLE   11 ..............................
........................................................................
   1   -185.4840573 -0.185484E+03  0.250E-01    0.12       0.0  T
   2   -185.4785126  0.554468E-02  0.348E-01    0.20       1.0  T
   3   -185.4811654 -0.265279E-02  0.298E-01    0.10       1.0  T
   4   -185.4818315 -0.666055E-03  0.274E-01    0.14       1.0  T
   5   -185.4825922 -0.760727E-03  0.174E-01    0.14       1.0  T
   6   -185.4846518 -0.205962E-02  0.122E-01    0.16       1.0  T
   7   -185.4847245 -0.726399E-04  0.100E-01    0.15       1.0  T
   8   -185.4852021 -0.477622E-03  0.263E-02    0.14       1.0  T
   9   -185.4851902  0.118447E-04  0.372E-02    0.14       1.0  T
  10   -185.4852234 -0.331608E-04  0.204E-02    0.14       1.0  T
  11   -185.4852386 -0.151768E-04  0.592E-03    0.14       1.8  T
  12   -185.4852398 -0.124664E-05  0.369E-03    0.14       2.9  T
  13   -185.4852402 -0.345457E-06  0.228E-03    0.14       4.7  T
     SCC iter.                  ...        0 min,  0.271 sec
     gradient                   ...        0 min,  0.020 sec
 * total energy  :  -182.5792885 Eh     change       -0.1749039E-02 Eh
   gradient norm :     0.0192506 Eh/α   predicted    -0.1301198E-02 ( -25.60%)
   displ. norm   :     0.6311940 α      lambda       -0.2310723E-02
   maximum displ.:     0.2849282 α      in ANC's #12, #16, #10, ...

........................................................................
.............................. CYCLE   12 ..............................
........................................................................
   1   -185.4894465 -0.185489E+03  0.247E-01    0.14       0.0  T
   2   -185.4875462  0.190024E-02  0.236E-01    0.15       1.0  T
   3   -185.4761279  0.114183E-01  0.547E-01    0.11       1.0  T
   4   -185.4728001  0.332785E-02  0.493E-01    0.09       1.0  T
   5   -185.4882958 -0.154957E-01  0.178E-01    0.17       1.0  T
   6   -185.4892770 -0.981200E-03  0.135E-01    0.15       1.0  T
   7   -185.4890241  0.252910E-03  0.137E-01    0.15       1.0  T
   8   -185.4894793 -0.455204E-03  0.108E-01    0.15       1.0  T
   9   -185.4897550 -0.275708E-03  0.613E-02    0.15       1.0  T
  10   -185.4898721 -0.117145E-03  0.313E-02    0.14       1.0  T
  11   -185.4898910 -0.188294E-04  0.197E-02    0.14       1.0  T
  12   -185.4899069 -0.158981E-04  0.469E-03    0.14       2.3  T
  13   -185.4899081 -0.120487E-05  0.407E-03    0.14       2.6  T
  14   -185.4899083 -0.214649E-06  0.283E-03    0.14       3.8  T
  15   -185.4899085 -0.225768E-06  0.125E-03    0.14       8.6  T
     SCC iter.                  ...        0 min,  0.300 sec
     gradient                   ...        0 min,  0.020 sec
 * total energy  :  -182.5808344 Eh     change       -0.1545899E-02 Eh
   gradient norm :     0.0181406 Eh/α   predicted    -0.1615665E-02 (   4.51%)
   displ. norm   :     0.7032001 α      lambda       -0.1894328E-02
   maximum displ.:     0.3009039 α      in ANC's #12, #11, #10, ...

........................................................................
.............................. CYCLE   13 ..............................
........................................................................
   1   -185.4624833 -0.185462E+03  0.687E-01    0.12       0.0  T
   2   -185.4349910  0.274923E-01  0.734E-01    0.11       1.0  T
   3   -185.4659571 -0.309661E-01  0.382E-01    0.19       1.0  T
   4   -185.4722979 -0.634083E-02  0.288E-01    0.12       1.0  T
   5   -185.4729951 -0.697203E-03  0.242E-01    0.20       1.0  T
   6   -185.4750095 -0.201435E-02  0.116E-01    0.16       1.0  T
   7   -185.4746614  0.348041E-03  0.129E-01    0.14       1.0  T
   8   -185.4752669 -0.605449E-03  0.757E-02    0.14       1.0  T
   9   -185.4755585 -0.291639E-03  0.290E-02    0.14       1.0  T
  10   -185.4755974 -0.389318E-04  0.937E-03    0.15       1.1  T
  11   -185.4755958  0.163703E-05  0.136E-02    0.15       1.0  T
  12   -185.4756021 -0.634584E-05  0.809E-03    0.15       1.3  T
  13   -185.4756049 -0.271722E-05  0.207E-03    0.15       5.2  T
  14   -185.4756049 -0.497118E-07  0.158E-03    0.15       6.8  T
     SCC iter.                  ...        0 min,  0.265 sec
     gradient                   ...        0 min,  0.028 sec
 * total energy  :  -182.5818722 Eh     change       -0.1037769E-02 Eh
   gradient norm :     0.0360721 Eh/α   predicted    -0.1415532E-02 (  36.40%)
   displ. norm   :     0.5190920 α      lambda       -0.1797330E-02
   maximum displ.:     0.2308845 α      in ANC's #12, #10, #16, ...

........................................................................
.............................. CYCLE   14 ..............................
........................................................................
   1   -185.4774513 -0.185477E+03  0.403E-01    0.13       0.0  T
   2   -185.4669251  0.105263E-01  0.450E-01    0.15       1.0  T
   3   -185.4790317 -0.121066E-01  0.208E-01    0.17       1.0  T
   4   -185.4741762  0.485553E-02  0.420E-01    0.10       1.0  T
   5   -185.4804969 -0.632069E-02  0.136E-01    0.17       1.0  T
   6   -185.4816834 -0.118654E-02  0.692E-02    0.16       1.0  T
   7   -185.4814249  0.258542E-03  0.797E-02    0.16       1.0  T
   8   -185.4817999 -0.374978E-03  0.373E-02    0.15       1.0  T
   9   -185.4818663 -0.664621E-04  0.112E-02    0.15       1.0  T
  10   -185.4818673 -0.987152E-06  0.103E-02    0.15       1.0  T
  11   -185.4818709 -0.355185E-05  0.466E-03    0.15       2.3  T
  12   -185.4818721 -0.123333E-05  0.724E-04    0.15      14.8  T
     SCC iter.                  ...        0 min,  0.264 sec
     gradient                   ...        0 min,  0.029 sec
 * total energy  :  -182.5830138 Eh     change       -0.1141635E-02 Eh
   gradient norm :     0.0151865 Eh/α   predicted    -0.1140818E-02 (  -0.07%)
   displ. norm   :     0.5510131 α      lambda       -0.1706372E-02
   maximum displ.:     0.2635726 α      in ANC's #10, #12, #5, ...

........................................................................
.............................. CYCLE   15 ..............................
........................................................................
   1   -185.4979789 -0.185498E+03  0.208E-01    0.16       0.0  T
   2   -185.4800728  0.179061E-01  0.627E-01    0.10       1.0  T
   3   -185.4979626 -0.178898E-01  0.140E-01    0.14       1.0  T
   4   -185.4961693  0.179336E-02  0.205E-01    0.18       1.0  T
   5   -185.4978879 -0.171862E-02  0.126E-01    0.13       1.0  T
   6   -185.4985135 -0.625629E-03  0.697E-02    0.16       1.0  T
   7   -185.4988137 -0.300221E-03  0.493E-02    0.16       1.0  T
   8   -185.4988585 -0.447331E-04  0.320E-02    0.15       1.0  T
   9   -185.4989011 -0.426337E-04  0.190E-02    0.15       1.0  T
  10   -185.4989142 -0.130819E-04  0.984E-03    0.15       1.1  T
  11   -185.4989174 -0.320661E-05  0.484E-03    0.15       2.2  T
  12   -185.4989183 -0.890029E-06  0.980E-04    0.15      10.9  T
  13   -185.4989183 -0.720382E-08  0.993E-04    0.15      10.8  T
     SCC iter.                  ...        0 min,  0.181 sec
     gradient                   ...        0 min,  0.020 sec
 * total energy  :  -182.5838143 Eh     change       -0.8004822E-03 Eh
   gradient norm :     0.0226877 Eh/α   predicted    -0.1112232E-02 (  38.95%)
   displ. norm   :     0.5875753 α      lambda       -0.1443386E-02
   maximum displ.:     0.2520263 α      in ANC's #10, #12, #11, ...

........................................................................
.............................. CYCLE   16 ..............................
........................................................................
   1   -185.4830702 -0.185483E+03  0.568E-01    0.14       0.0  T
   2   -185.4576923  0.253779E-01  0.706E-01    0.11       1.0  T
   3   -185.4842588 -0.265665E-01  0.367E-01    0.25       1.0  T
   4   -185.4903451 -0.608631E-02  0.141E-01    0.13       1.0  T
   5   -185.4895676  0.777572E-03  0.207E-01    0.20       1.0  T
   6   -185.4911632 -0.159560E-02  0.118E-01    0.17       1.0  T
   7   -185.4916295 -0.466319E-03  0.466E-02    0.14       1.0  T
   8   -185.4913361  0.293363E-03  0.998E-02    0.13       1.0  T
   9   -185.4916598 -0.323682E-03  0.562E-02    0.14       1.0  T
  10   -185.4917906 -0.130767E-03  0.121E-02    0.15       1.0  T
  11   -185.4917834  0.714763E-05  0.192E-02    0.15       1.0  T
  12   -185.4917963 -0.129306E-04  0.756E-03    0.15       1.4  T
  13   -185.4917982 -0.189318E-05  0.384E-03    0.15       2.8  T
  14   -185.4917987 -0.456106E-06  0.162E-03    0.15       6.6  T
     SCC iter.                  ...        0 min,  0.191 sec
     gradient                   ...        0 min,  0.018 sec
 * total energy  :  -182.5847371 Eh     change       -0.9227715E-03 Eh
   gradient norm :     0.0170121 Eh/α   predicted    -0.9708548E-03 (   5.21%)
   displ. norm   :     0.5904587 α      lambda       -0.1356316E-02
   maximum displ.:     0.2666428 α      in ANC's #10, #12, #11, ...

........................................................................
.............................. CYCLE   17 ..............................
........................................................................
   1   -185.4783121 -0.185478E+03  0.285E-01    0.14       0.0  T
   2   -185.4729405  0.537162E-02  0.334E-01    0.15       1.0  T
   3   -185.4796669 -0.672640E-02  0.133E-01    0.16       1.0  T
   4   -185.4715653  0.810162E-02  0.460E-01    0.09       1.0  T
   5   -185.4796422 -0.807685E-02  0.103E-01    0.16       1.0  T
   6   -185.4805018 -0.859634E-03  0.343E-02    0.15       1.0  T
   7   -185.4804779  0.239062E-04  0.352E-02    0.15       1.0  T
   8   -185.4805591 -0.812550E-04  0.185E-02    0.15       1.0  T
   9   -185.4805718 -0.126158E-04  0.103E-02    0.15       1.0  T
  10   -185.4805745 -0.271218E-05  0.546E-03    0.15       2.0  T
  11   -185.4805756 -0.116169E-05  0.288E-03    0.15       3.7  T
  12   -185.4805760 -0.401072E-06  0.105E-03    0.15      10.2  T
     SCC iter.                  ...        0 min,  0.159 sec
     gradient                   ...        0 min,  0.018 sec
 * total energy  :  -182.5855185 Eh     change       -0.7814199E-03 Eh
   gradient norm :     0.0201127 Eh/α   predicted    -0.9145971E-03 (  17.04%)
   displ. norm   :     0.5069456 α      lambda       -0.9695690E-03
   maximum displ.:     0.2667566 α      in ANC's #10, #5, #12, ...

........................................................................
.............................. CYCLE   18 ..............................
........................................................................
   1   -185.4859046 -0.185486E+03  0.181E-01    0.15       0.0  T
   2   -185.4761507  0.975393E-02  0.484E-01    0.09       1.0  T
   3   -185.4844102 -0.825957E-02  0.210E-01    0.21       1.0  T
   4   -185.4858224 -0.141220E-02  0.114E-01    0.14       1.0  T
   5   -185.4861730 -0.350594E-03  0.758E-02    0.16       1.0  T
   6   -185.4864290 -0.255945E-03  0.464E-02    0.15       1.0  T
   7   -185.4864741 -0.451023E-04  0.290E-02    0.15       1.0  T
   8   -185.4865202 -0.460691E-04  0.662E-03    0.14       1.6  T
   9   -185.4865237 -0.352815E-05  0.522E-03    0.14       2.1  T
  10   -185.4865245 -0.805620E-06  0.304E-03    0.14       3.5  T
     SCC iter.                  ...        0 min,  0.129 sec
     gradient                   ...        0 min,  0.018 sec
 * total energy  :  -182.5862987 Eh     change       -0.7802067E-03 Eh
   gradient norm :     0.0160345 Eh/α   predicted    -0.6093712E-03 ( -21.90%)
   displ. norm   :     0.6554372 α      lambda       -0.1211667E-02
   maximum displ.:     0.3362371 α      in ANC's #10, #5, #6, ...

........................................................................
.............................. CYCLE   19 ..............................
........................................................................
   1   -185.4909674 -0.185491E+03  0.189E-01    0.14       0.0  T
   2   -185.4897991  0.116829E-02  0.176E-01    0.15       1.0  T
   3   -185.4903545 -0.555348E-03  0.141E-01    0.13       1.0  T
   4   -185.4895607  0.793828E-03  0.186E-01    0.20       1.0  T
   5   -185.4912684 -0.170771E-02  0.480E-02    0.14       1.0  T
   6   -185.4914112 -0.142839E-03  0.219E-02    0.14       1.0  T
   7   -185.4914201 -0.888673E-05  0.149E-02    0.14       1.0  T
   8   -185.4914320 -0.118678E-04  0.565E-03    0.14       1.9  T
   9   -185.4914356 -0.365758E-05  0.361E-03    0.14       3.0  T
  10   -185.4914359 -0.275786E-06  0.301E-03    0.14       3.6  T
  11   -185.4914363 -0.360638E-06  0.109E-03    0.14       9.8  T
  12   -185.4914363 -0.592728E-07  0.903E-04    0.14      11.9  T
     SCC iter.                  ...        0 min,  0.161 sec
     gradient                   ...        0 min,  0.018 sec
 * total energy  :  -182.5871104 Eh     change       -0.8116639E-03 Eh
   gradient norm :     0.0145279 Eh/α   predicted    -0.8661021E-03 (   6.71%)
   displ. norm   :     0.6788272 α      lambda       -0.9907242E-03
   maximum displ.:     0.3326296 α      in ANC's #10, #5, #6, ...

........................................................................
.............................. CYCLE   20 ..............................
........................................................................
   1   -185.4872162 -0.185487E+03  0.349E-01    0.16       0.0  T
   2   -185.4019638  0.852524E-01  0.149E+00    0.04       1.0  T
   3   -185.4830572 -0.810934E-01  0.354E-01    0.25       1.0  T
   4   -185.4885870 -0.552978E-02  0.178E-01    0.15       1.0  T
   5   -185.4889829 -0.395954E-03  0.161E-01    0.18       1.0  T
   6   -185.4898745 -0.891546E-03  0.107E-01    0.16       1.0  T
   7   -185.4901095 -0.235054E-03  0.699E-02    0.15       1.0  T
   8   -185.4903030 -0.193472E-03  0.269E-02    0.14       1.0  T
   9   -185.4903225 -0.194938E-04  0.188E-02    0.14       1.0  T
  10   -185.4903316 -0.906591E-05  0.935E-03    0.14       1.1  T
  11   -185.4903346 -0.303571E-05  0.392E-03    0.14       2.7  T
  12   -185.4903354 -0.756048E-06  0.913E-04    0.14      11.7  T
  13   -185.4903354 -0.459991E-07  0.566E-04    0.14      18.9  T
     SCC iter.                  ...        0 min,  0.179 sec
     gradient                   ...        0 min,  0.018 sec
 * total energy  :  -182.5879360 Eh     change       -0.8256273E-03 Eh
   gradient norm :     0.0128988 Eh/α   predicted    -0.7236330E-03 ( -12.35%)
   displ. norm   :     0.7164945 α      lambda       -0.1182548E-02
   maximum displ.:     0.3286562 α      in ANC's #10, #5, #6, ...
 * RMSD in coord.:     0.8980529 α      energy gain  -0.8766051E-01 Eh

generating ANC from model Hessian ...
Using Lindh-Hessian (1995)
 Shifting diagonal of input Hessian by   5.004193292521680E-003
 Lowest  eigenvalues of input Hessian
    0.005000   -0.000000   -0.000000   -0.000000    0.000000    0.000000
    0.000000    0.005017    0.005067    0.005100    0.005132    0.005311
    0.005497    0.005570    0.005727    0.006039    0.006134    0.006264
 Highest eigenvalues
    2.368078    2.439261    2.593138    2.608328    2.640989    2.642050
 

........................................................................
.............................. CYCLE   21 ..............................
........................................................................
   1   -185.4807616 -0.185481E+03  0.567E-01    0.15       0.0  T
   2   -185.4131469  0.676147E-01  0.115E+00    0.06       1.0  T
   3   -185.4795999 -0.664530E-01  0.469E-01    0.34       1.0  T
   4   -185.4902242 -0.106243E-01  0.193E-01    0.15       1.0  T
   5   -185.4899412  0.282960E-03  0.248E-01    0.21       1.0  T
   6   -185.4914549 -0.151370E-02  0.118E-01    0.15       1.0  T
   7   -185.4925074 -0.105246E-02  0.634E-02    0.15       1.0  T
   8   -185.4924579  0.494654E-04  0.862E-02    0.12       1.0  T
   9   -185.4926541 -0.196162E-03  0.443E-02    0.13       1.0  T
  10   -185.4927153 -0.612650E-04  0.231E-02    0.13       1.0  T
  11   -185.4927381 -0.228076E-04  0.849E-03    0.14       1.3  T
  12   -185.4927399 -0.180059E-05  0.732E-03    0.14       1.5  T
  13   -185.4927407 -0.786113E-06  0.555E-03    0.14       1.9  T
  14   -185.4927416 -0.846383E-06  0.316E-03    0.14       3.4  T
  15   -185.4927419 -0.366512E-06  0.638E-04    0.14      16.8  T
  16   -185.4927419  0.184102E-07  0.889E-04    0.14      12.1  T
     SCC iter.                  ...        0 min,  0.216 sec
     gradient                   ...        0 min,  0.020 sec
 * total energy  :  -182.5890303 Eh     change       -0.1094294E-02 Eh
   gradient norm :     0.0261354 Eh/α   predicted     0.0000000E+00 (-100.00%)
   displ. norm   :     0.2088404 α      lambda       -0.8812699E-03
   maximum displ.:     0.1064535 α      in ANC's #5, #14, #8, ...

........................................................................
.............................. CYCLE   22 ..............................
........................................................................
   1   -185.4920623 -0.185492E+03  0.124E-01    0.14       0.0  T
   2   -185.4866294  0.543293E-02  0.363E-01    0.08       1.0  T
   3   -185.4917892 -0.515979E-02  0.108E-01    0.16       1.0  T
   4   -185.4916596  0.129539E-03  0.839E-02    0.13       1.0  T
   5   -185.4920796 -0.419975E-03  0.496E-02    0.15       1.0  T
   6   -185.4921625 -0.829447E-04  0.313E-02    0.14       1.0  T
   7   -185.4921834 -0.208333E-04  0.215E-02    0.14       1.0  T
   8   -185.4921994 -0.160247E-04  0.948E-03    0.14       1.1  T
   9   -185.4922027 -0.329333E-05  0.285E-03    0.14       3.8  T
  10   -185.4922030 -0.337623E-06  0.755E-04    0.14      14.2  T
     SCC iter.                  ...        0 min,  0.142 sec
     gradient                   ...        0 min,  0.018 sec
 * total energy  :  -182.5895352 Eh     change       -0.5049618E-03 Eh
   gradient norm :     0.0156802 Eh/α   predicted    -0.4598538E-03 (  -8.93%)
   displ. norm   :     0.3139252 α      lambda       -0.1370060E-02
   maximum displ.:     0.1073697 α      in ANC's #14, #6, #5, ...

........................................................................
.............................. CYCLE   23 ..............................
........................................................................
   1   -185.4917923 -0.185492E+03  0.214E-01    0.16       0.0  T
   2   -185.4233043  0.684880E-01  0.130E+00    0.01       1.0  T
   3   -185.4917253 -0.684210E-01  0.147E-01    0.16       1.0  T
   4   -185.4913599  0.365456E-03  0.129E-01    0.14       1.0  T
   5   -185.4920402 -0.680286E-03  0.924E-02    0.15       1.0  T
   6   -185.4924200 -0.379843E-03  0.517E-02    0.15       1.0  T
   7   -185.4924538 -0.337308E-04  0.437E-02    0.14       1.0  T
   8   -185.4924952 -0.414433E-04  0.307E-02    0.14       1.0  T
   9   -185.4925122 -0.170422E-04  0.223E-02    0.14       1.0  T
  10   -185.4925233 -0.110886E-04  0.141E-02    0.14       1.0  T
  11   -185.4925285 -0.518558E-05  0.825E-03    0.14       1.3  T
  12   -185.4925305 -0.199067E-05  0.409E-03    0.14       2.6  T
  13   -185.4925309 -0.418084E-06  0.221E-03    0.14       4.8  T
  14   -185.4925311 -0.158331E-06  0.105E-03    0.13      10.2  T
     SCC iter.                  ...        0 min,  0.190 sec
     gradient                   ...        0 min,  0.018 sec
 * total energy  :  -182.5895847 Eh     change       -0.4950476E-04 Eh
   gradient norm :     0.0304190 Eh/α   predicted    -0.7525401E-03 (1420.14%)
   displ. norm   :     0.2004905 α      lambda       -0.1521553E-02
   maximum displ.:     0.0874609 α      in ANC's #5, #8, #17, ...

........................................................................
.............................. CYCLE   24 ..............................
........................................................................
   1   -185.4931622 -0.185493E+03  0.172E-01    0.14       0.0  T
   2   -185.4911145  0.204771E-02  0.235E-01    0.10       1.0  T
   3   -185.4913603 -0.245810E-03  0.214E-01    0.21       1.0  T
   4   -185.4923908 -0.103050E-02  0.114E-01    0.12       1.0  T
   5   -185.4931109 -0.720105E-03  0.823E-02    0.15       1.0  T
   6   -185.4932818 -0.170898E-03  0.601E-02    0.15       1.0  T
   7   -185.4933786 -0.967789E-04  0.340E-02    0.14       1.0  T
   8   -185.4934256 -0.470036E-04  0.138E-02    0.13       1.0  T
   9   -185.4934323 -0.667879E-05  0.723E-03    0.13       1.5  T
  10   -185.4934344 -0.214220E-05  0.145E-03    0.13       7.4  T
  11   -185.4934343  0.101872E-06  0.212E-03    0.14       5.1  T
     SCC iter.                  ...        0 min,  0.150 sec
     gradient                   ...        0 min,  0.018 sec
 * total energy  :  -182.5902744 Eh     change       -0.6896732E-03 Eh
   gradient norm :     0.0236594 Eh/α   predicted    -0.7913597E-03 (  14.74%)
   displ. norm   :     0.2920664 α      lambda       -0.1980191E-02
   maximum displ.:     0.0858504 α      in ANC's #7, #6, #5, ...

........................................................................
.............................. CYCLE   25 ..............................
........................................................................
   1   -185.4842838 -0.185484E+03  0.276E-01    0.15       0.0  T
   2   -185.4718807  0.124031E-01  0.561E-01    0.07       1.0  T
   3   -185.4817887 -0.990793E-02  0.277E-01    0.24       1.0  T
   4   -185.4834975 -0.170880E-02  0.158E-01    0.13       1.0  T
   5   -185.4843526 -0.855117E-03  0.143E-01    0.17       1.0  T
   6   -185.4849310 -0.578470E-03  0.103E-01    0.16       1.0  T
   7   -185.4851775 -0.246441E-03  0.641E-02    0.15       1.0  T
   8   -185.4853629 -0.185422E-03  0.690E-03    0.14       1.6  T
   9   -185.4853670 -0.412177E-05  0.644E-03    0.14       1.7  T
  10   -185.4853687 -0.171905E-05  0.158E-03    0.14       6.8  T
  11   -185.4853687  0.804385E-07  0.187E-03    0.14       5.7  T
     SCC iter.                  ...        0 min,  0.152 sec
     gradient                   ...        0 min,  0.018 sec
 * total energy  :  -182.5902544 Eh     change        0.1996910E-04 Eh
   gradient norm :     0.0348130 Eh/α   predicted    -0.1074554E-02 (*******%)
   displ. norm   :     0.2614273 α      lambda       -0.2552612E-02
   maximum displ.:     0.0977258 α      in ANC's #5, #34, #14, ...

........................................................................
.............................. CYCLE   26 ..............................
........................................................................
   1   -185.4900533 -0.185490E+03  0.232E-01    0.15       0.0  T
   2   -185.4809484  0.910487E-02  0.476E-01    0.08       1.0  T
   3   -185.4880595 -0.711106E-02  0.242E-01    0.22       1.0  T
   4   -185.4894839 -0.142440E-02  0.130E-01    0.14       1.0  T
   5   -185.4901040 -0.620160E-03  0.116E-01    0.17       1.0  T
   6   -185.4904897 -0.385669E-03  0.804E-02    0.16       1.0  T
   7   -185.4906450 -0.155261E-03  0.500E-02    0.15       1.0  T
   8   -185.4907605 -0.115512E-03  0.503E-03    0.14       2.1  T
   9   -185.4907625 -0.206191E-05  0.449E-03    0.14       2.4  T
  10   -185.4907635 -0.919890E-06  0.108E-03    0.14      10.0  T
     SCC iter.                  ...        0 min,  0.140 sec
     gradient                   ...        0 min,  0.019 sec
 * total energy  :  -182.5914373 Eh     change       -0.1182802E-02 Eh
   gradient norm :     0.0326715 Eh/α   predicted    -0.1363535E-02 (  15.28%)
   displ. norm   :     0.3948785 α      lambda       -0.2827962E-02
   maximum displ.:     0.1451513 α      in ANC's #5, #16, #39, ...

........................................................................
.............................. CYCLE   27 ..............................
........................................................................
   1   -185.4939671 -0.185494E+03  0.307E-01    0.17       0.0  T
   2   -185.4404694  0.534977E-01  0.114E+00    0.04       1.0  T
   3   -185.4924505 -0.519811E-01  0.260E-01    0.22       1.0  T
   4   -185.4938727 -0.142222E-02  0.162E-01    0.15       1.0  T
   5   -185.4948329 -0.960194E-03  0.134E-01    0.18       1.0  T
   6   -185.4953596 -0.526733E-03  0.934E-02    0.17       1.0  T
   7   -185.4954941 -0.134434E-03  0.758E-02    0.16       1.0  T
   8   -185.4956531 -0.159071E-03  0.460E-02    0.16       1.0  T
   9   -185.4957158 -0.626819E-04  0.250E-02    0.15       1.0  T
  10   -185.4957317 -0.159268E-04  0.144E-02    0.15       1.0  T
  11   -185.4957398 -0.805325E-05  0.310E-03    0.15       3.5  T
  12   -185.4957401 -0.323188E-06  0.132E-03    0.15       8.1  T
  13   -185.4957402 -0.423811E-07  0.104E-03    0.15      10.3  T
     SCC iter.                  ...        0 min,  0.178 sec
     gradient                   ...        0 min,  0.018 sec
 * total energy  :  -182.5923998 Eh     change       -0.9625099E-03 Eh
   gradient norm :     0.0307829 Eh/α   predicted    -0.1634467E-02 (  69.81%)
   displ. norm   :     0.3944548 α      lambda       -0.2101003E-02
   maximum displ.:     0.1744545 α      in ANC's #5, #6, #16, ...

........................................................................
.............................. CYCLE   28 ..............................
........................................................................
   1   -185.4960084 -0.185496E+03  0.287E-01    0.17       0.0  T
   2   -185.4825563  0.134521E-01  0.574E-01    0.08       1.0  T
   3   -185.4937936 -0.112373E-01  0.275E-01    0.27       1.0  T
   4   -185.4963593 -0.256572E-02  0.134E-01    0.16       1.0  T
   5   -185.4968417 -0.482418E-03  0.131E-01    0.19       1.0  T
   6   -185.4973363 -0.494619E-03  0.842E-02    0.18       1.0  T
   7   -185.4975514 -0.215090E-03  0.437E-02    0.16       1.0  T
   8   -185.4976522 -0.100737E-03  0.115E-02    0.15       1.0  T
   9   -185.4976561 -0.389253E-05  0.100E-02    0.15       1.1  T
  10   -185.4976604 -0.432520E-05  0.223E-03    0.15       4.8  T
  11   -185.4976600  0.368363E-06  0.392E-03    0.16       2.7  T
     SCC iter.                  ...        0 min,  0.150 sec
     gradient                   ...        0 min,  0.018 sec
 * total energy  :  -182.5939911 Eh     change       -0.1591388E-02 Eh
   gradient norm :     0.0231561 Eh/α   predicted    -0.1213959E-02 ( -23.72%)
   displ. norm   :     0.4635870 α      lambda       -0.2122361E-02
   maximum displ.:     0.2002111 α      in ANC's #5, #16, #6, ...

........................................................................
.............................. CYCLE   29 ..............................
........................................................................
   1   -185.4854483 -0.185485E+03  0.420E-01    0.18       0.0  T
   2   -185.4778280  0.762033E-02  0.466E-01    0.11       1.0  T
   3   -185.4815232 -0.369520E-02  0.346E-01    0.38       1.0  T
   4   -185.4856917 -0.416845E-02  0.161E-01    0.16       1.0  T
   5   -185.4859213 -0.229662E-03  0.191E-01    0.23       1.0  T
   6   -185.4869099 -0.988554E-03  0.129E-01    0.20       1.0  T
   7   -185.4875648 -0.654870E-03  0.322E-02    0.16       1.0  T
   8   -185.4874791  0.856922E-04  0.653E-02    0.15       1.0  T
   9   -185.4876533 -0.174246E-03  0.211E-02    0.16       1.0  T
  10   -185.4876708 -0.174433E-04  0.968E-03    0.17       1.1  T
  11   -185.4876734 -0.261787E-05  0.767E-03    0.17       1.4  T
  12   -185.4876759 -0.252726E-05  0.139E-03    0.17       7.7  T
  13   -185.4876759 -0.390462E-07  0.858E-04    0.17      12.5  T
     SCC iter.                  ...        0 min,  0.172 sec
     gradient                   ...        0 min,  0.019 sec
 * total energy  :  -182.5941136 Eh     change       -0.1224464E-03 Eh
   gradient norm :     0.0423389 Eh/α   predicted    -0.1289243E-02 ( 952.90%)
   displ. norm   :     0.1593464 α      lambda       -0.1825063E-02
   maximum displ.:     0.0578063 α      in ANC's #34, #22, #14, ...

........................................................................
.............................. CYCLE   30 ..............................
........................................................................
   1   -185.4968772 -0.185497E+03  0.144E-01    0.16       0.0  T
   2   -185.4968595  0.176746E-04  0.899E-02    0.16       1.0  T
   3   -185.4961144  0.745114E-03  0.109E-01    0.18       1.0  T
   4   -185.4957481  0.366289E-03  0.160E-01    0.13       1.0  T
   5   -185.4969658 -0.121773E-02  0.339E-02    0.17       1.0  T
   6   -185.4970217 -0.558964E-04  0.110E-02    0.17       1.0  T
   7   -185.4970281 -0.638903E-05  0.664E-03    0.16       1.6  T
   8   -185.4970298 -0.175289E-05  0.358E-03    0.16       3.0  T
   9   -185.4970304 -0.533033E-06  0.936E-04    0.16      11.5  T
     SCC iter.                  ...        0 min,  0.123 sec
     gradient                   ...        0 min,  0.019 sec
 * total energy  :  -182.5948367 Eh     change       -0.7231495E-03 Eh
   gradient norm :     0.0114476 Eh/α   predicted    -0.9357068E-03 (  29.39%)
   displ. norm   :     0.0644394 α      lambda       -0.2731891E-03
   maximum displ.:     0.0204855 α      in ANC's #39, #12, #143, ...

........................................................................
.............................. CYCLE   31 ..............................
........................................................................
   1   -185.4966537 -0.185497E+03  0.724E-02    0.16       0.0  T
   2   -185.4965733  0.804316E-04  0.587E-02    0.17       1.0  T
   3   -185.4955102  0.106313E-02  0.159E-01    0.13       1.0  T
   4   -185.4965791 -0.106892E-02  0.498E-02    0.17       1.0  T
   5   -185.4967194 -0.140338E-03  0.135E-02    0.16       1.0  T
   6   -185.4967222 -0.281215E-05  0.112E-02    0.16       1.0  T
   7   -185.4967287 -0.642149E-05  0.480E-03    0.16       2.2  T
   8   -185.4967298 -0.117556E-05  0.160E-03    0.16       6.7  T
   9   -185.4967300 -0.171828E-06  0.663E-04    0.16      16.2  T
     SCC iter.                  ...        0 min,  0.121 sec
     gradient                   ...        0 min,  0.019 sec
 * total energy  :  -182.5949702 Eh     change       -0.1334155E-03 Eh
   gradient norm :     0.0047271 Eh/α   predicted    -0.1371650E-03 (   2.81%)
   displ. norm   :     0.2139213 α      lambda       -0.1890001E-03
   maximum displ.:     0.1095752 α      in ANC's #5, #16, #7, ...

........................................................................
.............................. CYCLE   32 ..............................
........................................................................
   1   -185.4950593 -0.185495E+03  0.846E-02    0.17       0.0  T
   2   -185.4945859  0.473331E-03  0.110E-01    0.14       1.0  T
   3   -185.4944873  0.986732E-04  0.113E-01    0.20       1.0  T
   4   -185.4949661 -0.478860E-03  0.425E-02    0.16       1.0  T
   5   -185.4950898 -0.123685E-03  0.236E-02    0.17       1.0  T
   6   -185.4951035 -0.136877E-04  0.153E-02    0.17       1.0  T
   7   -185.4951136 -0.101364E-04  0.585E-03    0.17       1.8  T
   8   -185.4951154 -0.179895E-05  0.301E-03    0.16       3.6  T
   9   -185.4951157 -0.284475E-06  0.222E-03    0.16       4.8  T
  10   -185.4951159 -0.200250E-06  0.577E-04    0.17      18.6  T
     SCC iter.                  ...        0 min,  0.133 sec
     gradient                   ...        0 min,  0.019 sec
 * total energy  :  -182.5951055 Eh     change       -0.1353120E-03 Eh
   gradient norm :     0.0059067 Eh/α   predicted    -0.9882717E-04 ( -26.96%)
   displ. norm   :     0.3065040 α      lambda       -0.2328922E-03
   maximum displ.:     0.1600817 α      in ANC's #5, #16, #7, ...

........................................................................
.............................. CYCLE   33 ..............................
........................................................................
   1   -185.4943531 -0.185494E+03  0.114E-01    0.17       0.0  T
   2   -185.4938980  0.455105E-03  0.114E-01    0.15       1.0  T
   3   -185.4931221  0.775902E-03  0.158E-01    0.22       1.0  T
   4   -185.4942210 -0.109886E-02  0.455E-02    0.17       1.0  T
   5   -185.4943610 -0.140032E-03  0.330E-02    0.18       1.0  T
   6   -185.4943808 -0.197780E-04  0.226E-02    0.17       1.0  T
   7   -185.4944046 -0.238418E-04  0.493E-03    0.17       2.2  T
   8   -185.4944048 -0.202921E-06  0.726E-03    0.17       1.5  T
   9   -185.4944066 -0.183270E-05  0.387E-03    0.17       2.8  T
  10   -185.4944071 -0.504023E-06  0.170E-03    0.17       6.3  T
  11   -185.4944071  0.915145E-08  0.184E-03    0.17       5.8  T
     SCC iter.                  ...        0 min,  0.147 sec
     gradient                   ...        0 min,  0.019 sec
 * total energy  :  -182.5952528 Eh     change       -0.1473502E-03 Eh
   gradient norm :     0.0074020 Eh/α   predicted    -0.1273882E-03 ( -13.55%)
   displ. norm   :     0.2803693 α      lambda       -0.1513126E-03
   maximum displ.:     0.1526114 α      in ANC's #5, #7, #6, ...

........................................................................
.............................. CYCLE   34 ..............................
........................................................................
   1   -185.4956354 -0.185496E+03  0.749E-02    0.18       0.0  T
   2   -185.4950318  0.603557E-03  0.121E-01    0.15       1.0  T
   3   -185.4954153 -0.383480E-03  0.756E-02    0.19       1.0  T
   4   -185.4956248 -0.209529E-03  0.202E-02    0.17       1.0  T
   5   -185.4956391 -0.142598E-04  0.205E-02    0.18       1.0  T
   6   -185.4956505 -0.114027E-04  0.127E-02    0.17       1.0  T
   7   -185.4956586 -0.806996E-05  0.219E-03    0.17       4.9  T
   8   -185.4956588 -0.248591E-06  0.148E-03    0.17       7.3  T
   9   -185.4956589 -0.803379E-07  0.107E-03    0.17      10.1  T
     SCC iter.                  ...        0 min,  0.119 sec
     gradient                   ...        0 min,  0.019 sec
 * total energy  :  -182.5953726 Eh     change       -0.1197767E-03 Eh
   gradient norm :     0.0064986 Eh/α   predicted    -0.8160461E-04 ( -31.87%)
   displ. norm   :     0.4008582 α      lambda       -0.2177859E-03
   maximum displ.:     0.2242473 α      in ANC's #5, #7, #6, ...

........................................................................
.............................. CYCLE   35 ..............................
........................................................................
   1   -185.4958295 -0.185496E+03  0.119E-01    0.18       0.0  T
   2   -185.4943393  0.149016E-02  0.188E-01    0.14       1.0  T
   3   -185.4952206 -0.881348E-03  0.123E-01    0.21       1.0  T
   4   -185.4957666 -0.545991E-03  0.408E-02    0.18       1.0  T
   5   -185.4958314 -0.648079E-04  0.374E-02    0.19       1.0  T
   6   -185.4958601 -0.286554E-04  0.260E-02    0.18       1.0  T
   7   -185.4958900 -0.298665E-04  0.617E-03    0.18       1.7  T
   8   -185.4958917 -0.177612E-05  0.376E-03    0.17       2.8  T
   9   -185.4958923 -0.579143E-06  0.212E-03    0.18       5.1  T
  10   -185.4958925 -0.205066E-06  0.529E-04    0.18      20.3  T
     SCC iter.                  ...        0 min,  0.137 sec
     gradient                   ...        0 min,  0.019 sec
 * total energy  :  -182.5955414 Eh     change       -0.1688370E-03 Eh
   gradient norm :     0.0058005 Eh/α   predicted    -0.1263923E-03 ( -25.14%)
   displ. norm   :     0.4391070 α      lambda       -0.2281458E-03
   maximum displ.:     0.2514750 α      in ANC's #5, #7, #6, ...

........................................................................
.............................. CYCLE   36 ..............................
........................................................................
   1   -185.4983792 -0.185498E+03  0.132E-01    0.19       0.0  T
   2   -185.4971476  0.123167E-02  0.175E-01    0.15       1.0  T
   3   -185.4973765 -0.228983E-03  0.150E-01    0.23       1.0  T
   4   -185.4982841 -0.907560E-03  0.473E-02    0.18       1.0  T
   5   -185.4983706 -0.865436E-04  0.425E-02    0.19       1.0  T
   6   -185.4984093 -0.386250E-04  0.287E-02    0.19       1.0  T
   7   -185.4984467 -0.374271E-04  0.519E-03    0.18       2.1  T
   8   -185.4984472 -0.487495E-06  0.663E-03    0.18       1.6  T
   9   -185.4984486 -0.142459E-05  0.380E-03    0.18       2.8  T
  10   -185.4984492 -0.641394E-06  0.848E-04    0.18      12.6  T
  11   -185.4984492  0.475709E-07  0.149E-03    0.18       7.2  T
     SCC iter.                  ...        0 min,  0.155 sec
     gradient                   ...        0 min,  0.019 sec
 * total energy  :  -182.5957067 Eh     change       -0.1652709E-03 Eh
   gradient norm :     0.0070527 Eh/α   predicted    -0.1360686E-03 ( -17.67%)
   displ. norm   :     0.4576235 α      lambda       -0.1920357E-03
   maximum displ.:     0.2690507 α      in ANC's #5, #7, #6, ...

........................................................................
.............................. CYCLE   37 ..............................
........................................................................
   1   -185.4965262 -0.185497E+03  0.143E-01    0.19       0.0  T
   2   -185.4950158  0.151046E-02  0.192E-01    0.15       1.0  T
   3   -185.4954988 -0.483055E-03  0.153E-01    0.24       1.0  T
   4   -185.4964196 -0.920752E-03  0.513E-02    0.19       1.0  T
   5   -185.4965008 -0.811975E-04  0.488E-02    0.20       1.0  T
   6   -185.4965561 -0.553016E-04  0.320E-02    0.19       1.0  T
   7   -185.4966020 -0.459035E-04  0.531E-03    0.18       2.0  T
   8   -185.4966025 -0.492848E-06  0.688E-03    0.18       1.6  T
   9   -185.4966043 -0.177389E-05  0.339E-03    0.18       3.2  T
  10   -185.4966047 -0.493677E-06  0.883E-04    0.18      12.1  T
  11   -185.4966047  0.268032E-07  0.135E-03    0.18       7.9  T
     SCC iter.                  ...        0 min,  0.151 sec
     gradient                   ...        0 min,  0.019 sec
 * total energy  :  -182.5958501 Eh     change       -0.1434090E-03 Eh
   gradient norm :     0.0056275 Eh/α   predicted    -0.1161282E-03 ( -19.02%)
   displ. norm   :     0.3615263 α      lambda       -0.1611997E-03
   maximum displ.:     0.2176792 α      in ANC's #5, #7, #6, ...

........................................................................
.............................. CYCLE   38 ..............................
........................................................................
   1   -185.4974891 -0.185497E+03  0.120E-01    0.19       0.0  T
   2   -185.4972111  0.278015E-03  0.966E-02    0.17       1.0  T
   3   -185.4960125  0.119855E-02  0.167E-01    0.25       1.0  T
   4   -185.4974470 -0.143443E-02  0.317E-02    0.19       1.0  T
   5   -185.4974797 -0.327578E-04  0.313E-02    0.19       1.0  T
   6   -185.4975111 -0.313409E-04  0.162E-02    0.19       1.0  T
   7   -185.4975194 -0.832683E-05  0.973E-03    0.18       1.1  T
   8   -185.4975220 -0.254958E-05  0.793E-03    0.18       1.4  T
   9   -185.4975242 -0.227783E-05  0.345E-03    0.18       3.1  T
  10   -185.4975247 -0.462356E-06  0.156E-03    0.18       6.9  T
  11   -185.4975247 -0.277573E-07  0.155E-03    0.18       6.9  T
     SCC iter.                  ...        0 min,  0.149 sec
     gradient                   ...        0 min,  0.019 sec
 * total energy  :  -182.5959813 Eh     change       -0.1311472E-03 Eh
   gradient norm :     0.0053642 Eh/α   predicted    -0.9113514E-04 ( -30.51%)
   displ. norm   :     0.4237796 α      lambda       -0.1790383E-03
   maximum displ.:     0.2579866 α      in ANC's #5, #7, #6, ...

........................................................................
.............................. CYCLE   39 ..............................
........................................................................
   1   -185.4968702 -0.185497E+03  0.138E-01    0.19       0.0  T
   2   -185.4967143  0.155921E-03  0.916E-02    0.17       1.0  T
   3   -185.4949071  0.180722E-02  0.188E-01    0.27       1.0  T
   4   -185.4968514 -0.194427E-02  0.271E-02    0.19       1.0  T
   5   -185.4968507  0.624539E-06  0.317E-02    0.19       1.0  T
   6   -185.4968923 -0.415529E-04  0.128E-02    0.19       1.0  T
   7   -185.4968921  0.206591E-06  0.131E-02    0.18       1.0  T
   8   -185.4968977 -0.563940E-05  0.879E-03    0.18       1.2  T
   9   -185.4969011 -0.333399E-05  0.177E-03    0.19       6.1  T
  10   -185.4969011 -0.409005E-07  0.156E-03    0.19       6.9  T
  11   -185.4969012 -0.531465E-07  0.143E-03    0.19       7.5  T
     SCC iter.                  ...        0 min,  0.157 sec
     gradient                   ...        0 min,  0.021 sec
 * total energy  :  -182.5961245 Eh     change       -0.1432490E-03 Eh
   gradient norm :     0.0051387 Eh/α   predicted    -0.1055978E-03 ( -26.28%)
   displ. norm   :     0.4326822 α      lambda       -0.1640779E-03
   maximum displ.:     0.2650651 α      in ANC's #5, #7, #6, ...

........................................................................
.............................. CYCLE   40 ..............................
........................................................................
   1   -185.4968839 -0.185497E+03  0.144E-01    0.19       0.0  T
   2   -185.4967615  0.122473E-03  0.903E-02    0.17       1.0  T
   3   -185.4948891  0.187234E-02  0.189E-01    0.27       1.0  T
   4   -185.4968648 -0.197563E-02  0.259E-02    0.19       1.0  T
   5   -185.4968663 -0.153095E-05  0.314E-02    0.19       1.0  T
   6   -185.4969085 -0.422090E-04  0.121E-02    0.19       1.0  T
   7   -185.4969081  0.370970E-06  0.125E-02    0.18       1.0  T
   8   -185.4969136 -0.543313E-05  0.852E-03    0.18       1.3  T
   9   -185.4969165 -0.291603E-05  0.269E-03    0.19       4.0  T
  10   -185.4969167 -0.264993E-06  0.153E-03    0.19       7.0  T
     SCC iter.                  ...        0 min,  0.135 sec
     gradient                   ...        0 min,  0.019 sec
 * total energy  :  -182.5962529 Eh     change       -0.1283920E-03 Eh
   gradient norm :     0.0052965 Eh/α   predicted    -0.9740219E-04 ( -24.14%)
   displ. norm   :     0.4432053 α      lambda       -0.1583583E-03
   maximum displ.:     0.2739016 α      in ANC's #5, #7, #6, ...

........................................................................
.............................. CYCLE   41 ..............................
........................................................................
   1   -185.4959409 -0.185496E+03  0.142E-01    0.19       0.0  T
   2   -185.4958651  0.757328E-04  0.852E-02    0.18       1.0  T
   3   -185.4941299  0.173520E-02  0.180E-01    0.27       1.0  T
   4   -185.4959324 -0.180251E-02  0.209E-02    0.19       1.0  T
   5   -185.4959296  0.281200E-05  0.262E-02    0.19       1.0  T
   6   -185.4959624 -0.327926E-04  0.869E-03    0.19       1.2  T
   7   -185.4959615  0.897568E-06  0.978E-03    0.18       1.1  T
   8   -185.4959649 -0.334221E-05  0.669E-03    0.18       1.6  T
   9   -185.4959666 -0.172913E-05  0.237E-03    0.19       4.5  T
  10   -185.4959668 -0.194253E-06  0.124E-03    0.19       8.6  T
     SCC iter.                  ...        0 min,  0.140 sec
     gradient                   ...        0 min,  0.019 sec
 * total energy  :  -182.5963703 Eh     change       -0.1174050E-03 Eh
   gradient norm :     0.0051418 Eh/α   predicted    -0.9472024E-04 ( -19.32%)
   displ. norm   :     0.4365729 α      lambda       -0.1523151E-03
   maximum displ.:     0.2677179 α      in ANC's #5, #7, #6, ...

........................................................................
.............................. CYCLE   42 ..............................
........................................................................
   1   -185.4967790 -0.185497E+03  0.139E-01    0.19       0.0  T
   2   -185.4965066  0.272384E-03  0.106E-01    0.17       1.0  T
   3   -185.4949635  0.154311E-02  0.184E-01    0.27       1.0  T
   4   -185.4967440 -0.178054E-02  0.314E-02    0.19       1.0  T
   5   -185.4967469 -0.291728E-05  0.375E-02    0.20       1.0  T
   6   -185.4967980 -0.510722E-04  0.192E-02    0.19       1.0  T
   7   -185.4968061 -0.812143E-05  0.126E-02    0.18       1.0  T
   8   -185.4968108 -0.468311E-05  0.101E-02    0.18       1.1  T
   9   -185.4968146 -0.379588E-05  0.423E-03    0.19       2.5  T
  10   -185.4968154 -0.782740E-06  0.873E-04    0.19      12.3  T
  11   -185.4968154  0.222388E-07  0.137E-03    0.19       7.8  T
     SCC iter.                  ...        0 min,  0.150 sec
     gradient                   ...        0 min,  0.019 sec
 * total energy  :  -182.5964876 Eh     change       -0.1173078E-03 Eh
   gradient norm :     0.0055805 Eh/α   predicted    -0.9067563E-04 ( -22.70%)
   displ. norm   :     0.4489994 α      lambda       -0.1464657E-03
   maximum displ.:     0.2818238 α      in ANC's #5, #7, #6, ...
 * RMSD in coord.:     0.6475546 α      energy gain  -0.8551633E-02 Eh

generating ANC from model Hessian ...
Using Lindh-Hessian (1995)
 Shifting diagonal of input Hessian by   5.012465474255492E-003
 Lowest  eigenvalues of input Hessian
    0.005000   -0.000000    0.000000    0.000000    0.000000    0.000000
    0.000000    0.005014    0.005076    0.005110    0.005137    0.005324
    0.005489    0.005556    0.005760    0.006049    0.006095    0.006351
 Highest eigenvalues
    2.296706    2.427961    2.605849    2.606927    2.642689    2.650785
 

........................................................................
.............................. CYCLE   43 ..............................
........................................................................
   1   -185.4970065 -0.185497E+03  0.136E-01    0.19       0.0  T
   2   -185.4966974  0.309120E-03  0.109E-01    0.17       1.0  T
   3   -185.4953439  0.135348E-02  0.176E-01    0.26       1.0  T
   4   -185.4969736 -0.162967E-02  0.302E-02    0.19       1.0  T
   5   -185.4969828 -0.921265E-05  0.357E-02    0.20       1.0  T
   6   -185.4970262 -0.433830E-04  0.190E-02    0.19       1.0  T
   7   -185.4970351 -0.886174E-05  0.111E-02    0.19       1.0  T
   8   -185.4970386 -0.352551E-05  0.943E-03    0.19       1.1  T
   9   -185.4970418 -0.315818E-05  0.440E-03    0.19       2.4  T
  10   -185.4970426 -0.833430E-06  0.684E-04    0.19      15.7  T
  11   -185.4970426  0.379862E-07  0.135E-03    0.19       8.0  T
  12   -185.4970426 -0.629677E-07  0.669E-04    0.19      16.0  T
     SCC iter.                  ...        0 min,  0.171 sec
     gradient                   ...        0 min,  0.020 sec
 * total energy  :  -182.5966044 Eh     change       -0.1167960E-03 Eh
   gradient norm :     0.0053490 Eh/α   predicted     0.0000000E+00 (-100.00%)
   displ. norm   :     0.0785537 α      lambda       -0.6486795E-04
   maximum displ.:     0.0360712 α      in ANC's #5, #3, #1, ...

........................................................................
.............................. CYCLE   44 ..............................
........................................................................
   1   -185.4977025 -0.185498E+03  0.318E-02    0.19       0.0  T
   2   -185.4974642  0.238306E-03  0.707E-02    0.17       1.0  T
   3   -185.4976946 -0.230455E-03  0.227E-02    0.20       1.0  T
   4   -185.4977098 -0.151206E-04  0.671E-03    0.19       1.6  T
   5   -185.4977127 -0.297344E-05  0.345E-03    0.19       3.1  T
   6   -185.4977129 -0.141148E-06  0.243E-03    0.19       4.4  T
   7   -185.4977132 -0.351746E-06  0.664E-04    0.19      16.2  T
     SCC iter.                  ...        0 min,  0.098 sec
     gradient                   ...        0 min,  0.019 sec
 * total energy  :  -182.5966571 Eh     change       -0.5265869E-04 Eh
   gradient norm :     0.0030123 Eh/α   predicted    -0.3265593E-04 ( -37.99%)
   displ. norm   :     0.1179376 α      lambda       -0.8947237E-04
   maximum displ.:     0.0584216 α      in ANC's #5, #16, #3, ...

........................................................................
.............................. CYCLE   45 ..............................
........................................................................
   1   -185.4986915 -0.185499E+03  0.590E-02    0.20       0.0  T
   2   -185.4983417  0.349876E-03  0.893E-02    0.17       1.0  T
   3   -185.4985558 -0.214154E-03  0.586E-02    0.21       1.0  T
   4   -185.4987041 -0.148243E-03  0.101E-02    0.19       1.1  T
   5   -185.4987061 -0.199511E-05  0.967E-03    0.20       1.1  T
   6   -185.4987085 -0.247020E-05  0.559E-03    0.19       1.9  T
   7   -185.4987102 -0.167114E-05  0.121E-03    0.19       8.9  T
   8   -185.4987103 -0.830345E-07  0.999E-04    0.19      10.7  T
   9   -185.4987103 -0.318492E-07  0.670E-04    0.19      16.0  T
     SCC iter.                  ...        0 min,  0.129 sec
     gradient                   ...        0 min,  0.020 sec
 * total energy  :  -182.5966503 Eh     change        0.6790121E-05 Eh
   gradient norm :     0.0051100 Eh/α   predicted    -0.4536324E-04 (-768.08%)
   displ. norm   :     0.1018878 α      lambda       -0.1460777E-03
   maximum displ.:     0.0487130 α      in ANC's #8, #5, #1, ...

........................................................................
.............................. CYCLE   46 ..............................
........................................................................
   1   -185.4993886 -0.185499E+03  0.522E-02    0.20       0.0  T
   2   -185.4992532  0.135435E-03  0.589E-02    0.18       1.0  T
   3   -185.4991788  0.744258E-04  0.662E-02    0.22       1.0  T
   4   -185.4993913 -0.212559E-03  0.800E-03    0.19       1.3  T
   5   -185.4993962 -0.489389E-05  0.668E-03    0.20       1.6  T
   6   -185.4993972 -0.102768E-05  0.491E-03    0.20       2.2  T
   7   -185.4993985 -0.121374E-05  0.125E-03    0.19       8.6  T
   8   -185.4993985 -0.740856E-07  0.845E-04    0.19      12.7  T
     SCC iter.                  ...        0 min,  0.111 sec
     gradient                   ...        0 min,  0.018 sec
 * total energy  :  -182.5967304 Eh     change       -0.8011130E-04 Eh
   gradient norm :     0.0033885 Eh/α   predicted    -0.7379842E-04 (  -7.88%)
[...]
       156        2.0000           -0.4191943             -11.4069
       157        2.0000           -0.4189109             -11.3991
       158        2.0000           -0.4165585             -11.3351
       159        2.0000           -0.4156391             -11.3101
       160        2.0000           -0.4119453             -11.2096
       161        2.0000           -0.4107392             -11.1768
       162        2.0000           -0.4021784             -10.9438
       163        2.0000           -0.4009062             -10.9092
       164        2.0000           -0.3965669             -10.7911
       165        1.9691           -0.3850772             -10.4785 (HOMO)
       166        0.0305           -0.3771683             -10.2633 (LUMO)
       167        0.0004           -0.3729873             -10.1495
       168                         -0.3508996              -9.5485
       169                         -0.3440724              -9.3627
       170                         -0.3351043              -9.1187
       171                         -0.3296110              -8.9692
       172                         -0.3249791              -8.8431
       173                         -0.3076837              -8.3725
       174                         -0.3043997              -8.2831
       175                         -0.2884610              -7.8494
       176                         -0.2875113              -7.8236
       ...                                ...                  ...
       323                          1.1582311              31.5171
      -------------------------------------------------------------
                  HL-Gap            0.0079088 Eh            0.2152 eV
             Fermi-level           -0.3811287 Eh          -10.3710 eV

     #   Z        covCN         q      C6AA      α(0)
     1   6 C      3.010     0.036    27.182     8.552
     2   6 C      2.947     0.010    27.805     8.649
     3   6 C      1.937     0.124    28.034     8.551
     4   7 N      0.911    -0.226    25.934     7.365
     5   6 C      1.937     0.123    28.066     8.555
     6   7 N      0.911    -0.231    26.055     7.382
     7   6 C      3.040     0.005    27.864     8.658
     8   6 C      3.036    -0.015    28.345     8.733
     9   6 C      2.909    -0.011    28.289     8.721
    10   6 C      3.150     0.014    27.429     8.567
    11   6 C      3.009     0.036    27.180     8.552
    12   6 C      2.932    -0.034    28.839     8.807
    13  16 S      2.255    -0.000   141.064    19.990
    14   6 C      2.937    -0.009    28.245     8.716
    15   6 C      3.069    -0.043    28.988     8.828
    16   6 C      2.868     0.240    22.996     7.861
    17   8 O      0.856    -0.360    20.906     6.130
    18   6 C      3.012    -0.010    28.238     8.717
    19   6 C      2.894    -0.009    28.238     8.712
    20   6 C      3.036     0.024    27.439     8.592
    21   6 C      3.168     0.083    25.801     8.299
    22   7 N      1.853    -0.201    26.187     7.585
    23   6 C      3.261     0.101    24.675     8.025
    24   6 C      3.224    -0.004    27.362     8.501
    25   6 C      2.974     0.093    25.921     8.351
    26  16 S      1.055    -0.171   146.359    20.461
    27   6 C      3.212    -0.008    27.546     8.542
    28   6 C      3.268     0.093    24.746     8.025
    29   7 N      1.853    -0.202    26.219     7.589
    30   6 C      3.168     0.071    26.073     8.343
    31   6 C      3.032    -0.003    28.074     8.691
    32   6 C      3.018     0.072    26.369     8.423
    33   6 C      3.151    -0.058    29.136     8.829
    34   6 C      3.137    -0.057    29.175     8.840
    35   6 C      2.962     0.211    23.547     7.959
    36   8 O      1.704    -0.266    18.410     5.793
    37   7 N      2.819    -0.101    23.205     7.155
    38   6 C      2.950     0.151    24.731     8.157
    39   8 O      1.719    -0.234    17.875     5.708
    40   6 C      2.808     0.355    20.985     7.505
    41   8 O      0.865    -0.349    20.681     6.097
    42   6 C      3.012    -0.019    28.458     8.751
    43   6 C      3.134     0.087    25.860     8.324
    44   7 N      1.851    -0.193    26.008     7.558
    45   6 C      3.252     0.096    24.896     8.075
    46   6 C      3.192    -0.011    27.793     8.598
    47   6 C      2.982     0.013    27.728     8.638
    48  16 S      1.930     0.061   138.564    19.812
    49   6 C      3.223    -0.011    27.537     8.529
    50   6 C      3.262     0.072    25.260     8.118
    51   7 N      1.852    -0.184    25.810     7.530
    52   6 C      3.155     0.070    26.152     8.363
    53   6 C      3.035     0.015    27.654     8.625
    54   6 C      2.897    -0.008    28.222     8.710
    55   6 C      3.010    -0.019    28.474     8.753
    56   6 C      3.013     0.039    27.105     8.540
    57   6 C      2.947     0.013    27.735     8.638
    58   6 C      1.934     0.130    27.918     8.533
    59   7 N      0.911    -0.240    26.274     7.413
    60   6 C      1.934     0.121    28.118     8.563
    61   7 N      0.911    -0.230    26.036     7.380
    62   6 C      3.043     0.007    27.814     8.650
    63   6 C      3.037    -0.022    28.518     8.759
    64   6 C      2.869     0.229    23.202     7.896
    65   8 O      0.856    -0.349    20.679     6.097
    66   6 C      2.909    -0.017    28.431     8.743
    67   6 C      3.149     0.010    27.510     8.580
    68   6 C      3.010     0.035    27.210     8.557
    69   6 C      2.932    -0.033    28.824     8.805
    70  16 S      2.257    -0.004   141.214    20.000
    71   6 C      2.937    -0.008    28.213     8.711
    72   6 C      3.071    -0.044    29.022     8.833
    73   1 H      0.926     0.087     1.906     2.159
    74   1 H      0.926     0.063     2.168     2.303
    75   1 H      0.926     0.059     2.209     2.324
    76   1 H      0.926     0.058     2.223     2.332
    77   1 H      0.925     0.073     2.049     2.238
    78   1 H      0.926     0.074     2.041     2.234
    79   1 H      0.926     0.059     2.205     2.322
    80   1 H      0.860     0.201     1.100     1.643
    81   1 H      0.926     0.075     2.031     2.229
    82   1 H      0.926     0.068     2.110     2.271
    83   1 H      0.925     0.088     1.894     2.152
    84   1 H      0.926     0.069     2.096     2.264
    85   1 H      0.926     0.060     2.200     2.319
    86   1 H      0.926     0.061     2.184     2.311
    87   1 H      0.926     0.057     2.229     2.335

 Mol. C6AA /au·bohr⁶  :     174162.980349
 Mol. C8AA /au·bohr⁸  :    4974643.534265
 Mol. α(0) /au        :        670.035014


Wiberg/Mayer (AO) data.
largest (>0.10) Wiberg bond orders for each atom
          total WBO             WBO to atom ...
     1  C   3.973        C    2 1.494    C   18 1.109    C    7 1.105
     2  C   3.943        C    1 1.494    C    5 1.096    C    3 1.094
     3  C   3.947        N    4 2.771    C    2 1.094
     4  N   2.974        C    3 2.771
     5  C   3.946        N    6 2.765    C    2 1.096
     6  N   2.969        C    5 2.765
     7  C   3.985        C   12 1.420    C    8 1.230    C    1 1.105
     8  C   3.978        C    9 1.462    C    7 1.230    C   16 1.033
     9  C   3.980        C    8 1.462    C   10 1.325    H   73 0.957
    10  C   3.973        C    9 1.325    C   11 1.258    C   15 1.206
    11  C   3.954        C   12 1.383    C   10 1.258    S   13 1.131
    12  C   3.977        C    7 1.420    C   11 1.383    H   74 0.959
    13  S   2.569        C   14 1.163    C   11 1.131
    14  C   3.935        C   15 1.670    S   13 1.163    H   75 0.969
    15  C   3.979        C   14 1.670    C   10 1.206    H   76 0.961
    16  C   3.927        O   17 1.791    C    8 1.033    C   18 0.982
    17  O   2.064        C   16 1.791
    18  C   3.958        C   19 1.633    C    1 1.109    C   16 0.982
    19  C   3.958        C   18 1.633    C   20 1.166    H   77 0.939
    20  C   3.955        C   24 1.482    C   19 1.166    C   21 1.082
    21  C   3.860        N   22 1.640    C   20 1.082    H   78 0.963
    22  N   3.059        C   21 1.640    C   23 1.196
    23  C   3.931        C   28 1.437    N   22 1.196    C   24 1.032
    24  C   3.941        C   20 1.482    C   25 1.145    C   23 1.032
    25  C   3.967        S   26 1.572    C   27 1.148    C   24 1.145
    26  S   2.168        C   25 1.572
    27  C   3.944        C   31 1.469    C   25 1.148    C   28 1.038
    28  C   3.943        C   23 1.437    N   29 1.204    C   27 1.038
    29  N   3.057        C   30 1.638    C   28 1.204
    30  C   3.877        N   29 1.638    C   31 1.097    H   79 0.964
    31  C   3.960        C   27 1.469    C   32 1.160    C   30 1.097
    32  C   3.937        C   33 1.368    N   37 1.174    C   31 1.160
    33  C   3.950        C   32 1.368    C   34 1.212    C   40 1.081
    34  C   3.966        C   35 1.316    C   33 1.212    C   38 1.185
    35  C   3.880        C   34 1.316    N   37 1.202    O   36 1.141
    36  O   2.287        C   35 1.141    S   48 0.946
    37  N   3.562        C   35 1.202    C   32 1.174    H   80 0.928
    38  C   3.909        C   42 1.405    C   34 1.185    O   39 1.068
    39  O   2.362        C   38 1.068    C   40 1.006    O   41 0.117
    40  C   3.906        O   41 1.728    C   33 1.081    O   39 1.006
    41  O   2.072        C   40 1.728    O   39 0.117
    42  C   3.968        C   38 1.405    C   46 1.206    C   43 1.105
    43  C   3.875        N   44 1.636    C   42 1.105    H   81 0.962
    44  N   3.034        C   43 1.636    C   45 1.210
    45  C   3.952        C   50 1.486    N   44 1.210    C   46 0.991
    46  C   3.964        C   47 1.478    C   42 1.206    C   45 0.991
    47  C   3.923        C   46 1.478    S   48 1.136    C   49 1.074
    48  S   2.444        C   47 1.136    O   36 0.946
    49  C   3.951        C   53 1.521    C   47 1.074    C   50 1.059
    50  C   3.949        C   45 1.486    N   51 1.140    C   49 1.059
    51  N   3.089        C   52 1.745    C   50 1.140
    52  C   3.900        N   51 1.745    C   53 1.017    H   82 0.963
    53  C   3.945        C   49 1.521    C   54 1.185    C   52 1.017
    54  C   3.958        C   55 1.612    C   53 1.185    H   83 0.939
    55  C   3.957        C   54 1.612    C   56 1.115    C   64 0.990
    56  C   3.972        C   57 1.491    C   55 1.115    C   62 1.091
    57  C   3.967        C   56 1.491    C   60 1.100    C   58 1.095
    58  C   3.945        N   59 2.765    C   57 1.095
    59  N   2.971        C   58 2.765
    60  C   3.947        N   61 2.766    C   57 1.100
    61  N   2.983        C   60 2.766
    62  C   3.984        C   69 1.429    C   63 1.236    C   56 1.091
    63  C   3.974        C   66 1.466    C   62 1.236    C   64 1.027
    64  C   3.926        O   65 1.794    C   63 1.027    C   55 0.990
    65  O   2.059        C   64 1.794
    66  C   3.983        C   63 1.466    C   67 1.325    H   84 0.962
    67  C   3.974        C   66 1.325    C   68 1.262    C   72 1.204
    68  C   3.953        C   69 1.377    C   67 1.262    S   70 1.133
    69  C   3.978        C   62 1.429    C   68 1.377    H   85 0.959
    70  S   2.568        C   71 1.161    C   68 1.133
    71  C   3.938        C   72 1.674    S   70 1.161    H   86 0.968
    72  C   3.980        C   71 1.674    C   67 1.204    H   87 0.961
    73  H   0.992        C    9 0.957
    74  H   0.995        C   12 0.959
    75  H   0.996        C   14 0.969
    76  H   0.996        C   15 0.961
    77  H   0.990        C   19 0.939
    78  H   0.994        C   21 0.963
    79  H   0.996        C   30 0.964
    80  H   0.959        N   37 0.928
    81  H   0.994        C   43 0.962
    82  H   0.995        C   52 0.963
    83  H   0.984        C   54 0.939
    84  H   0.994        C   66 0.962
    85  H   0.996        C   69 0.959
    86  H   0.995        C   71 0.968
    87  H   0.996        C   72 0.961

molecular dipole:
                 x           y           z       tot (Debye)
 q only:       -3.017      -0.453      -0.582
   full:       -3.998      -0.154      -0.777      10.360
molecular quadrupole (traceless):
                xx          xy          yy          xz          yz          zz
 q only:      123.791      21.993     -78.819      28.661     -30.645     -44.972
  q+dip:      185.555      13.590     -93.434      27.749     -26.214     -92.120
   full:      183.548      18.797     -80.546      27.625     -26.529    -103.002

           -------------------------------------------------
          |                Geometry Summary                 |
           -------------------------------------------------

      molecular mass/u    :      998.0098000
   center of mass at/Å    :       -9.7179493       2.6097377       5.7379422
  moments of inertia/u·Å² :        0.1053025E+05   0.3293901E+05   0.4109355E+05
rotational constants/cm⁻¹ :        0.1600877E-02   0.5117832E-03   0.4102258E-03

 * 80 selected distances

     #   Z        #   Z                                     value/Å
     1   6 C      2   6 C                                 1.3691188
     3   6 C      4   7 N                                 1.1476429
     5   6 C      6   7 N                                 1.1479507
     7   6 C      8   6 C                                 1.4204078
     8   6 C      9   6 C                                 1.3741099
     9   6 C     10   6 C                                 1.3970887
    10   6 C     11   6 C                                 1.4174408
     7   6 C     12   6 C                                 1.3834453
    11   6 C     12   6 C                                 1.3888995
    11   6 C     13  16 S                                 1.7354778 (max)
    13  16 S     14   6 C                                 1.7304703
    10   6 C     15   6 C                                 1.4230461
    14   6 C     15   6 C                                 1.3508228
    16   6 C     17   8 O                                 1.2083331
    18   6 C     19   6 C                                 1.3541698
    19   6 C     20   6 C                                 1.4270065
    21   6 C     22   7 N                                 1.2992034
    22   7 N     23   6 C                                 1.3659714
    20   6 C     24   6 C                                 1.3722721
    24   6 C     25   6 C                                 1.4394862
    25   6 C     26  16 S                                 1.6431034
    25   6 C     27   6 C                                 1.4397994
    23   6 C     28   6 C                                 1.3680233
    28   6 C     29   7 N                                 1.3634291
    29   7 N     30   6 C                                 1.2982113
    27   6 C     31   6 C                                 1.3750147
    31   6 C     32   6 C                                 1.4203375
    32   6 C     33   6 C                                 1.3899012
    33   6 C     34   6 C                                 1.4239565
    34   6 C     35   6 C                                 1.3884332
    35   6 C     36   8 O                                 1.3159382
    32   6 C     37   7 N                                 1.3771231
    35   6 C     37   7 N                                 1.3662666
    34   6 C     38   6 C                                 1.4177816
    38   6 C     39   8 O                                 1.3636022
    33   6 C     40   6 C                                 1.4494972
    39   8 O     40   6 C                                 1.3901001
    40   6 C     41   8 O                                 1.1995846
    38   6 C     42   6 C                                 1.3709778
    43   6 C     44   7 N                                 1.2972639
    44   7 N     45   6 C                                 1.3606632
    42   6 C     46   6 C                                 1.4180011
    46   6 C     47   6 C                                 1.3752808
    47   6 C     48  16 S                                 1.7246303
    45   6 C     50   6 C                                 1.3602031
    49   6 C     50   6 C                                 1.4687513
    50   6 C     51   7 N                                 1.3777625
    51   7 N     52   6 C                                 1.2825173
    49   6 C     53   6 C                                 1.3666894
    53   6 C     54   6 C                                 1.4197440
    54   6 C     55   6 C                                 1.3553040
    56   6 C     57   6 C                                 1.3691608
    58   6 C     59   7 N                                 1.1479703
    60   6 C     61   7 N                                 1.1476787
    62   6 C     63   6 C                                 1.4193612
    64   6 C     65   8 O                                 1.2072947
    63   6 C     66   6 C                                 1.3748634
    66   6 C     67   6 C                                 1.3979644
    67   6 C     68   6 C                                 1.4165798
    62   6 C     69   6 C                                 1.3806137
    68   6 C     69   6 C                                 1.3891829
    68   6 C     70  16 S                                 1.7353938
    70  16 S     71   6 C                                 1.7296828
    67   6 C     72   6 C                                 1.4238471
    71   6 C     72   6 C                                 1.3504181
     9   6 C     73   1 H                                 1.0775877
    12   6 C     74   1 H                                 1.0775615
    14   6 C     75   1 H                                 1.0728395
    15   6 C     76   1 H                                 1.0747369
    19   6 C     77   1 H                                 1.0826970
    21   6 C     78   1 H                                 1.0763799
    30   6 C     79   1 H                                 1.0765482
    37   7 N     80   1 H                                 1.0090630 (min)
    43   6 C     81   1 H                                 1.0758493
    52   6 C     82   1 H                                 1.0748562
    54   6 C     83   1 H                                 1.0871181
    66   6 C     84   1 H                                 1.0788296
    69   6 C     85   1 H                                 1.0769780
    71   6 C     86   1 H                                 1.0725813
    72   6 C     87   1 H                                 1.0748050

 * 6 distinct bonds (by element types)

   Z      Z             #   av. dist./Å        max./Å        min./Å
   1 H    6 C          14     1.0770977     1.0871181     1.0725813
   6 C    6 C          39     1.3960770     1.4687513     1.3504181
   1 H    7 N           1     1.0090630     1.0090630     1.0090630
   6 C    7 N          14     1.2842610     1.3777625     1.1476429
   6 C    8 O           6     1.2808088     1.3901001     1.1995846
   6 C   16 S           6     1.7164597     1.7354778     1.6431034


optimized geometry written to: xtbopt.xyz


           -------------------------------------------------
          | TOTAL ENERGY             -182.600844099141 Eh   |
          | GRADIENT NORM               0.000935775321 Eh/α |
          | HOMO-LUMO GAP               0.215210098775 eV   |
           -------------------------------------------------

------------------------------------------------------------------------
 * finished run on 2021/05/25 at 19:01:43.497     
------------------------------------------------------------------------
 total:
 * wall-time:     0 d,  0 h,  0 min, 26.713 sec
 *  cpu-time:     0 d,  0 h,  5 min,  7.061 sec
 * ratio c/w:    11.495 speedup
 SCF:
 * wall-time:     0 d,  0 h,  0 min,  0.794 sec
 *  cpu-time:     0 d,  0 h,  0 min,  7.920 sec
 * ratio c/w:     9.971 speedup
 ANC optimizer:
 * wall-time:     0 d,  0 h,  0 min, 25.804 sec
 *  cpu-time:     0 d,  0 h,  4 min, 58.421 sec
 * ratio c/w:    11.565 speedup

