      -----------------------------------------------------------      
     |                   =====================                   |     
     |                           x T B                           |     
     |                   =====================                   |     
     |                         S. Grimme                         |     
     |          Mulliken Center for Theoretical Chemistry        |     
     |                    University of Bonn                     |     
     |                Version 6.2 RC2 (SAW190805)                |     
      -----------------------------------------------------------      

   This program is distributed in the hope that it will be useful,
   but WITHOUT ANY WARRANTY; without even the implied warranty of
   MERCHANTABILITY or FITNESS FOR A PARTICULAR PURPOSE.
   
   FOR NON-COMMERCIAL, ACADEMIA USE ONLY.
   
   Cite this work as:
   * S. Grimme, C. Bannwarth, P. Shushkov, J. Chem. Theory Comput., 2017,
     13, 1989-2009. DOI: 10.1021/acs.jctc.7b00118
   * C. Bannwarth, S. Ehlert and S. Grimme., J. Chem. Theory Comput., 2019,
     15, 1652-1671. DOI: 10.1021/acs.jctc.8b01176
   * P. Pracht, E. Caldeweyher, S. Ehlert, S. Grimme, ChemRxiv, 2019, preprint.
     DOI: 10.26434/chemrxiv.8326202.v1
   
   for DFT-D4:
   * E. Caldeweyher, C. Bannwarth and S. Grimme, J. Chem. Phys., 2017,
     147, 034112. DOI: 10.1063/1.4993215
   * E. Caldeweyher, S. Ehlert, A. Hansen, H. Neugebauer, S. Spicher,
     C. Bannwarth and S. Grimme, J. Chem. Phys., 2019, 150, 154122.
     DOI: 10.1063/1.5090222
   
   for sTDA-xTB:
   * S. Grimme and C. Bannwarth, J. Chem. Phys., 2016, 145, 054103.
     DOI: 10.1063/1.4959605
   
   in the mass-spec context:
   * V. Asgeirsson, C. Bauer and S. Grimme, Chem. Sci., 2017, 8, 4879.
     DOI: 10.1039/c7sc00601b
   
   for metadynamics refer to:
   * S. Grimme, J. Chem. Theory Comput., 2019, 155, 2847-2862
     DOI: 10.1021/acs.jctc.9b00143
   
   with help from (in alphabetical order)
   C. Bannwarth, F. Bohle, G. Brandenburg, E. Caldeweyher, M. Checinski,
   S. Dohm, S. Ehlert, S. Ehrlich, F. März, H. Neugebauer, J. Pisarek,
   P. Pracht, P. Shushkov, and S. Spicher.
   
 * started run on 2021/05/25 at 23:40:42.134     

           -------------------------------------------------
          |                Calculation Setup                |
           -------------------------------------------------

          program call               : /ihome/ghutchison/geoffh/xtb/xtb /ihome/ghutchison/blp62/GA/running_GA/more_units/generations/68/55_174_156_174_55.xyz -opt
          hostname                   : smp-n205
          coordinate file            : /ihome/ghutchison/blp62/GA/running_GA/more_units/generations/68/55_174_156_174_55.xyz
          omp threads                :                    12
          number of atoms            :                   113
          number of electrons        :                   382
          charge                     :                     0
          spin                       :                   0.0
          first test random number   :      0.78652483683760


########################################################################
# WARNING! Please study the warnings concerning your input carefully
#  - XTBPATH is not set, using XTBHOME instead
#  - the use of '-opt' is discouraged, please use '--opt' next time
########################################################################

           ------------------------------------------------- 
          |                 G F N 2 - x T B                 |
          | Geometry, Frequencies, Noncovalent interactions |
          |            JCTC 2019 parametrisation            |
           ------------------------------------------------- 
             KAB for C  - Si     :                1.0500
             KAB for H  - Pd     :                0.9500
             k(s)              :                1.8500
             k(p)              :                2.2300
             k(d)              :                2.2300
             k(f)              :                2.0000
             kEN (H0ij)        :               -2.0000
             D4 a1             :                0.5200
             D4 a2             :                5.0000
             D4 s6             :                1.0000
             D4 s8             :                2.7000
             D4 s9             :                5.0000
             alphaj            :                2.0000

  Z AO/shell   Hii/eV     exponent
  1     Wed Apr 25 08:07:45 CEST 2018   EN: 2.200 GM2: 0.406  GM3: 0.0800  RAES: 1.40
     1s    -10.707211    1.230000
  6     Wed Apr 25 08:07:45 CEST 2018   EN: 2.550 GM2: 0.538  GM3: 0.1500  RAES: 3.00
     2s    -13.970922    2.096432
     2p    -10.063292    1.800000
  7     Wed Apr 25 08:07:45 CEST 2018   EN: 3.040 GM2: 0.461  GM3:-0.0640  RAES: 1.90
     2s    -16.686243    2.339881
     2p    -12.523956    2.014332
  8     Wed Apr 25 08:07:45 CEST 2018   EN: 3.440 GM2: 0.452  GM3:-0.0517  RAES: 1.80
     2s    -20.229985    2.439742
     2p    -15.503117    2.137023
  9     Mon Apr 23 13:58:50 CEST 2018   EN: 3.980 GM2: 0.532  GM3: 0.1426  RAES: 2.40
     2s    -23.458179    2.416361
     2p    -15.746583    2.308399
 16     Tue Apr 24 11:44:34 CEST 2018   EN: 2.580 GM2: 0.340  GM3:-0.0502  RAES: 3.10
     3s    -20.029654    1.981333
     3p    -11.377694    2.025643
     3d     -0.420282    1.702555

           ------------------------------------------------- 
          |        Self-Consistent Charge Iterations        |
           ------------------------------------------------- 

          ...................................................
          :                      SETUP                      :
          :.................................................:
          :  # basis functions                 362          :
          :  # atomic orbitals                 361          :
          :  # shells                          195          :
          :  # electrons                       382          :
          :  max. iterations                   250          :
          :  Hamiltonian                  GFN2-xTB          :
          :  restarted?                      false          :
          :  GBSA solvation                  false          :
          :  PC potential                    false          :
          :  electronic temp.          300.0000000     K    :
          :  accuracy                    1.0000000          :
          :  -> integral cutoff          0.2500000E+02      :
          :  -> integral neglect         0.1000000E-07      :
          :  -> SCF convergence          0.1000000E-05 Eh   :
          :  -> wf. convergence          0.1000000E-03 e    :
          :  Broyden damping             0.4000000          :
          ...................................................

 iter      E             dE          RMSdq      gap      omega  full diag
   1   -214.1260601 -0.214126E+03  0.535E+00    0.38       0.0  T
   2   -214.2253731 -0.993130E-01  0.340E+00    0.76       1.0  T
   3   -213.6665157  0.558857E+00  0.254E+00    0.02       1.0  T
   4   -213.9326181 -0.266102E+00  0.140E+00    0.02       1.0  T
   5   -214.0516834 -0.119065E+00  0.110E+00    0.01       1.0  T
   6   -214.4162201 -0.364537E+00  0.625E-01    0.88       1.0  T
   7   -214.4426916 -0.264715E-01  0.420E-01    1.01       1.0  T
   8   -214.4470557 -0.436406E-02  0.310E-01    0.97       1.0  T
   9   -214.4531444 -0.608868E-02  0.198E-01    0.83       1.0  T
  10   -214.4552792 -0.213489E-02  0.107E-01    0.51       1.0  T
  11   -214.4560105 -0.731248E-03  0.563E-02    0.29       1.0  T
  12   -214.4560238 -0.133341E-04  0.377E-02    0.19       1.0  T
  13   -214.4561662 -0.142402E-03  0.266E-02    0.26       1.0  T
  14   -214.4556104  0.555880E-03  0.529E-02    0.17       1.0  T
  15   -214.4562688 -0.658476E-03  0.928E-03    0.21       1.0  T
  16   -214.4562777 -0.886765E-05  0.704E-03    0.21       1.3  T
  17   -214.4562828 -0.513907E-05  0.526E-03    0.22       1.8  T
  18   -214.4562814  0.144825E-05  0.544E-03    0.21       1.7  T
  19   -214.4562841 -0.269063E-05  0.392E-03    0.22       2.4  T
  20   -214.4562868 -0.269499E-05  0.174E-03    0.22       5.4  T
  21   -214.4562873 -0.570676E-06  0.680E-04    0.22      13.8  T
  22   -214.4562874 -0.934585E-07  0.180E-04    0.22      52.3  T

   *** convergence criteria satisfied after 22 iterations ***

         #    Occupation            Energy/Eh            Energy/eV
      -------------------------------------------------------------
         1        2.0000           -0.8403841             -22.8680
       ...           ...                  ...                  ...
       185        2.0000           -0.4094437             -11.1415
       186        2.0000           -0.4088364             -11.1250
       187        2.0000           -0.4080310             -11.1031
       188        2.0000           -0.4032566             -10.9732
       189        2.0000           -0.4007246             -10.9043
       190        2.0000           -0.3918710             -10.6634
       191        1.9724           -0.3809641             -10.3666 (HOMO)
       192        0.0276           -0.3728524             -10.1458 (LUMO)
       193                         -0.3582435              -9.7483
       194                         -0.3395825              -9.2405
       195                         -0.3375370              -9.1848
       196                         -0.3266939              -8.8898
       ...                                ...                  ...
       361                          1.0923186              29.7235
      -------------------------------------------------------------
                  HL-Gap            0.0081117 Eh            0.2207 eV
             Fermi-level           -0.3769082 Eh          -10.2562 eV

 SCC (total)                   0 d,  0 h,  0 min,  1.671 sec
 SCC setup                      ...        0 min,  0.003 sec (  0.151%)
 Dispersion                     ...        0 min,  0.005 sec (  0.292%)
 integral evaluation            ...        0 min,  0.059 sec (  3.518%)
 zeroth order Hamiltonian       ...        0 min,  0.001 sec (  0.072%)
 iterations                     ...        0 min,  1.561 sec ( 93.390%)
 molecular gradient             ...        0 min,  0.040 sec (  2.378%)
 printout                       ...        0 min,  0.003 sec (  0.192%)

         :::::::::::::::::::::::::::::::::::::::::::::::::::::
         ::                     SUMMARY                     ::
         :::::::::::::::::::::::::::::::::::::::::::::::::::::
         :: total energy            -211.084211432353 Eh    ::
         :: gradient norm              0.239939754541 Eh/a0 ::
         :: HOMO-LUMO gap              0.220731413058 eV    ::
         ::.................................................::
         :: SCC energy              -214.456287439257 Eh    ::
         :: -> isotropic ES            0.210278019798 Eh    ::
         :: -> anisotropic ES          0.007493629788 Eh    ::
         :: -> anisotropic XC          0.157209104059 Eh    ::
         :: -> dispersion             -0.164892628146 Eh    ::
         :: repulsion energy           3.372236517795 Eh    ::
         :: add. restraining           0.000000000000 Eh    ::
         :::::::::::::::::::::::::::::::::::::::::::::::::::::

      ----------------------------------------------------------- 
     |                   =====================                   |
     |                        A N C O P T                        |
     |                   =====================                   |
     |               Approximate Normal Coordinate               |
     |                Rational Function Optimizer                |
      ----------------------------------------------------------- 

          ...................................................
          :                      SETUP                      :
          :.................................................:
          :   optimization level            normal          :
          :   max. optcycles                   339          :
          :   ANC micro-cycles                  20          :
          :   degrees of freedom               333          :
          :.................................................:
          :   RF solver                   davidson          :
          :   input Hessian                  false          :
          :   write xtbopt.log                true          :
          :   linear?                        false          :
          :   energy convergence         0.5000000E-05 Eh   :
          :   grad. convergence          0.1000000E-02 Eh/α :
          :   maximium RF displ.         2.0000000          :
          :   Hlow (freq-cutoff)         0.5000000E-02      :
          :   Hmax (freq-cutoff)         5.0000000          :
          :   S6 in model hess.         20.0000000          :
          ...................................................

generating ANC from model Hessian ...
Using Lindh-Hessian (1995)
 Shifting diagonal of input Hessian by   7.182289106367796E-003
 Lowest  eigenvalues of input Hessian
    0.005000    0.006224   -0.000000   -0.000000   -0.000000   -0.000000
   -0.000000   -0.000000    0.007187    0.007200    0.007231    0.007250
    0.007261    0.007305    0.007335    0.007370    0.007528    0.007607
 Highest eigenvalues
    2.390912    2.407057    2.493065    2.508047    2.571180    2.583540
 

........................................................................
.............................. CYCLE    1 ..............................
........................................................................
   1   -214.4562874 -0.214456E+03  0.696E-05    0.22       0.0  T
   2   -214.4562874  0.309808E-08  0.134E-04    0.22      70.0  T
   3   -214.4562874 -0.392041E-08  0.263E-05    0.22     357.9  T
     SCC iter.                  ...        0 min,  0.367 sec
     gradient                   ...        0 min,  0.040 sec
 * total energy  :  -211.0842114 Eh     change        0.3564466E-07 Eh
   gradient norm :     0.2399374 Eh/α   predicted     0.0000000E+00 (-100.00%)
   displ. norm   :     0.4323214 α      lambda       -0.6229557E-01
   maximum displ.:     0.0783919 α      in ANC's #104, #173, #163, ...

........................................................................
.............................. CYCLE    2 ..............................
........................................................................
   1   -214.5265192 -0.214527E+03  0.222E-01    0.18       0.0  T
   2   -214.5249629  0.155636E-02  0.177E-01    0.39       1.0  T
   3   -214.5249226  0.402577E-04  0.147E-01    0.17       1.0  T
   4   -214.5274620 -0.253934E-02  0.667E-02    0.28       1.0  T
   5   -214.5280792 -0.617266E-03  0.221E-02    0.22       1.0  T
   6   -214.5281024 -0.231607E-04  0.149E-02    0.22       1.0  T
   7   -214.5281229 -0.204985E-04  0.710E-03    0.22       1.3  T
   8   -214.5281276 -0.471459E-05  0.409E-03    0.22       2.3  T
   9   -214.5281293 -0.171893E-05  0.194E-03    0.22       4.9  T
     SCC iter.                  ...        0 min,  0.487 sec
     gradient                   ...        0 min,  0.065 sec
 * total energy  :  -211.1275150 Eh     change       -0.4330360E-01 Eh
   gradient norm :     0.1002957 Eh/α   predicted    -0.3696976E-01 ( -14.63%)
   displ. norm   :     0.4836669 α      lambda       -0.2318541E-01
   maximum displ.:     0.1353463 α      in ANC's #23, #56, #1, ...

........................................................................
.............................. CYCLE    3 ..............................
........................................................................
   1   -214.5435968 -0.214544E+03  0.224E-01    0.16       0.0  T
   2   -214.5413880  0.220883E-02  0.184E-01    0.46       1.0  T
   3   -214.5427055 -0.131754E-02  0.143E-01    0.19       1.0  T
   4   -214.5422610  0.444510E-03  0.120E-01    0.14       1.0  T
   5   -214.5449675 -0.270649E-02  0.514E-02    0.32       1.0  T
   6   -214.5452726 -0.305038E-03  0.315E-02    0.26       1.0  T
   7   -214.5453983 -0.125777E-03  0.177E-02    0.23       1.0  T
   8   -214.5454443 -0.459647E-04  0.742E-03    0.20       1.3  T
   9   -214.5454516 -0.734114E-05  0.354E-03    0.21       2.7  T
  10   -214.5454532 -0.156006E-05  0.166E-03    0.21       5.7  T
  11   -214.5454535 -0.345966E-06  0.786E-04    0.21      12.0  T
     SCC iter.                  ...        0 min,  0.615 sec
     gradient                   ...        0 min,  0.029 sec
 * total energy  :  -211.1424415 Eh     change       -0.1492652E-01 Eh
   gradient norm :     0.0349327 Eh/α   predicted    -0.1430463E-01 (  -4.17%)
   displ. norm   :     0.5814496 α      lambda       -0.8759051E-02
   maximum displ.:     0.1830338 α      in ANC's #1, #23, #19, ...

........................................................................
.............................. CYCLE    4 ..............................
........................................................................
   1   -214.5494401 -0.214549E+03  0.218E-01    0.18       0.0  T
   2   -214.5486155  0.824571E-03  0.140E-01    0.30       1.0  T
   3   -214.4389628  0.109653E+00  0.660E-01    0.04       1.0  T
   4   -214.5461045 -0.107142E+00  0.153E-01    0.39       1.0  T
   5   -214.5491932 -0.308863E-02  0.656E-02    0.36       1.0  T
   6   -214.5492862 -0.929781E-04  0.578E-02    0.36       1.0  T
   7   -214.5494234 -0.137268E-03  0.505E-02    0.33       1.0  T
   8   -214.5494739 -0.504634E-04  0.472E-02    0.31       1.0  T
   9   -214.5495567 -0.827833E-04  0.421E-02    0.29       1.0  T
  10   -214.5496388 -0.821165E-04  0.363E-02    0.28       1.0  T
  11   -214.5498324 -0.193598E-03  0.186E-02    0.23       1.0  T
  12   -214.5499060 -0.736633E-04  0.124E-03    0.21       7.6  T
  13   -214.5499055  0.494069E-06  0.176E-03    0.21       5.3  T
  14   -214.5499061 -0.596697E-06  0.452E-04    0.21      20.8  T
     SCC iter.                  ...        0 min,  0.887 sec
     gradient                   ...        0 min,  0.036 sec
 * total energy  :  -211.1485651 Eh     change       -0.6123594E-02 Eh
   gradient norm :     0.0307382 Eh/α   predicted    -0.5860174E-02 (  -4.30%)
   displ. norm   :     0.7041218 α      lambda       -0.8189170E-02
   maximum displ.:     0.3088165 α      in ANC's #23, #19, #1, ...

........................................................................
.............................. CYCLE    5 ..............................
........................................................................
   1   -214.5585445 -0.214559E+03  0.292E-01    0.17       0.0  T
   2   -214.5573879  0.115659E-02  0.182E-01    0.35       1.0  T
   3   -214.1983532  0.359035E+00  0.119E+00    0.05       1.0  T
   4   -214.5525359 -0.354183E+00  0.203E-01    0.45       1.0  T
   5   -214.5580616 -0.552577E-02  0.870E-02    0.44       1.0  T
   6   -214.5583260 -0.264344E-03  0.774E-02    0.43       1.0  T
   7   -214.5584388 -0.112837E-03  0.710E-02    0.41       1.0  T
   8   -214.5585192 -0.803928E-04  0.676E-02    0.39       1.0  T
   9   -214.5585876 -0.684371E-04  0.642E-02    0.37       1.0  T
  10   -214.5586293 -0.416828E-04  0.616E-02    0.36       1.0  T
  11   -214.5587926 -0.163307E-03  0.524E-02    0.32       1.0  T
  12   -214.5590104 -0.217795E-03  0.387E-02    0.27       1.0  T
  13   -214.5592848 -0.274414E-03  0.127E-02    0.22       1.0  T
  14   -214.5593190 -0.341492E-04  0.164E-03    0.20       5.7  T
  15   -214.5593039  0.150664E-04  0.821E-03    0.21       1.1  T
  16   -214.5593192 -0.153183E-04  0.625E-04    0.20      15.1  T
  17   -214.5593191  0.951918E-07  0.891E-04    0.20      10.6  T
  18   -214.5593193 -0.170679E-06  0.112E-04    0.20      83.7  T
     SCC iter.                  ...        0 min,  0.831 sec
     gradient                   ...        0 min,  0.037 sec
 * total energy  :  -211.1535479 Eh     change       -0.4982751E-02 Eh
   gradient norm :     0.0327626 Eh/α   predicted    -0.6124633E-02 (  22.92%)
   displ. norm   :     0.5876598 α      lambda       -0.5177024E-02
   maximum displ.:     0.2100710 α      in ANC's #23, #19, #21, ...

........................................................................
.............................. CYCLE    6 ..............................
........................................................................
   1   -214.5685576 -0.214569E+03  0.188E-01    0.22       0.0  T
   2   -214.5681879  0.369705E-03  0.115E-01    0.17       1.0  T
   3   -214.5657035  0.248436E-02  0.131E-01    0.45       1.0  T
   4   -214.5680801 -0.237665E-02  0.586E-02    0.31       1.0  T
   5   -214.5684629 -0.382734E-03  0.342E-02    0.26       1.0  T
   6   -214.5686422 -0.179303E-03  0.161E-02    0.22       1.0  T
   7   -214.5686811 -0.389108E-04  0.636E-03    0.21       1.5  T
   8   -214.5686817 -0.632311E-06  0.488E-03    0.20       1.9  T
   9   -214.5686849 -0.319566E-05  0.273E-03    0.21       3.4  T
     SCC iter.                  ...        0 min,  0.536 sec
     gradient                   ...        0 min,  0.067 sec
 * total energy  :  -211.1574897 Eh     change       -0.3941821E-02 Eh
   gradient norm :     0.0279836 Eh/α   predicted    -0.3482440E-02 ( -11.65%)
   displ. norm   :     0.6639246 α      lambda       -0.4550949E-02
   maximum displ.:     0.2457035 α      in ANC's #23, #14, #21, ...

........................................................................
.............................. CYCLE    7 ..............................
........................................................................
   1   -214.5739627 -0.214574E+03  0.199E-01    0.21       0.0  T
   2   -214.5739398  0.228918E-04  0.115E-01    0.22       1.0  T
   3   -214.5715509  0.238888E-02  0.122E-01    0.17       1.0  T
   4   -214.5733648 -0.181389E-02  0.589E-02    0.29       1.0  T
   5   -214.5741225 -0.757712E-03  0.998E-03    0.22       1.0  T
   6   -214.5741279 -0.535638E-05  0.664E-03    0.21       1.4  T
   7   -214.5741324 -0.447896E-05  0.336E-03    0.21       2.8  T
   8   -214.5741319  0.442134E-06  0.277E-03    0.21       3.4  T
     SCC iter.                  ...        0 min,  0.456 sec
     gradient                   ...        0 min,  0.058 sec
 * total energy  :  -211.1608259 Eh     change       -0.3336182E-02 Eh
   gradient norm :     0.0283488 Eh/α   predicted    -0.3278494E-02 (  -1.73%)
   displ. norm   :     0.6608128 α      lambda       -0.3689025E-02
   maximum displ.:     0.2552754 α      in ANC's #14, #21, #2, ...

........................................................................
.............................. CYCLE    8 ..............................
........................................................................
   1   -214.5810381 -0.214581E+03  0.197E-01    0.21       0.0  T
   2   -214.5809945  0.436245E-04  0.114E-01    0.23       1.0  T
   3   -214.5723634  0.863110E-02  0.187E-01    0.13       1.0  T
   4   -214.5804951 -0.813168E-02  0.583E-02    0.31       1.0  T
   5   -214.5810491 -0.554006E-03  0.220E-02    0.25       1.0  T
   6   -214.5810888 -0.397581E-04  0.156E-02    0.24       1.0  T
   7   -214.5811339 -0.451083E-04  0.579E-03    0.23       1.6  T
   8   -214.5811389 -0.499995E-05  0.261E-03    0.22       3.6  T
   9   -214.5811396 -0.646119E-06  0.139E-03    0.22       6.7  T
     SCC iter.                  ...        0 min,  0.450 sec
     gradient                   ...        0 min,  0.057 sec
 * total energy  :  -211.1636917 Eh     change       -0.2865884E-02 Eh
   gradient norm :     0.0230184 Eh/α   predicted    -0.2649979E-02 (  -7.53%)
   displ. norm   :     0.6797080 α      lambda       -0.3261634E-02
   maximum displ.:     0.2819403 α      in ANC's #14, #2, #21, ...

........................................................................
.............................. CYCLE    9 ..............................
........................................................................
   1   -214.5933279 -0.214593E+03  0.175E-01    0.24       0.0  T
   2   -214.5933112  0.167715E-04  0.102E-01    0.21       1.0  T
   3   -214.5924850  0.826176E-03  0.760E-02    0.33       1.0  T
   4   -214.5933822 -0.897168E-03  0.174E-02    0.24       1.0  T
   5   -214.5934115 -0.293765E-04  0.769E-03    0.23       1.2  T
   6   -214.5934119 -0.377500E-06  0.632E-03    0.23       1.5  T
   7   -214.5934164 -0.444609E-05  0.327E-03    0.23       2.9  T
   8   -214.5934171 -0.750618E-06  0.248E-03    0.23       3.8  T
     SCC iter.                  ...        0 min,  0.407 sec
     gradient                   ...        0 min,  0.039 sec
 * total energy  :  -211.1661097 Eh     change       -0.2417979E-02 Eh
   gradient norm :     0.0189843 Eh/α   predicted    -0.2384261E-02 (  -1.39%)
   displ. norm   :     0.7553450 α      lambda       -0.3173091E-02
   maximum displ.:     0.2873895 α      in ANC's #14, #21, #2, ...

........................................................................
.............................. CYCLE   10 ..............................
........................................................................
   1   -214.5803300 -0.214580E+03  0.224E-01    0.22       0.0  T
   2   -214.5800106  0.319378E-03  0.132E-01    0.32       1.0  T
   3   -214.5082044  0.718062E-01  0.523E-01    0.08       1.0  T
   4   -214.5792868 -0.710824E-01  0.888E-02    0.41       1.0  T
   5   -214.5800779 -0.791146E-03  0.515E-02    0.38       1.0  T
   6   -214.5801953 -0.117398E-03  0.447E-02    0.36       1.0  T
   7   -214.5803254 -0.130067E-03  0.363E-02    0.34       1.0  T
   8   -214.5803638 -0.384777E-04  0.336E-02    0.33       1.0  T
   9   -214.5804234 -0.595722E-04  0.283E-02    0.31       1.0  T
  10   -214.5805142 -0.907429E-04  0.184E-02    0.28       1.0  T
  11   -214.5805765 -0.623418E-04  0.626E-03    0.26       1.5  T
  12   -214.5805844 -0.789366E-05  0.114E-03    0.25       8.3  T
  13   -214.5805846 -0.164851E-06  0.520E-04    0.25      18.1  T
  14   -214.5805845  0.965580E-07  0.814E-04    0.25      11.6  T
     SCC iter.                  ...        0 min,  0.926 sec
     gradient                   ...        0 min,  0.060 sec
 * total energy  :  -211.1679316 Eh     change       -0.1821886E-02 Eh
   gradient norm :     0.0302598 Eh/α   predicted    -0.2491762E-02 (  36.77%)
   displ. norm   :     0.5475954 α      lambda       -0.2647420E-02
   maximum displ.:     0.2308610 α      in ANC's #14, #20, #21, ...

........................................................................
.............................. CYCLE   11 ..............................
........................................................................
   1   -214.5815699 -0.214582E+03  0.150E-01    0.27       0.0  T
   2   -214.5812557  0.314152E-03  0.939E-02    0.20       1.0  T
   3   -214.5787246  0.253115E-02  0.126E-01    0.42       1.0  T
   4   -214.5813400 -0.261548E-02  0.461E-02    0.33       1.0  T
   5   -214.5816174 -0.277312E-03  0.199E-02    0.28       1.0  T
   6   -214.5816679 -0.505490E-04  0.106E-02    0.26       1.0  T
   7   -214.5816850 -0.170763E-04  0.452E-03    0.25       2.1  T
   8   -214.5816851 -0.112967E-06  0.312E-03    0.24       3.0  T
   9   -214.5816860 -0.914088E-06  0.185E-03    0.24       5.1  T
     SCC iter.                  ...        0 min,  0.479 sec
     gradient                   ...        0 min,  0.046 sec
 * total energy  :  -211.1694068 Eh     change       -0.1475218E-02 Eh
   gradient norm :     0.0323853 Eh/α   predicted    -0.1720638E-02 (  16.64%)
   displ. norm   :     0.5366453 α      lambda       -0.2651381E-02
   maximum displ.:     0.2396543 α      in ANC's #14, #2, #13, ...

........................................................................
.............................. CYCLE   12 ..............................
........................................................................
   1   -214.6057774 -0.214606E+03  0.137E-01    0.26       0.0  T
   2   -214.6057684  0.896549E-05  0.805E-02    0.24       1.0  T
   3   -214.6043268  0.144162E-02  0.879E-02    0.30       1.0  T
   4   -214.6057848 -0.145798E-02  0.209E-02    0.25       1.0  T
   5   -214.6058382 -0.533925E-04  0.776E-03    0.25       1.2  T
   6   -214.6058406 -0.240212E-05  0.611E-03    0.25       1.5  T
   7   -214.6058458 -0.520324E-05  0.237E-03    0.25       4.0  T
   8   -214.6058462 -0.396435E-06  0.127E-03    0.25       7.4  T
     SCC iter.                  ...        0 min,  0.425 sec
     gradient                   ...        0 min,  0.034 sec
 * total energy  :  -211.1708461 Eh     change       -0.1439299E-02 Eh
   gradient norm :     0.0296360 Eh/α   predicted    -0.1707475E-02 (  18.63%)
   displ. norm   :     0.6402090 α      lambda       -0.2126976E-02
   maximum displ.:     0.2468160 α      in ANC's #14, #2, #20, ...

........................................................................
.............................. CYCLE   13 ..............................
........................................................................
   1   -214.5901390 -0.214590E+03  0.177E-01    0.25       0.0  T
   2   -214.5901703 -0.312706E-04  0.101E-01    0.27       1.0  T
   3   -214.5894753  0.695003E-03  0.647E-02    0.21       1.0  T
   4   -214.5900628 -0.587551E-03  0.274E-02    0.29       1.0  T
   5   -214.5902071 -0.144337E-03  0.811E-03    0.27       1.2  T
   6   -214.5902126 -0.546348E-05  0.494E-03    0.26       1.9  T
   7   -214.5902146 -0.199929E-05  0.234E-03    0.26       4.0  T
     SCC iter.                  ...        0 min,  0.557 sec
     gradient                   ...        0 min,  0.037 sec
 * total energy  :  -211.1721640 Eh     change       -0.1317850E-02 Eh
   gradient norm :     0.0272790 Eh/α   predicted    -0.1499386E-02 (  13.78%)
   displ. norm   :     0.5849172 α      lambda       -0.1774553E-02
   maximum displ.:     0.2615604 α      in ANC's #14, #2, #20, ...

........................................................................
.............................. CYCLE   14 ..............................
........................................................................
   1   -214.5918945 -0.214592E+03  0.154E-01    0.25       0.0  T
   2   -214.5918993 -0.481261E-05  0.877E-02    0.28       1.0  T
   3   -214.5899619  0.193740E-02  0.913E-02    0.18       1.0  T
   4   -214.5916953 -0.173338E-02  0.367E-02    0.31       1.0  T
   5   -214.5919306 -0.235299E-03  0.127E-02    0.28       1.0  T
   6   -214.5919503 -0.197437E-04  0.751E-03    0.27       1.3  T
   7   -214.5919588 -0.842803E-05  0.287E-03    0.26       3.3  T
   8   -214.5919592 -0.409088E-06  0.180E-03    0.26       5.2  T
   9   -214.5919593 -0.146025E-06  0.111E-03    0.26       8.5  T
     SCC iter.                  ...        0 min,  0.402 sec
     gradient                   ...        0 min,  0.033 sec
 * total energy  :  -211.1733427 Eh     change       -0.1178709E-02 Eh
   gradient norm :     0.0207692 Eh/α   predicted    -0.1190839E-02 (   1.03%)
   displ. norm   :     0.5729676 α      lambda       -0.1618573E-02
   maximum displ.:     0.2574914 α      in ANC's #14, #2, #13, ...

........................................................................
.............................. CYCLE   15 ..............................
........................................................................
   1   -214.6019122 -0.214602E+03  0.137E-01    0.26       0.0  T
   2   -214.6018908  0.214444E-04  0.778E-02    0.24       1.0  T
   3   -214.6006404  0.125043E-02  0.829E-02    0.33       1.0  T
   4   -214.6019107 -0.127034E-02  0.201E-02    0.26       1.0  T
   5   -214.6019529 -0.422059E-04  0.808E-03    0.25       1.2  T
   6   -214.6019568 -0.392120E-05  0.498E-03    0.25       1.9  T
   7   -214.6019591 -0.225888E-05  0.212E-03    0.25       4.4  T
     SCC iter.                  ...        0 min,  0.427 sec
     gradient                   ...        0 min,  0.058 sec
 * total energy  :  -211.1745465 Eh     change       -0.1203801E-02 Eh
   gradient norm :     0.0184558 Eh/α   predicted    -0.1074969E-02 ( -10.70%)
   displ. norm   :     0.7125966 α      lambda       -0.1544083E-02
   maximum displ.:     0.3123828 α      in ANC's #14, #2, #13, ...

........................................................................
.............................. CYCLE   16 ..............................
........................................................................
   1   -214.6023439 -0.214602E+03  0.161E-01    0.26       0.0  T
   2   -214.6023610 -0.170588E-04  0.916E-02    0.25       1.0  T
   3   -214.6019038  0.457164E-03  0.517E-02    0.29       1.0  T
   4   -214.6023316 -0.427747E-03  0.190E-02    0.25       1.0  T
   5   -214.6023788 -0.472506E-04  0.814E-03    0.26       1.2  T
   6   -214.6023828 -0.394989E-05  0.423E-03    0.25       2.2  T
   7   -214.6023847 -0.190112E-05  0.220E-03    0.25       4.3  T
   8   -214.6023852 -0.570849E-06  0.111E-03    0.25       8.5  T
     SCC iter.                  ...        0 min,  0.438 sec
     gradient                   ...        0 min,  0.067 sec
 * total energy  :  -211.1757626 Eh     change       -0.1216064E-02 Eh
   gradient norm :     0.0140600 Eh/α   predicted    -0.1164084E-02 (  -4.27%)
   displ. norm   :     0.7309269 α      lambda       -0.1518594E-02
   maximum displ.:     0.3032559 α      in ANC's #14, #2, #13, ...

........................................................................
.............................. CYCLE   17 ..............................
........................................................................
   1   -214.6044257 -0.214604E+03  0.171E-01    0.23       0.0  T
   2   -214.6043857  0.399893E-04  0.972E-02    0.28       1.0  T
   3   -214.5925741  0.118116E-01  0.217E-01    0.13       1.0  T
   4   -214.6043622 -0.117882E-01  0.295E-02    0.31       1.0  T
   5   -214.6044010 -0.387824E-04  0.225E-02    0.29       1.0  T
   6   -214.6044568 -0.557717E-04  0.139E-02    0.28       1.0  T
   7   -214.6044827 -0.259509E-04  0.823E-03    0.26       1.1  T
   8   -214.6044930 -0.102217E-04  0.405E-03    0.26       2.3  T
   9   -214.6044953 -0.229667E-05  0.136E-03    0.25       6.9  T
  10   -214.6044953 -0.840853E-07  0.945E-04    0.25      10.0  T
     SCC iter.                  ...        0 min,  1.028 sec
     gradient                   ...        0 min,  0.064 sec
 * total energy  :  -211.1769891 Eh     change       -0.1226541E-02 Eh
   gradient norm :     0.0154166 Eh/α   predicted    -0.1164958E-02 (  -5.02%)
   displ. norm   :     0.7446810 α      lambda       -0.1446396E-02
   maximum displ.:     0.2837226 α      in ANC's #14, #2, #13, ...

........................................................................
.............................. CYCLE   18 ..............................
........................................................................
   1   -214.6069624 -0.214607E+03  0.178E-01    0.24       0.0  T
   2   -214.6069701 -0.772332E-05  0.101E-01    0.27       1.0  T
   3   -214.6044784  0.249178E-02  0.106E-01    0.17       1.0  T
   4   -214.6068393 -0.236092E-02  0.320E-02    0.29       1.0  T
   5   -214.6070007 -0.161381E-03  0.132E-02    0.27       1.0  T
   6   -214.6070080 -0.737094E-05  0.924E-03    0.25       1.0  T
   7   -214.6070203 -0.122507E-04  0.394E-03    0.25       2.4  T
   8   -214.6070220 -0.173378E-05  0.192E-03    0.25       4.9  T
   9   -214.6070222 -0.154079E-06  0.117E-03    0.25       8.0  T
     SCC iter.                  ...        0 min,  0.371 sec
     gradient                   ...        0 min,  0.045 sec
 * total energy  :  -211.1781814 Eh     change       -0.1192304E-02 Eh
   gradient norm :     0.0145602 Eh/α   predicted    -0.1124248E-02 (  -5.71%)
   displ. norm   :     0.7812205 α      lambda       -0.1556230E-02
   maximum displ.:     0.2741930 α      in ANC's #14, #2, #15, ...

........................................................................
.............................. CYCLE   19 ..............................
........................................................................
   1   -214.6016693 -0.214602E+03  0.182E-01    0.25       0.0  T
   2   -214.6017008 -0.314245E-04  0.104E-01    0.25       1.0  T
   3   -214.6013918  0.308993E-03  0.466E-02    0.22       1.0  T
   4   -214.6016366 -0.244802E-03  0.225E-02    0.27       1.0  T
   5   -214.6017118 -0.752270E-04  0.109E-02    0.25       1.0  T
   6   -214.6017239 -0.120611E-04  0.510E-03    0.25       1.8  T
   7   -214.6017263 -0.247186E-05  0.275E-03    0.25       3.4  T
   8   -214.6017272 -0.825930E-06  0.133E-03    0.25       7.1  T
     SCC iter.                  ...        0 min,  0.396 sec
     gradient                   ...        0 min,  0.036 sec
 * total energy  :  -211.1792920 Eh     change       -0.1110632E-02 Eh
   gradient norm :     0.0200389 Eh/α   predicted    -0.1253019E-02 (  12.82%)
   displ. norm   :     0.6561016 α      lambda       -0.1302390E-02
   maximum displ.:     0.2339917 α      in ANC's #14, #2, #15, ...

........................................................................
.............................. CYCLE   20 ..............................
........................................................................
   1   -214.5962824 -0.214596E+03  0.158E-01    0.25       0.0  T
   2   -214.5963031 -0.206752E-04  0.902E-02    0.26       1.0  T
   3   -214.5961068  0.196345E-03  0.379E-02    0.23       1.0  T
   4   -214.5963051 -0.198306E-03  0.114E-02    0.27       1.0  T
   5   -214.5963159 -0.108105E-04  0.763E-03    0.25       1.2  T
   6   -214.5963205 -0.466411E-05  0.462E-03    0.26       2.0  T
   7   -214.5963229 -0.230915E-05  0.210E-03    0.26       4.5  T
     SCC iter.                  ...        0 min,  0.581 sec
     gradient                   ...        0 min,  0.045 sec
 * total energy  :  -211.1802981 Eh     change       -0.1006076E-02 Eh
   gradient norm :     0.0164782 Eh/α   predicted    -0.9315164E-03 (  -7.41%)
   displ. norm   :     0.5962784 α      lambda       -0.1350033E-02
   maximum displ.:     0.1791790 α      in ANC's #14, #15, #11, ...
 * RMSD in coord.:     0.9597004 α      energy gain  -0.9608667E-01 Eh

generating ANC from model Hessian ...
Using Lindh-Hessian (1995)
 Shifting diagonal of input Hessian by   5.890340816632800E-003
 Lowest  eigenvalues of input Hessian
    0.005000   -0.000000   -0.000000   -0.000000    0.000000    0.000000
    0.000000    0.005896    0.005909    0.005957    0.005965    0.005996
    0.006063    0.006103    0.006160    0.006290    0.006401    0.006557
 Highest eigenvalues
    2.314922    2.339776    2.577073    2.594232    2.639758    2.644597
 

........................................................................
.............................. CYCLE   21 ..............................
........................................................................
   1   -214.6087752 -0.214609E+03  0.151E-01    0.27       0.0  T
   2   -214.6087842 -0.903877E-05  0.871E-02    0.26       1.0  T
   3   -214.6080661  0.718115E-03  0.653E-02    0.29       1.0  T
   4   -214.6088006 -0.734529E-03  0.129E-02    0.27       1.0  T
   5   -214.6088204 -0.197370E-04  0.569E-03    0.26       1.7  T
   6   -214.6088217 -0.128837E-05  0.411E-03    0.26       2.3  T
   7   -214.6088225 -0.874524E-06  0.282E-03    0.27       3.3  T
   8   -214.6088238 -0.123591E-05  0.983E-04    0.26       9.6  T
   9   -214.6088239 -0.122227E-06  0.381E-04    0.27      24.7  T
  10   -214.6088239 -0.732291E-08  0.195E-04    0.27      48.4  T
     SCC iter.                  ...        0 min,  0.542 sec
     gradient                   ...        0 min,  0.072 sec
 * total energy  :  -211.1811647 Eh     change       -0.8665991E-03 Eh
   gradient norm :     0.0218113 Eh/α   predicted     0.0000000E+00 (-100.00%)
   displ. norm   :     0.2218638 α      lambda       -0.9368886E-03
   maximum displ.:     0.1017079 α      in ANC's #1, #4, #13, ...

........................................................................
.............................. CYCLE   22 ..............................
........................................................................
   1   -214.6075859 -0.214608E+03  0.770E-02    0.27       0.0  T
   2   -214.6075708  0.150576E-04  0.442E-02    0.25       1.0  T
   3   -214.6068595  0.711325E-03  0.631E-02    0.31       1.0  T
   4   -214.6076008 -0.741341E-03  0.699E-03    0.27       1.3  T
   5   -214.6076068 -0.602589E-05  0.317E-03    0.26       3.0  T
   6   -214.6076077 -0.890138E-06  0.171E-03    0.26       5.5  T
   7   -214.6076079 -0.143714E-06  0.105E-03    0.26       9.0  T
     SCC iter.                  ...        0 min,  0.415 sec
     gradient                   ...        0 min,  0.063 sec
 * total energy  :  -211.1817828 Eh     change       -0.6181170E-03 Eh
   gradient norm :     0.0075407 Eh/α   predicted    -0.4915028E-03 ( -20.48%)
   displ. norm   :     0.2767514 α      lambda       -0.7508111E-03
   maximum displ.:     0.0937473 α      in ANC's #13, #4, #1, ...

........................................................................
.............................. CYCLE   23 ..............................
........................................................................
   1   -214.6079876 -0.214608E+03  0.954E-02    0.27       0.0  T
   2   -214.6079283  0.592589E-04  0.567E-02    0.24       1.0  T
   3   -214.6065610  0.136734E-02  0.889E-02    0.34       1.0  T
   4   -214.6079910 -0.143008E-02  0.137E-02    0.28       1.0  T
   5   -214.6080231 -0.320124E-04  0.423E-03    0.26       2.2  T
   6   -214.6080242 -0.117138E-05  0.266E-03    0.26       3.5  T
   7   -214.6080247 -0.485339E-06  0.137E-03    0.26       6.8  T
     SCC iter.                  ...        0 min,  0.614 sec
     gradient                   ...        0 min,  0.055 sec
 * total energy  :  -211.1820841 Eh     change       -0.3013177E-03 Eh
   gradient norm :     0.0116807 Eh/α   predicted    -0.4041592E-03 (  34.13%)
   displ. norm   :     0.2871394 α      lambda       -0.6424739E-03
   maximum displ.:     0.0943514 α      in ANC's #13, #1, #4, ...

........................................................................
.............................. CYCLE   24 ..............................
........................................................................
   1   -214.6078208 -0.214608E+03  0.990E-02    0.26       0.0  T
   2   -214.6078174  0.347788E-05  0.561E-02    0.25       1.0  T
   3   -214.6072823  0.535032E-03  0.552E-02    0.31       1.0  T
   4   -214.6078336 -0.551244E-03  0.720E-03    0.27       1.3  T
   5   -214.6078403 -0.675832E-05  0.281E-03    0.26       3.3  T
   6   -214.6078405 -0.123670E-06  0.203E-03    0.26       4.6  T
   7   -214.6078407 -0.293514E-06  0.114E-03    0.26       8.2  T
     SCC iter.                  ...        0 min,  0.406 sec
     gradient                   ...        0 min,  0.054 sec
 * total energy  :  -211.1824949 Eh     change       -0.4108023E-03 Eh
   gradient norm :     0.0125139 Eh/α   predicted    -0.3477308E-03 ( -15.35%)
   displ. norm   :     0.4241726 α      lambda       -0.7681767E-03
   maximum displ.:     0.1722016 α      in ANC's #1, #13, #4, ...

........................................................................
.............................. CYCLE   25 ..............................
........................................................................
   1   -214.6067463 -0.214607E+03  0.107E-01    0.26       0.0  T
   2   -214.6067574 -0.111462E-04  0.612E-02    0.26       1.0  T
   3   -214.6066680  0.893636E-04  0.254E-02    0.28       1.0  T
   4   -214.6067592 -0.911500E-04  0.747E-03    0.26       1.3  T
   5   -214.6067650 -0.582220E-05  0.433E-03    0.26       2.2  T
   6   -214.6067668 -0.177753E-05  0.237E-03    0.26       4.0  T
   7   -214.6067671 -0.347085E-06  0.134E-03    0.26       7.0  T
     SCC iter.                  ...        0 min,  0.452 sec
     gradient                   ...        0 min,  0.054 sec
 * total energy  :  -211.1830323 Eh     change       -0.5374088E-03 Eh
   gradient norm :     0.0097022 Eh/α   predicted    -0.4531987E-03 ( -15.67%)
   displ. norm   :     0.4994905 α      lambda       -0.6252762E-03
   maximum displ.:     0.2047656 α      in ANC's #1, #13, #4, ...

........................................................................
.............................. CYCLE   26 ..............................
........................................................................
   1   -214.6062959 -0.214606E+03  0.108E-01    0.27       0.0  T
   2   -214.6062968 -0.804516E-06  0.625E-02    0.25       1.0  T
   3   -214.6059116  0.385149E-03  0.467E-02    0.31       1.0  T
   4   -214.6063028 -0.391183E-03  0.939E-03    0.27       1.0  T
   5   -214.6063136 -0.108490E-04  0.401E-03    0.26       2.3  T
   6   -214.6063144 -0.763669E-06  0.240E-03    0.26       3.9  T
   7   -214.6063149 -0.456753E-06  0.120E-03    0.26       7.9  T
     SCC iter.                  ...        0 min,  0.235 sec
     gradient                   ...        0 min,  0.024 sec
 * total energy  :  -211.1835495 Eh     change       -0.5171097E-03 Eh
   gradient norm :     0.0103772 Eh/α   predicted    -0.3906390E-03 ( -24.46%)
   displ. norm   :     0.6015937 α      lambda       -0.7856947E-03
   maximum displ.:     0.2494298 α      in ANC's #1, #4, #13, ...

........................................................................
.............................. CYCLE   27 ..............................
........................................................................
   1   -214.6092202 -0.214609E+03  0.118E-01    0.27       0.0  T
   2   -214.6092284 -0.825525E-05  0.676E-02    0.25       1.0  T
   3   -214.6091076  0.120891E-03  0.278E-02    0.29       1.0  T
   4   -214.6092287 -0.121113E-03  0.934E-03    0.26       1.0  T
   5   -214.6092321 -0.339177E-05  0.730E-03    0.26       1.3  T
   6   -214.6092388 -0.671499E-05  0.286E-03    0.26       3.3  T
   7   -214.6092396 -0.866951E-06  0.110E-03    0.26       8.6  T
   8   -214.6092397 -0.721535E-07  0.747E-04    0.26      12.6  T
     SCC iter.                  ...        0 min,  0.497 sec
     gradient                   ...        0 min,  0.037 sec
 * total energy  :  -211.1841949 Eh     change       -0.6454130E-03 Eh
   gradient norm :     0.0087300 Eh/α   predicted    -0.5350328E-03 ( -17.10%)
   displ. norm   :     0.6930394 α      lambda       -0.7892257E-03
   maximum displ.:     0.2879108 α      in ANC's #1, #4, #13, ...

........................................................................
.............................. CYCLE   28 ..............................
........................................................................
   1   -214.6077970 -0.214608E+03  0.142E-01    0.26       0.0  T
   2   -214.6078073 -0.103219E-04  0.803E-02    0.25       1.0  T
   3   -214.6074829  0.324431E-03  0.432E-02    0.30       1.0  T
   4   -214.6077992 -0.316363E-03  0.143E-02    0.26       1.0  T
   5   -214.6078224 -0.231368E-04  0.680E-03    0.26       1.4  T
   6   -214.6078261 -0.373690E-05  0.265E-03    0.26       3.5  T
   7   -214.6078268 -0.652301E-06  0.999E-04    0.26       9.4  T
   8   -214.6078268 -0.453292E-07  0.576E-04    0.26      16.3  T
     SCC iter.                  ...        0 min,  0.279 sec
     gradient                   ...        0 min,  0.035 sec
 * total energy  :  -211.1848474 Eh     change       -0.6525089E-03 Eh
   gradient norm :     0.0088142 Eh/α   predicted    -0.5841479E-03 ( -10.48%)
   displ. norm   :     0.7350078 α      lambda       -0.7874938E-03
   maximum displ.:     0.3097159 α      in ANC's #1, #4, #13, ...

........................................................................
.............................. CYCLE   29 ..............................
........................................................................
   1   -214.6083958 -0.214608E+03  0.143E-01    0.25       0.0  T
   2   -214.6084128 -0.170411E-04  0.807E-02    0.25       1.0  T
   3   -214.6083613  0.515107E-04  0.219E-02    0.25       1.0  T
   4   -214.6084005 -0.392264E-04  0.123E-02    0.25       1.0  T
   5   -214.6084082 -0.773104E-05  0.916E-03    0.26       1.0  T
   6   -214.6084207 -0.124680E-04  0.332E-03    0.25       2.8  T
   7   -214.6084221 -0.141596E-05  0.144E-03    0.25       6.5  T
   8   -214.6084223 -0.167553E-06  0.836E-04    0.25      11.3  T
     SCC iter.                  ...        0 min,  0.318 sec
     gradient                   ...        0 min,  0.061 sec
 * total energy  :  -211.1855001 Eh     change       -0.6527608E-03 Eh
   gradient norm :     0.0083865 Eh/α   predicted    -0.6064653E-03 (  -7.09%)
   displ. norm   :     0.7450022 α      lambda       -0.7109357E-03
   maximum displ.:     0.3158548 α      in ANC's #4, #1, #13, ...

........................................................................
.............................. CYCLE   30 ..............................
........................................................................
   1   -214.6083843 -0.214608E+03  0.147E-01    0.24       0.0  T
   2   -214.6084018 -0.174519E-04  0.824E-02    0.25       1.0  T
   3   -214.6083308  0.710008E-04  0.242E-02    0.23       1.0  T
   4   -214.6084000 -0.691905E-04  0.109E-02    0.25       1.0  T
   5   -214.6084019 -0.192207E-05  0.832E-03    0.25       1.1  T
   6   -214.6084119 -0.999317E-05  0.261E-03    0.24       3.6  T
   7   -214.6084128 -0.865305E-06  0.125E-03    0.25       7.5  T
   8   -214.6084128 -0.712200E-07  0.918E-04    0.25      10.3  T
     SCC iter.                  ...        0 min,  0.443 sec
     gradient                   ...        0 min,  0.042 sec
 * total energy  :  -211.1861154 Eh     change       -0.6152854E-03 Eh
   gradient norm :     0.0072777 Eh/α   predicted    -0.5527678E-03 ( -10.16%)
   displ. norm   :     0.7484876 α      lambda       -0.6491022E-03
   maximum displ.:     0.3324293 α      in ANC's #4, #1, #13, ...

........................................................................
.............................. CYCLE   31 ..............................
........................................................................
   1   -214.6086699 -0.214609E+03  0.144E-01    0.23       0.0  T
   2   -214.6086827 -0.128799E-04  0.810E-02    0.25       1.0  T
   3   -214.6083526  0.330164E-03  0.421E-02    0.20       1.0  T
   4   -214.6086580 -0.305462E-03  0.160E-02    0.26       1.0  T
   5   -214.6086831 -0.251013E-04  0.116E-02    0.24       1.0  T
   6   -214.6086992 -0.160460E-04  0.481E-03    0.24       2.0  T
   7   -214.6087020 -0.278038E-05  0.174E-03    0.24       5.4  T
   8   -214.6087022 -0.237840E-06  0.982E-04    0.24       9.6  T
     SCC iter.                  ...        0 min,  0.290 sec
     gradient                   ...        0 min,  0.024 sec
 * total energy  :  -211.1866751 Eh     change       -0.5597154E-03 Eh
   gradient norm :     0.0069897 Eh/α   predicted    -0.5063823E-03 (  -9.53%)
   displ. norm   :     0.7294573 α      lambda       -0.5943659E-03
   maximum displ.:     0.3441278 α      in ANC's #4, #1, #13, ...

........................................................................
.............................. CYCLE   32 ..............................
........................................................................
   1   -214.6124440 -0.214612E+03  0.137E-01    0.23       0.0  T
   2   -214.6124519 -0.792385E-05  0.775E-02    0.25       1.0  T
   3   -214.6115692  0.882762E-03  0.630E-02    0.17       1.0  T
   4   -214.6123807 -0.811514E-03  0.227E-02    0.26       1.0  T
   5   -214.6124582 -0.774947E-04  0.113E-02    0.24       1.0  T
   6   -214.6124696 -0.114173E-04  0.609E-03    0.24       1.5  T
   7   -214.6124743 -0.470016E-05  0.224E-03    0.23       4.2  T
   8   -214.6124748 -0.487562E-06  0.114E-03    0.23       8.3  T
   9   -214.6124748 -0.495048E-07  0.748E-04    0.23      12.6  T
     SCC iter.                  ...        0 min,  0.593 sec
     gradient                   ...        0 min,  0.037 sec
 * total energy  :  -211.1871786 Eh     change       -0.5034749E-03 Eh
   gradient norm :     0.0060642 Eh/α   predicted    -0.4553208E-03 (  -9.56%)
   displ. norm   :     0.7584424 α      lambda       -0.5446388E-03
   maximum displ.:     0.3635461 α      in ANC's #4, #1, #13, ...

........................................................................
.............................. CYCLE   33 ..............................
........................................................................
   1   -214.6057700 -0.214606E+03  0.143E-01    0.22       0.0  T
   2   -214.6057747 -0.473425E-05  0.808E-02    0.24       1.0  T
   3   -214.6040703  0.170447E-02  0.855E-02    0.16       1.0  T
   4   -214.6056716 -0.160133E-02  0.268E-02    0.26       1.0  T
   5   -214.6057814 -0.109846E-03  0.128E-02    0.24       1.0  T
   6   -214.6057941 -0.126752E-04  0.795E-03    0.24       1.2  T
   7   -214.6058033 -0.916794E-05  0.289E-03    0.23       3.3  T
   8   -214.6058044 -0.109143E-05  0.127E-03    0.23       7.4  T
   9   -214.6058044 -0.593814E-07  0.726E-04    0.23      13.0  T
     SCC iter.                  ...        0 min,  0.331 sec
     gradient                   ...        0 min,  0.033 sec
 * total energy  :  -211.1876144 Eh     change       -0.4358026E-03 Eh
   gradient norm :     0.0067844 Eh/α   predicted    -0.4289676E-03 (  -1.57%)
   displ. norm   :     0.6509453 α      lambda       -0.5611641E-03
   maximum displ.:     0.3489039 α      in ANC's #4, #12, #1, ...

........................................................................
.............................. CYCLE   34 ..............................
........................................................................
   1   -214.6172765 -0.214617E+03  0.122E-01    0.22       0.0  T
   2   -214.6172829 -0.642781E-05  0.694E-02    0.24       1.0  T
   3   -214.6164245  0.858375E-03  0.642E-02    0.17       1.0  T
   4   -214.6171377 -0.713197E-03  0.298E-02    0.27       1.0  T
   5   -214.6172951 -0.157380E-03  0.113E-02    0.24       1.0  T
   6   -214.6173052 -0.101179E-04  0.678E-03    0.23       1.4  T
   7   -214.6173114 -0.617362E-05  0.249E-03    0.23       3.8  T
   8   -214.6173118 -0.406965E-06  0.147E-03    0.22       6.4  T
   9   -214.6173120 -0.212268E-06  0.764E-04    0.22      12.3  T
     SCC iter.                  ...        0 min,  0.363 sec
     gradient                   ...        0 min,  0.029 sec
 * total energy  :  -211.1879700 Eh     change       -0.3555573E-03 Eh
   gradient norm :     0.0125797 Eh/α   predicted    -0.3994757E-03 (  12.35%)
   displ. norm   :     0.6387547 α      lambda       -0.4506198E-03
   maximum displ.:     0.3315284 α      in ANC's #4, #1, #12, ...

........................................................................
.............................. CYCLE   35 ..............................
........................................................................
   1   -214.6124748 -0.214612E+03  0.115E-01    0.22       0.0  T
   2   -214.6124735  0.129945E-05  0.655E-02    0.23       1.0  T
   3   -214.6112018  0.127170E-02  0.746E-02    0.16       1.0  T
   4   -214.6124044 -0.120262E-02  0.223E-02    0.25       1.0  T
   5   -214.6124863 -0.819424E-04  0.838E-03    0.23       1.1  T
   6   -214.6124907 -0.441534E-05  0.578E-03    0.22       1.6  T
   7   -214.6124953 -0.453624E-05  0.188E-03    0.22       5.0  T
   8   -214.6124956 -0.275040E-06  0.107E-03    0.22       8.8  T
   9   -214.6124957 -0.123642E-06  0.551E-04    0.22      17.1  T
     SCC iter.                  ...        0 min,  0.382 sec
     gradient                   ...        0 min,  0.025 sec
 * total energy  :  -211.1883054 Eh     change       -0.3354507E-03 Eh
   gradient norm :     0.0086177 Eh/α   predicted    -0.3172385E-03 (  -5.43%)
   displ. norm   :     0.5519028 α      lambda       -0.3412106E-03
   maximum displ.:     0.3056586 α      in ANC's #4, #12, #1, ...

........................................................................
.............................. CYCLE   36 ..............................
........................................................................
   1   -214.6097097 -0.214610E+03  0.980E-02    0.22       0.0  T
   2   -214.6097133 -0.359578E-05  0.559E-02    0.23       1.0  T
   3   -214.6093742  0.339084E-03  0.396E-02    0.19       1.0  T
   4   -214.6096974 -0.323141E-03  0.118E-02    0.23       1.0  T
   5   -214.6097200 -0.225856E-04  0.496E-03    0.22       1.9  T
   6   -214.6097211 -0.115868E-05  0.300E-03    0.22       3.1  T
   7   -214.6097221 -0.949400E-06  0.127E-03    0.22       7.4  T
     SCC iter.                  ...        0 min,  0.487 sec
     gradient                   ...        0 min,  0.030 sec
 * total energy  :  -211.1885399 Eh     change       -0.2345105E-03 Eh
   gradient norm :     0.0121986 Eh/α   predicted    -0.2225716E-03 (  -5.09%)
   displ. norm   :     0.5099824 α      lambda       -0.3656525E-03
   maximum displ.:     0.2931108 α      in ANC's #4, #12, #5, ...

........................................................................
.............................. CYCLE   37 ..............................
........................................................................
   1   -214.6049762 -0.214605E+03  0.974E-02    0.22       0.0  T
   2   -214.6049689  0.735201E-05  0.563E-02    0.23       1.0  T
   3   -214.6037611  0.120774E-02  0.741E-02    0.17       1.0  T
   4   -214.6049026 -0.114149E-02  0.225E-02    0.25       1.0  T
   5   -214.6049924 -0.898044E-04  0.658E-03    0.23       1.4  T
   6   -214.6049961 -0.364074E-05  0.432E-03    0.22       2.2  T
   7   -214.6049983 -0.221678E-05  0.175E-03    0.22       5.4  T
   8   -214.6049983 -0.799569E-07  0.120E-03    0.22       7.8  T
     SCC iter.                  ...        0 min,  0.356 sec
     gradient                   ...        0 min,  0.038 sec
 * total energy  :  -211.1887003 Eh     change       -0.1603920E-03 Eh
   gradient norm :     0.0211169 Eh/α   predicted    -0.2303784E-03 (  43.63%)
   displ. norm   :     0.3975664 α      lambda       -0.4819456E-03
   maximum displ.:     0.2403647 α      in ANC's #4, #5, #12, ...

........................................................................
.............................. CYCLE   38 ..............................
........................................................................
   1   -214.6167947 -0.214617E+03  0.695E-02    0.22       0.0  T
   2   -214.6167935  0.113208E-05  0.404E-02    0.23       1.0  T
   3   -214.6162623  0.531233E-03  0.483E-02    0.17       1.0  T
   4   -214.6167619 -0.499556E-03  0.148E-02    0.24       1.0  T
   5   -214.6168009 -0.390407E-04  0.473E-03    0.23       2.0  T
   6   -214.6168032 -0.233699E-05  0.280E-03    0.22       3.4  T
   7   -214.6168043 -0.101043E-05  0.115E-03    0.22       8.2  T
     SCC iter.                  ...        0 min,  0.348 sec
     gradient                   ...        0 min,  0.044 sec
 * total energy  :  -211.1889789 Eh     change       -0.2786110E-03 Eh
   gradient norm :     0.0090511 Eh/α   predicted    -0.2790618E-03 (   0.16%)
   displ. norm   :     0.4860556 α      lambda       -0.3120675E-03
   maximum displ.:     0.3024393 α      in ANC's #4, #5, #12, ...

........................................................................
.............................. CYCLE   39 ..............................
........................................................................
   1   -214.6167180 -0.214617E+03  0.786E-02    0.22       0.0  T
   2   -214.6167228 -0.474022E-05  0.449E-02    0.22       1.0  T
   3   -214.6166978  0.249099E-04  0.141E-02    0.21       1.0  T
   4   -214.6167158 -0.179613E-04  0.735E-03    0.23       1.3  T
   5   -214.6167215 -0.574316E-05  0.493E-03    0.22       1.9  T
   6   -214.6167252 -0.368832E-05  0.188E-03    0.22       5.0  T
   7   -214.6167256 -0.395303E-06  0.876E-04    0.22      10.7  T
   8   -214.6167257 -0.756557E-07  0.442E-04    0.22      21.3  T
     SCC iter.                  ...        0 min,  0.421 sec
     gradient                   ...        0 min,  0.043 sec
 * total energy  :  -211.1892329 Eh     change       -0.2539426E-03 Eh
   gradient norm :     0.0074549 Eh/α   predicted    -0.1929007E-03 ( -24.04%)
   displ. norm   :     0.4918115 α      lambda       -0.3462149E-03
   maximum displ.:     0.3162766 α      in ANC's #4, #5, #11, ...

........................................................................
.............................. CYCLE   40 ..............................
........................................................................
   1   -214.6199487 -0.214620E+03  0.737E-02    0.22       0.0  T
   2   -214.6199527 -0.401704E-05  0.422E-02    0.22       1.0  T
   3   -214.6198979  0.548208E-04  0.206E-02    0.23       1.0  T
   4   -214.6199539 -0.559891E-04  0.550E-03    0.22       1.7  T
   5   -214.6199566 -0.272978E-05  0.319E-03    0.22       3.0  T
   6   -214.6199568 -0.189400E-06  0.250E-03    0.22       3.8  T
   7   -214.6199576 -0.791192E-06  0.112E-03    0.22       8.4  T
     SCC iter.                  ...        0 min,  0.570 sec
     gradient                   ...        0 min,  0.040 sec
 * total energy  :  -211.1895199 Eh     change       -0.2870593E-03 Eh
   gradient norm :     0.0080465 Eh/α   predicted    -0.2149841E-03 ( -25.11%)
   displ. norm   :     0.5978917 α      lambda       -0.4119000E-03
   maximum displ.:     0.3832362 α      in ANC's #4, #5, #11, ...

........................................................................
.............................. CYCLE   41 ..............................
........................................................................
   1   -214.6143701 -0.214614E+03  0.937E-02    0.21       0.0  T
   2   -214.6143606  0.944417E-05  0.544E-02    0.23       1.0  T
   3   -214.6126386  0.172204E-02  0.860E-02    0.16       1.0  T
   4   -214.6143281 -0.168951E-02  0.176E-02    0.24       1.0  T
   5   -214.6143774 -0.493126E-04  0.688E-03    0.22       1.4  T
   6   -214.6143826 -0.515802E-05  0.425E-03    0.22       2.2  T
   7   -214.6143849 -0.236041E-05  0.174E-03    0.22       5.4  T
   8   -214.6143851 -0.147606E-06  0.115E-03    0.22       8.2  T
     SCC iter.                  ...        0 min,  0.387 sec
     gradient                   ...        0 min,  0.038 sec
 * total energy  :  -211.1898707 Eh     change       -0.3507907E-03 Eh
   gradient norm :     0.0080955 Eh/α   predicted    -0.2795774E-03 ( -20.30%)
   displ. norm   :     0.6682288 α      lambda       -0.4473537E-03
   maximum displ.:     0.4363717 α      in ANC's #4, #5, #11, ...

........................................................................
.............................. CYCLE   42 ..............................
........................................................................
   1   -214.6157924 -0.214616E+03  0.985E-02    0.21       0.0  T
   2   -214.6157586  0.338132E-04  0.582E-02    0.23       1.0  T
   3   -214.6095168  0.624180E-02  0.160E-01    0.12       1.0  T
   4   -214.6156787 -0.616186E-02  0.283E-02    0.25       1.0  T
   5   -214.6157720 -0.932931E-04  0.152E-02    0.24       1.0  T
   6   -214.6157959 -0.238744E-04  0.105E-02    0.23       1.0  T
   7   -214.6158114 -0.155297E-04  0.563E-03    0.22       1.7  T
   8   -214.6158170 -0.558258E-05  0.259E-03    0.22       3.6  T
   9   -214.6158180 -0.100756E-05  0.858E-04    0.21      11.0  T
  10   -214.6158180 -0.566897E-07  0.427E-04    0.21      22.0  T
     SCC iter.                  ...        0 min,  0.477 sec
     gradient                   ...        0 min,  0.054 sec
 * total energy  :  -211.1902397 Eh     change       -0.3689638E-03 Eh
   gradient norm :     0.0073987 Eh/α   predicted    -0.3235611E-03 ( -12.31%)
   displ. norm   :     0.7187092 α      lambda       -0.4116712E-03
   maximum displ.:     0.4800107 α      in ANC's #4, #5, #11, ...
 * RMSD in coord.:     1.0556795 α      energy gain  -0.9941594E-02 Eh

generating ANC from model Hessian ...
Using Lindh-Hessian (1995)
 Shifting diagonal of input Hessian by   5.031354448487282E-003
 Lowest  eigenvalues of input Hessian
    0.005000   -0.000000    0.000000    0.000000    0.000000    0.000000
    0.000000    0.005039    0.005056    0.005102    0.005114    0.005182
    0.005215    0.005261    0.005344    0.005426    0.005524    0.005618
 Highest eigenvalues
    2.308128    2.323400    2.585179    2.592018    2.638601    2.640632
 

........................................................................
.............................. CYCLE   43 ..............................
........................................................................
   1   -214.6145328 -0.214615E+03  0.104E-01    0.20       0.0  T
   2   -214.6144794  0.534367E-04  0.627E-02    0.23       1.0  T
   3   -214.6017810  0.126984E-01  0.227E-01    0.10       1.0  T
   4   -214.6143776 -0.125967E-01  0.324E-02    0.26       1.0  T
   5   -214.6144774 -0.997329E-04  0.202E-02    0.24       1.0  T
   6   -214.6145139 -0.365138E-04  0.150E-02    0.23       1.0  T
   7   -214.6145378 -0.238918E-04  0.103E-02    0.23       1.0  T
   8   -214.6145524 -0.146167E-04  0.635E-03    0.22       1.5  T
   9   -214.6145586 -0.619270E-05  0.303E-03    0.22       3.1  T
  10   -214.6145603 -0.172630E-05  0.740E-04    0.21      12.7  T
  11   -214.6145604 -0.714800E-07  0.280E-04    0.21      33.6  T
  12   -214.6145604 -0.687035E-08  0.135E-04    0.21      69.8  T
     SCC iter.                  ...        0 min,  0.896 sec
     gradient                   ...        0 min,  0.046 sec
 * total energy  :  -211.1905812 Eh     change       -0.3415453E-03 Eh
   gradient norm :     0.0061404 Eh/α   predicted     0.0000000E+00 (-100.00%)
   displ. norm   :     0.1330092 α      lambda       -0.1684759E-03
   maximum displ.:     0.0944076 α      in ANC's #4, #5, #6, ...

........................................................................
.............................. CYCLE   44 ..............................
........................................................................
   1   -214.6179480 -0.214618E+03  0.284E-02    0.21       0.0  T
   2   -214.6179459  0.207198E-05  0.168E-02    0.21       1.0  T
   3   -214.6178465  0.994557E-04  0.221E-02    0.23       1.0  T
   4   -214.6179461 -0.996411E-04  0.504E-03    0.21       1.9  T
   5   -214.6179499 -0.381945E-05  0.121E-03    0.21       7.8  T
   6   -214.6179500 -0.728360E-07  0.766E-04    0.21      12.3  T
   7   -214.6179500 -0.174773E-07  0.550E-04    0.21      17.1  T
     SCC iter.                  ...        0 min,  0.240 sec
     gradient                   ...        0 min,  0.034 sec
 * total energy  :  -211.1907200 Eh     change       -0.1387733E-03 Eh
   gradient norm :     0.0027694 Eh/α   predicted    -0.8575566E-04 ( -38.20%)
   displ. norm   :     0.1408706 α      lambda       -0.1393912E-03
   maximum displ.:     0.0835348 α      in ANC's #4, #26, #5, ...

........................................................................
.............................. CYCLE   45 ..............................
........................................................................
   1   -214.6196305 -0.214620E+03  0.512E-02    0.21       0.0  T
   2   -214.6196332 -0.263407E-05  0.288E-02    0.21       1.0  T
   3   -214.6195919  0.412299E-04  0.157E-02    0.22       1.0  T
   4   -214.6196253 -0.333847E-04  0.716E-03    0.21       1.3  T
   5   -214.6196357 -0.103961E-04  0.191E-03    0.21       4.9  T
   6   -214.6196359 -0.186416E-06  0.135E-03    0.21       6.9  T
   7   -214.6196361 -0.187991E-06  0.651E-04    0.21      14.4  T
   8   -214.6196361 -0.471333E-07  0.272E-04    0.21      34.6  T
     SCC iter.                  ...        0 min,  0.503 sec
     gradient                   ...        0 min,  0.039 sec
 * total energy  :  -211.1907957 Eh     change       -0.7566509E-04 Eh
   gradient norm :     0.0037816 Eh/α   predicted    -0.7108233E-04 (  -6.06%)
   displ. norm   :     0.2444679 α      lambda       -0.2177701E-03
   maximum displ.:     0.1436453 α      in ANC's #4, #5, #6, ...

........................................................................
.............................. CYCLE   46 ..............................
........................................................................
   1   -214.6201599 -0.214620E+03  0.594E-02    0.21       0.0  T
   2   -214.6201624 -0.252490E-05  0.345E-02    0.21       1.0  T
   3   -214.6201031  0.593390E-04  0.212E-02    0.21       1.0  T
   4   -214.6201608 -0.577718E-04  0.656E-03    0.21       1.4  T
   5   -214.6201666 -0.576233E-05  0.281E-03    0.21       3.3  T
   6   -214.6201659  0.704163E-06  0.295E-03    0.21       3.2  T
   7   -214.6201676 -0.173970E-05  0.951E-04    0.21       9.9  T
   8   -214.6201677 -0.983807E-07  0.454E-04    0.21      20.7  T
   9   -214.6201678 -0.184860E-07  0.273E-04    0.21      34.5  T
     SCC iter.                  ...        0 min,  0.566 sec
     gradient                   ...        0 min,  0.033 sec
 * total energy  :  -211.1909265 Eh     change       -0.1308323E-03 Eh
   gradient norm :     0.0047316 Eh/α   predicted    -0.1153927E-03 ( -11.80%)
   displ. norm   :     0.1766453 α      lambda       -0.1024275E-03
   maximum displ.:     0.1128501 α      in ANC's #4, #5, #6, ...

........................................................................
.............................. CYCLE   47 ..............................
........................................................................
   1   -214.6192116 -0.214619E+03  0.391E-02    0.21       0.0  T
   2   -214.6192123 -0.655691E-06  0.227E-02    0.21       1.0  T
   3   -214.6191637  0.485507E-04  0.162E-02    0.19       1.0  T
   4   -214.6192058 -0.421329E-04  0.623E-03    0.22       1.5  T
   5   -214.6192141 -0.827319E-05  0.204E-03    0.21       4.6  T
   6   -214.6192145 -0.374877E-06  0.125E-03    0.21       7.5  T
   7   -214.6192146 -0.129380E-06  0.540E-04    0.21      17.4  T
     SCC iter.                  ...        0 min,  0.567 sec
     gradient                   ...        0 min,  0.037 sec
 * total energy  :  -211.1910108 Eh     change       -0.8431790E-04 Eh
   gradient norm :     0.0044452 Eh/α   predicted    -0.5281682E-04 ( -37.36%)
   displ. norm   :     0.2528076 α      lambda       -0.1600163E-03
   maximum displ.:     0.1596255 α      in ANC's #4, #5, #6, ...

........................................................................
.............................. CYCLE   48 ..............................
........................................................................
   1   -214.6165687 -0.214617E+03  0.606E-02    0.20       0.0  T
   2   -214.6165552  0.135069E-04  0.359E-02    0.22       1.0  T
   3   -214.6144992  0.205603E-02  0.917E-02    0.14       1.0  T
   4   -214.6165425 -0.204331E-02  0.130E-02    0.23       1.0  T
   5   -214.6165674 -0.249823E-04  0.718E-03    0.22       1.3  T
   6   -214.6165762 -0.873402E-05  0.334E-03    0.21       2.8  T
   7   -214.6165780 -0.183301E-05  0.135E-03    0.21       7.0  T
   8   -214.6165782 -0.223824E-06  0.627E-04    0.21      15.0  T
     SCC iter.                  ...        0 min,  0.494 sec
     gradient                   ...        0 min,  0.039 sec
 * total energy  :  -211.1911277 Eh     change       -0.1168666E-03 Eh
   gradient norm :     0.0039577 Eh/α   predicted    -0.8512313E-04 ( -27.16%)
   displ. norm   :     0.3427787 α      lambda       -0.2175220E-03
   maximum displ.:     0.2141369 α      in ANC's #4, #5, #6, ...

........................................................................
.............................. CYCLE   49 ..............................
........................................................................
   1   -214.6138471 -0.214614E+03  0.783E-02    0.20       0.0  T
   2   -214.6138414  0.567050E-05  0.455E-02    0.22       1.0  T
   3   -214.6120216  0.181983E-02  0.861E-02    0.15       1.0  T
   4   -214.6138229 -0.180129E-02  0.132E-02    0.22       1.0  T
   5   -214.6138500 -0.270729E-04  0.680E-03    0.21       1.4  T
   6   -214.6138566 -0.659347E-05  0.392E-03    0.21       2.4  T
   7   -214.6138589 -0.237842E-05  0.117E-03    0.21       8.1  T
   8   -214.6138590 -0.390086E-07  0.752E-04    0.21      12.5  T
   9   -214.6138590 -0.617472E-07  0.435E-04    0.21      21.6  T
     SCC iter.                  ...        0 min,  0.543 sec
     gradient                   ...        0 min,  0.041 sec
 * total energy  :  -211.1912173 Eh     change       -0.8955479E-04 Eh
   gradient norm :     0.0058706 Eh/α   predicted    -0.1215401E-03 (  35.72%)
   displ. norm   :     0.2380429 α      lambda       -0.1905619E-03
   maximum displ.:     0.1487308 α      in ANC's #4, #5, #6, ...

........................................................................
.............................. CYCLE   50 ..............................
........................................................................
   1   -214.6143561 -0.214614E+03  0.574E-02    0.21       0.0  T
   2   -214.6143592 -0.311904E-05  0.325E-02    0.21       1.0  T
   3   -214.6143448  0.143574E-04  0.108E-02    0.20       1.0  T
   4   -214.6143604 -0.155618E-04  0.304E-03    0.21       3.1  T
   5   -214.6143611 -0.727233E-06  0.196E-03    0.21       4.8  T
   6   -214.6143614 -0.306098E-06  0.700E-04    0.21      13.4  T
     SCC iter.                  ...        0 min,  0.207 sec
     gradient                   ...        0 min,  0.024 sec
 * total energy  :  -211.1913554 Eh     change       -0.1380995E-03 Eh
   gradient norm :     0.0052586 Eh/α   predicted    -0.1006812E-03 ( -27.10%)
   displ. norm   :     0.3111377 α      lambda       -0.1901235E-03
   maximum displ.:     0.1968922 α      in ANC's #4, #5, #6, ...

........................................................................
.............................. CYCLE   51 ..............................
........................................................................
   1   -214.6150378 -0.214615E+03  0.643E-02    0.21       0.0  T
   2   -214.6150408 -0.303068E-05  0.365E-02    0.21       1.0  T
   3   -214.6149995  0.413296E-04  0.165E-02    0.21       1.0  T
   4   -214.6150412 -0.417065E-04  0.447E-03    0.21       2.1  T
   5   -214.6150427 -0.152975E-05  0.280E-03    0.21       3.4  T
   6   -214.6150421  0.629629E-06  0.293E-03    0.21       3.2  T
     SCC iter.                  ...        0 min,  0.379 sec
     gradient                   ...        0 min,  0.024 sec
 * total energy  :  -211.1915027 Eh     change       -0.1473186E-03 Eh
   gradient norm :     0.0045872 Eh/α   predicted    -0.1042662E-03 ( -29.22%)
   displ. norm   :     0.4226206 α      lambda       -0.2225580E-03
   maximum displ.:     0.2663798 α      in ANC's #4, #5, #6, ...

........................................................................
.............................. CYCLE   52 ..............................
........................................................................
   1   -214.6175917 -0.214618E+03  0.816E-02    0.21       0.0  T
   2   -214.6175955 -0.378971E-05  0.466E-02    0.21       1.0  T
   3   -214.6175045  0.910445E-04  0.238E-02    0.21       1.0  T
   4   -214.6175889 -0.844575E-04  0.803E-03    0.21       1.2  T
   5   -214.6175944 -0.543766E-05  0.564E-03    0.20       1.7  T
   6   -214.6175991 -0.470886E-05  0.323E-03    0.21       2.9  T
   7   -214.6176009 -0.178073E-05  0.887E-04    0.21      10.6  T
   8   -214.6176009 -0.563237E-07  0.543E-04    0.21      17.3  T
     SCC iter.                  ...        0 min,  0.271 sec
     gradient                   ...        0 min,  0.028 sec
 * total energy  :  -211.1916902 Eh     change       -0.1875446E-03 Eh
   gradient norm :     0.0041177 Eh/α   predicted    -0.1311560E-03 ( -30.07%)
   displ. norm   :     0.5266671 α      lambda       -0.2693188E-03
   maximum displ.:     0.3332327 α      in ANC's #4, #5, #6, ...

........................................................................
.............................. CYCLE   53 ..............................
........................................................................
   1   -214.6190421 -0.214619E+03  0.997E-02    0.21       0.0  T
   2   -214.6190454 -0.329678E-05  0.571E-02    0.21       1.0  T
   3   -214.6188334  0.212006E-03  0.365E-02    0.22       1.0  T
   4   -214.6190471 -0.213676E-03  0.842E-03    0.21       1.1  T
   5   -214.6190524 -0.529616E-05  0.524E-03    0.21       1.8  T
   6   -214.6190507  0.168358E-05  0.542E-03    0.22       1.7  T
   7   -214.6190569 -0.620785E-05  0.118E-03    0.21       7.9  T
   8   -214.6190570 -0.100041E-06  0.679E-04    0.21      13.8  T
   9   -214.6190571 -0.414474E-07  0.367E-04    0.21      25.6  T
     SCC iter.                  ...        0 min,  0.303 sec
     gradient                   ...        0 min,  0.033 sec
 * total energy  :  -211.1919075 Eh     change       -0.2172716E-03 Eh
   gradient norm :     0.0050289 Eh/α   predicted    -0.1720179E-03 ( -20.83%)
   displ. norm   :     0.5362707 α      lambda       -0.2458018E-03
   maximum displ.:     0.3436532 α      in ANC's #4, #5, #6, ...

........................................................................
.............................. CYCLE   54 ..............................
........................................................................
   1   -214.6173507 -0.214617E+03  0.102E-01    0.21       0.0  T
   2   -214.6173471  0.361460E-05  0.588E-02    0.22       1.0  T
   3   -214.6163096  0.103753E-02  0.663E-02    0.17       1.0  T
   4   -214.6173184 -0.100888E-02  0.155E-02    0.23       1.0  T
   5   -214.6173601 -0.416802E-04  0.579E-03    0.21       1.6  T
   6   -214.6173622 -0.211892E-05  0.404E-03    0.21       2.3  T
   7   -214.6173643 -0.205591E-05  0.129E-03    0.21       7.3  T
   8   -214.6173644 -0.750029E-07  0.845E-04    0.21      11.1  T
     SCC iter.                  ...        0 min,  0.278 sec
     gradient                   ...        0 min,  0.033 sec
 * total energy  :  -211.1921156 Eh     change       -0.2081593E-03 Eh
   gradient norm :     0.0047096 Eh/α   predicted    -0.1582521E-03 ( -23.98%)
   displ. norm   :     0.5337210 α      lambda       -0.2247584E-03
   maximum displ.:     0.3467901 α      in ANC's #4, #5, #6, ...

........................................................................
.............................. CYCLE   55 ..............................
........................................................................
   1   -214.6171101 -0.214617E+03  0.984E-02    0.21       0.0  T
   2   -214.6171116 -0.149359E-05  0.568E-02    0.22       1.0  T
   3   -214.6167214  0.390109E-03  0.417E-02    0.18       1.0  T
   4   -214.6170890 -0.367555E-03  0.128E-02    0.23       1.0  T
   5   -214.6171180 -0.290287E-04  0.536E-03    0.21       1.8  T
   6   -214.6171202 -0.216654E-05  0.330E-03    0.21       2.9  T
   7   -214.6171215 -0.126325E-05  0.997E-04    0.21       9.4  T
   8   -214.6171215 -0.707823E-07  0.553E-04    0.21      17.0  T
     SCC iter.                  ...        0 min,  0.292 sec
     gradient                   ...        0 min,  0.038 sec
 * total energy  :  -211.1923126 Eh     change       -0.1969571E-03 Eh
   gradient norm :     0.0035780 Eh/α   predicted    -0.1443959E-03 ( -26.69%)
   displ. norm   :     0.5695996 α      lambda       -0.2358328E-03
   maximum displ.:     0.3734215 α      in ANC's #4, #5, #6, ...

........................................................................
[...]
    42   6 C      3.120     0.004    27.769     8.630
    43   6 C      3.806    -0.069    21.825     6.651
    44   6 C      3.732     0.028    20.193     6.414
    45   7 N      2.630    -0.328    28.447     7.921
    46   6 C      2.992     0.008    27.837     8.655
    47   6 C      3.250     0.111    24.593     8.027
    48   7 N      1.858    -0.254    27.475     7.769
    49   6 C      3.240     0.100    24.919     8.094
    50   6 C      3.157    -0.042    28.730     8.764
    51   6 C      2.838     0.235    23.091     7.875
    52   8 O      0.856    -0.383    21.345     6.194
    53   6 C      3.178    -0.036    28.456     8.710
    54   6 C      3.276     0.088    24.744     8.011
    55   7 N      1.857    -0.227    26.812     7.675
    56   6 C      3.196     0.076    25.810     8.282
    57   6 C      2.989    -0.032    28.777     8.800
    58   6 C      3.038     0.007    27.829     8.653
    59   6 C      2.897    -0.019    28.470     8.748
    60   6 C      2.905    -0.025    28.632     8.774
    61   6 C      2.900    -0.004    28.117     8.694
    62   6 C      3.016    -0.022    28.538     8.763
    63   6 C      2.862     0.228    23.219     7.898
    64   8 O      0.856    -0.355    20.800     6.115
    65   6 C      3.035    -0.020    28.464     8.751
    66   6 C      2.913    -0.016    28.410     8.740
    67   6 C      2.987     0.014    27.681     8.630
    68   6 C      2.990     0.022    27.501     8.602
    69   6 C      2.917    -0.052    29.302     8.877
    70   6 C      2.782     0.177    24.197     8.057
    71   6 C      2.913    -0.042    29.049     8.838
    72   6 C      2.922    -0.029    28.727     8.789
    73   9 F      0.787    -0.214    11.377     3.984
    74   6 C      2.914    -0.029    28.728     8.789
    75   6 C      3.028     0.008    27.806     8.649
    76   6 C      3.014     0.037    27.159     8.549
    77   6 C      2.947     0.017    27.629     8.621
    78   6 C      1.930     0.131    27.876     8.526
    79   7 N      0.911    -0.249    26.471     7.441
    80   6 C      1.931     0.126    27.991     8.544
    81   7 N      0.911    -0.226    25.930     7.365
    82   1 H      0.926     0.074     2.038     2.232
    83   1 H      0.926     0.070     2.080     2.255
    84   1 H      0.926     0.059     2.207     2.323
    85   1 H      0.926     0.065     2.136     2.285
    86   1 H      0.926     0.067     2.123     2.279
    87   1 H      0.925     0.105     1.739     2.062
    88   1 H      0.926     0.063     2.168     2.303
    89   1 H      0.926     0.060     2.199     2.319
    90   1 H      0.925     0.072     2.062     2.246
    91   1 H      0.925     0.060     2.203     2.321
    92   1 H      0.925     0.061     2.184     2.311
    93   1 H      0.925     0.052     2.299     2.371
    94   1 H      0.924     0.040     2.447     2.446
    95   1 H      0.923     0.042     2.419     2.432
    96   1 H      0.860     0.140     1.472     1.900
    97   1 H      0.860     0.162     1.321     1.800
    98   1 H      0.925     0.066     2.128     2.281
    99   1 H      0.925     0.060     2.194     2.316
   100   1 H      0.924     0.054     2.270     2.356
   101   1 H      0.923     0.013     2.838     2.635
   102   1 H      0.860     0.143     1.453     1.888
   103   1 H      0.860     0.147     1.420     1.867
   104   1 H      0.926     0.055     2.257     2.349
   105   1 H      0.926     0.053     2.277     2.360
   106   1 H      0.925     0.053     2.282     2.363
   107   1 H      0.925     0.091     1.868     2.137
   108   1 H      0.925     0.074     2.044     2.236
   109   1 H      0.926     0.065     2.138     2.287
   110   1 H      0.926     0.072     2.066     2.248
   111   1 H      0.926     0.068     2.109     2.271
   112   1 H      0.926     0.058     2.227     2.334
   113   1 H      0.926     0.063     2.164     2.301

 Mol. C6AA /au·bohr⁶  :     216950.407641
 Mol. C8AA /au·bohr⁸  :    5651001.601972
 Mol. α(0) /au        :        739.406139


Wiberg/Mayer (AO) data.
largest (>0.10) Wiberg bond orders for each atom
          total WBO             WBO to atom ...
     1  C   3.977        C    2 1.489    C    7 1.292    H   82 0.962    C    5 0.110
     2  C   3.880        C    1 1.489    C    4 1.288    F    3 0.973
     3  F   1.105        C    2 0.973
     4  C   3.975        C    5 1.552    C    2 1.288    H   83 0.965
     5  C   3.981        C    4 1.552    C    6 1.282    H   84 0.966    C    1 0.110
     6  C   3.980        C    5 1.282    C   11 1.281    C    7 1.236
     7  C   3.983        C    1 1.292    C    8 1.272    C    6 1.236
     8  C   3.975        C    9 1.508    C    7 1.272    H   85 0.959
     9  C   3.984        C    8 1.508    C   10 1.194    C   15 1.079
    10  C   3.975        C   11 1.509    C    9 1.194    C   12 1.033
    11  C   3.981        C   10 1.509    C    6 1.281    H   86 0.962
    12  C   3.923        O   13 1.786    C   10 1.033    C   14 0.990
    13  O   2.056        C   12 1.786
    14  C   3.902        C   21 1.594    C   15 1.113    C   12 0.990
    15  C   3.980        C   16 1.518    C   14 1.113    C    9 1.079
    16  C   3.960        C   15 1.518    C   19 1.093    C   17 1.083
    17  C   3.946        N   18 2.759    C   16 1.083
    18  N   2.984        C   17 2.759
    19  C   3.948        N   20 2.778    C   16 1.093
    20  N   2.983        C   19 2.778
    21  C   3.949        C   14 1.594    C   22 1.195    H   87 0.937
    22  C   3.897        N   23 1.449    C   21 1.195    C   33 1.058
    23  N   3.076        C   22 1.449    C   24 1.266
    24  C   3.966        C   29 1.394    N   23 1.266    C   25 1.046
    25  C   3.943        C   33 1.550    C   24 1.046    C   26 1.036
    26  C   3.942        O   27 1.783    C   25 1.036    C   28 1.025
    27  O   2.077        C   26 1.783
    28  C   3.954        C   32 1.647    C   26 1.025    C   29 1.024
    29  C   3.892        C   24 1.394    N   30 1.241    C   28 1.024
    30  N   3.045        C   31 1.579    C   29 1.241
    31  C   3.827        N   30 1.579    C   32 1.146    H   88 0.966
    32  C   3.944        C   28 1.647    C   31 1.146    H   89 0.970
    33  C   3.959        C   25 1.550    C   34 1.132    C   22 1.058
    34  C   3.960        C   35 1.730    C   33 1.132    H   90 0.947
    35  C   3.959        C   34 1.730    C   36 1.126    H   91 0.951
    36  C   3.912        C   38 1.435    S   37 1.162    C   35 1.126
    37  S   2.615        C   36 1.162    C   46 1.121
    38  C   3.957        C   36 1.435    C   42 1.299    C   39 1.016
    39  C   3.989        C   38 1.016    C   40 0.971    H   92 0.964    H   93 0.964
    40  C   3.976        N   41 1.027    H   94 0.975    C   39 0.971    H   95 0.960
    41  N   3.013        C   40 1.027    H   96 0.964    H   97 0.954
    42  C   3.951        C   46 1.414    C   38 1.299    C   43 1.019
    43  C   3.988        C   42 1.019    C   44 0.975    H   98 0.965    H   99 0.950
    44  C   3.977        N   45 1.031    C   43 0.975    H  100 0.974    H  101 0.957
    45  N   3.027        C   44 1.031    H  103 0.964    H  102 0.964
    46  C   3.919        C   42 1.414    C   47 1.169    S   37 1.121
    47  C   3.904        N   48 1.463    C   46 1.169    C   58 1.048
    48  N   3.023        C   47 1.463    C   49 1.275
    49  C   3.962        C   54 1.372    N   48 1.275    C   50 1.055
    50  C   3.924        C   58 1.506    C   49 1.055    C   51 1.042
    51  C   3.939        O   52 1.743    C   53 1.046    C   50 1.042
    52  O   2.064        C   51 1.743
    53  C   3.948        C   57 1.610    C   51 1.046    C   54 1.033
    54  C   3.890        C   49 1.372    N   55 1.259    C   53 1.033
    55  N   3.038        C   56 1.552    C   54 1.259
    56  C   3.830        N   55 1.552    C   57 1.178    H  104 0.967
    57  C   3.945        C   53 1.610    C   56 1.178    H  105 0.971
    58  C   3.959        C   50 1.506    C   59 1.186    C   47 1.048
    59  C   3.956        C   60 1.625    C   58 1.186    H  106 0.958
    60  C   3.952        C   59 1.625    C   61 1.222    H  107 0.935
    61  C   3.956        C   62 1.578    C   60 1.222    H  108 0.953
    62  C   3.934        C   61 1.578    C   76 1.125    C   63 1.005
    63  C   3.927        O   64 1.787    C   65 1.022    C   62 1.005
    64  O   2.045        C   63 1.787
    65  C   3.974        C   66 1.520    C   75 1.197    C   63 1.022
    66  C   3.981        C   65 1.520    C   67 1.274    H  109 0.963
    67  C   3.980        C   72 1.285    C   66 1.274    C   68 1.239
    68  C   3.984        C   69 1.290    C   74 1.273    C   67 1.239
    69  C   3.977        C   70 1.491    C   68 1.290    H  110 0.963    C   72 0.111
    70  C   3.881        C   69 1.491    C   71 1.290    F   73 0.969
    71  C   3.975        C   72 1.549    C   70 1.290    H  111 0.966
    72  C   3.981        C   71 1.549    C   67 1.285    H  112 0.966    C   69 0.111
    73  F   1.100        C   70 0.969
    74  C   3.974        C   75 1.506    C   68 1.273    H  113 0.959
    75  C   3.983        C   74 1.506    C   65 1.197    C   76 1.084
    76  C   3.979        C   77 1.497    C   62 1.125    C   75 1.084
    77  C   3.967        C   76 1.497    C   78 1.095    C   80 1.094
    78  C   3.946        N   79 2.763    C   77 1.095
    79  N   2.978        C   78 2.763
    80  C   3.947        N   81 2.775    C   77 1.094
    81  N   2.976        C   80 2.775
    82  H   0.994        C    1 0.962
    83  H   0.994        C    4 0.965
    84  H   0.996        C    5 0.966
    85  H   0.995        C    8 0.959
    86  H   0.994        C   11 0.962
    87  H   0.987        C   21 0.937
    88  H   0.995        C   31 0.966
    89  H   0.996        C   32 0.970
    90  H   0.993        C   34 0.947
    91  H   0.993        C   35 0.951
    92  H   0.994        C   39 0.964
    93  H   0.997        C   39 0.964
    94  H   0.997        C   40 0.975
    95  H   0.992        C   40 0.960
    96  H   0.980        N   41 0.964
    97  H   0.973        N   41 0.954
    98  H   0.995        C   43 0.965
    99  H   0.994        C   43 0.950
   100  H   0.996        C   44 0.974
   101  H   0.997        C   44 0.957
   102  H   0.979        N   45 0.964
   103  H   0.978        N   45 0.964
   104  H   0.996        C   56 0.967
   105  H   0.997        C   57 0.971
   106  H   0.997        C   59 0.958
   107  H   0.991        C   60 0.935
   108  H   0.993        C   61 0.953
   109  H   0.994        C   66 0.963
   110  H   0.994        C   69 0.963
   111  H   0.995        C   71 0.966
   112  H   0.996        C   72 0.966
   113  H   0.995        C   74 0.959

molecular dipole:
                 x           y           z       tot (Debye)
 q only:        0.932       0.242      -1.760
   full:        0.055      -0.728      -0.736       2.635
molecular quadrupole (traceless):
                xx          xy          yy          xz          yz          zz
 q only:      -30.756     -53.745     -58.358     -42.697      25.921      89.115
  q+dip:      -51.481     -58.630     -36.729     -11.790      45.966      88.211
   full:      -53.594     -72.211     -32.944      -2.152      37.115      86.537

           -------------------------------------------------
          |                Geometry Summary                 |
           -------------------------------------------------

      molecular mass/u    :     1075.0782000
   center of mass at/Å    :        4.5059101      -2.1815188      -4.9464039
  moments of inertia/u·Å² :        0.1218157E+05   0.6596256E+05   0.7318660E+05
rotational constants/cm⁻¹ :        0.1383863E-02   0.2555636E-03   0.2303377E-03

 * 98 selected distances

     #   Z        #   Z                                     value/Å
     1   6 C      2   6 C                                 1.3675330
     2   6 C      4   6 C                                 1.4022827
     4   6 C      5   6 C                                 1.3667204
     5   6 C      6   6 C                                 1.4107685
     1   6 C      7   6 C                                 1.4080545
     6   6 C      7   6 C                                 1.4265761
     7   6 C      8   6 C                                 1.4144944
     8   6 C      9   6 C                                 1.3679645
     9   6 C     10   6 C                                 1.4265901
     6   6 C     11   6 C                                 1.4116649
    10   6 C     11   6 C                                 1.3670905
    12   6 C     13   8 O                                 1.2090711
    15   6 C     16   6 C                                 1.3650823
    17   6 C     18   7 N                                 1.1482553
    19   6 C     20   7 N                                 1.1471290
    14   6 C     21   6 C                                 1.3588439
    21   6 C     22   6 C                                 1.4219129
    22   6 C     23   7 N                                 1.3264676
    23   7 N     24   6 C                                 1.3462954
    26   6 C     27   8 O                                 1.2085753
    24   6 C     29   6 C                                 1.3713191
    29   6 C     30   7 N                                 1.3554955
    30   7 N     31   6 C                                 1.3090138
    28   6 C     32   6 C                                 1.3552245
    31   6 C     32   6 C                                 1.4540038
    25   6 C     33   6 C                                 1.3651409
    33   6 C     34   6 C                                 1.4337483
    34   6 C     35   6 C                                 1.3438874
    36   6 C     37  16 S                                 1.7333298
    36   6 C     38   6 C                                 1.3846192
    38   6 C     39   6 C                                 1.4950693
    40   6 C     41   7 N                                 1.4550960
    38   6 C     42   6 C                                 1.4116369
    43   6 C     44   6 C                                 1.5386208
    44   6 C     45   7 N                                 1.4509488
    37  16 S     46   6 C                                 1.7370805 (max)
    42   6 C     46   6 C                                 1.3892444
    46   6 C     47   6 C                                 1.4232333
    47   6 C     48   7 N                                 1.3247333
    48   7 N     49   6 C                                 1.3467695
    51   6 C     52   8 O                                 1.2146854
    49   6 C     54   6 C                                 1.3753934
    54   6 C     55   7 N                                 1.3524399
    55   7 N     56   6 C                                 1.3134467
    53   6 C     57   6 C                                 1.3597606
    56   6 C     57   6 C                                 1.4455191
    50   6 C     58   6 C                                 1.3722747
    58   6 C     59   6 C                                 1.4231938
    59   6 C     60   6 C                                 1.3538441
    60   6 C     61   6 C                                 1.4176909
    61   6 C     62   6 C                                 1.3594348
    63   6 C     64   8 O                                 1.2087549
    65   6 C     66   6 C                                 1.3652445
    66   6 C     67   6 C                                 1.4126632
    67   6 C     68   6 C                                 1.4259171
    68   6 C     69   6 C                                 1.4084344
    69   6 C     70   6 C                                 1.3672144
    70   6 C     71   6 C                                 1.4017695
    67   6 C     72   6 C                                 1.4101269
    71   6 C     72   6 C                                 1.3670234
    68   6 C     74   6 C                                 1.4144740
    65   6 C     75   6 C                                 1.4265322
    74   6 C     75   6 C                                 1.3684920
    76   6 C     77   6 C                                 1.3695807
    78   6 C     79   7 N                                 1.1483233
    80   6 C     81   7 N                                 1.1473189
     1   6 C     82   1 H                                 1.0787275
     4   6 C     83   1 H                                 1.0784064
     5   6 C     84   1 H                                 1.0795502
     8   6 C     85   1 H                                 1.0784135
    11   6 C     86   1 H                                 1.0797811
    21   6 C     87   1 H                                 1.0868736
    31   6 C     88   1 H                                 1.0762313
    32   6 C     89   1 H                                 1.0719275
    34   6 C     90   1 H                                 1.0820281
    35   6 C     91   1 H                                 1.0827377
    39   6 C     92   1 H                                 1.0872401
    39   6 C     93   1 H                                 1.0890970
    40   6 C     94   1 H                                 1.0921817
    40   6 C     95   1 H                                 1.1002689
    41   7 N     96   1 H                                 1.0142154
    41   7 N     97   1 H                                 1.0135971
    43   6 C     98   1 H                                 1.0881052
    43   6 C     99   1 H                                 1.0901795
    44   6 C    100   1 H                                 1.0912824
    44   6 C    101   1 H                                 1.1021248
    45   7 N    102   1 H                                 1.0152673
    45   7 N    103   1 H                                 1.0130038 (min)
    56   6 C    104   1 H                                 1.0761471
    57   6 C    105   1 H                                 1.0719989
    59   6 C    106   1 H                                 1.0824516
    60   6 C    107   1 H                                 1.0824039
    61   6 C    108   1 H                                 1.0843797
    66   6 C    109   1 H                                 1.0797643
    69   6 C    110   1 H                                 1.0787834
    71   6 C    111   1 H                                 1.0784514
    72   6 C    112   1 H                                 1.0796202
    74   6 C    113   1 H                                 1.0786398

 * 6 distinct bonds (by element types)

   Z      Z             #   av. dist./Å        max./Å        min./Å
   1 H    6 C          28     1.0831356     1.1021248     1.0719275
   6 C    6 C          46     1.3983894     1.5386208     1.3438874
   1 H    7 N           4     1.0140209     1.0152673     1.0130038
   6 C    7 N          14     1.2979809     1.4550960     1.1471290
   6 C    8 O           4     1.2102717     1.2146854     1.2085753
   6 C   16 S           2     1.7352051     1.7370805     1.7333298


optimized geometry written to: xtbopt.xyz


           -------------------------------------------------
          | TOTAL ENERGY             -211.196513519151 Eh   |
          | GRADIENT NORM               0.000570280978 Eh/α |
          | HOMO-LUMO GAP               0.208856057244 eV   |
           -------------------------------------------------

------------------------------------------------------------------------
 * finished run on 2021/05/25 at 23:41:57.148     
------------------------------------------------------------------------
 total:
 * wall-time:     0 d,  0 h,  1 min, 15.013 sec
 *  cpu-time:     0 d,  0 h, 12 min, 19.317 sec
 * ratio c/w:     9.856 speedup
 SCF:
 * wall-time:     0 d,  0 h,  0 min,  1.672 sec
 *  cpu-time:     0 d,  0 h,  0 min, 13.265 sec
 * ratio c/w:     7.933 speedup
 ANC optimizer:
 * wall-time:     0 d,  0 h,  1 min, 13.230 sec
 *  cpu-time:     0 d,  0 h, 12 min,  5.220 sec
 * ratio c/w:     9.903 speedup

