      -----------------------------------------------------------      
     |                   =====================                   |     
     |                           x T B                           |     
     |                   =====================                   |     
     |                         S. Grimme                         |     
     |          Mulliken Center for Theoretical Chemistry        |     
     |                    University of Bonn                     |     
     |                Version 6.2 RC2 (SAW190805)                |     
      -----------------------------------------------------------      

   This program is distributed in the hope that it will be useful,
   but WITHOUT ANY WARRANTY; without even the implied warranty of
   MERCHANTABILITY or FITNESS FOR A PARTICULAR PURPOSE.
   
   FOR NON-COMMERCIAL, ACADEMIA USE ONLY.
   
   Cite this work as:
   * S. Grimme, C. Bannwarth, P. Shushkov, J. Chem. Theory Comput., 2017,
     13, 1989-2009. DOI: 10.1021/acs.jctc.7b00118
   * C. Bannwarth, S. Ehlert and S. Grimme., J. Chem. Theory Comput., 2019,
     15, 1652-1671. DOI: 10.1021/acs.jctc.8b01176
   * P. Pracht, E. Caldeweyher, S. Ehlert, S. Grimme, ChemRxiv, 2019, preprint.
     DOI: 10.26434/chemrxiv.8326202.v1
   
   for DFT-D4:
   * E. Caldeweyher, C. Bannwarth and S. Grimme, J. Chem. Phys., 2017,
     147, 034112. DOI: 10.1063/1.4993215
   * E. Caldeweyher, S. Ehlert, A. Hansen, H. Neugebauer, S. Spicher,
     C. Bannwarth and S. Grimme, J. Chem. Phys., 2019, 150, 154122.
     DOI: 10.1063/1.5090222
   
   for sTDA-xTB:
   * S. Grimme and C. Bannwarth, J. Chem. Phys., 2016, 145, 054103.
     DOI: 10.1063/1.4959605
   
   in the mass-spec context:
   * V. Asgeirsson, C. Bauer and S. Grimme, Chem. Sci., 2017, 8, 4879.
     DOI: 10.1039/c7sc00601b
   
   for metadynamics refer to:
   * S. Grimme, J. Chem. Theory Comput., 2019, 155, 2847-2862
     DOI: 10.1021/acs.jctc.9b00143
   
   with help from (in alphabetical order)
   C. Bannwarth, F. Bohle, G. Brandenburg, E. Caldeweyher, M. Checinski,
   S. Dohm, S. Ehlert, S. Ehrlich, F. März, H. Neugebauer, J. Pisarek,
   P. Pracht, P. Shushkov, and S. Spicher.
   
 * started run on 2021/05/29 at 14:57:16.015     

           -------------------------------------------------
          |                Calculation Setup                |
           -------------------------------------------------

          program call               : /ihome/ghutchison/geoffh/xtb/xtb /ihome/ghutchison/blp62/GA/running_GA/more_units/generations/96/55_564_103_564_55.xyz -opt
          hostname                   : smp-n186
          coordinate file            : /ihome/ghutchison/blp62/GA/running_GA/more_units/generations/96/55_564_103_564_55.xyz
          omp threads                :                    12
          number of atoms            :                   128
          number of electrons        :                   398
          charge                     :                     0
          spin                       :                   0.0
          first test random number   :      0.29992869007119


########################################################################
# WARNING! Please study the warnings concerning your input carefully
#  - XTBPATH is not set, using XTBHOME instead
#  - the use of '-opt' is discouraged, please use '--opt' next time
########################################################################

           ------------------------------------------------- 
          |                 G F N 2 - x T B                 |
          | Geometry, Frequencies, Noncovalent interactions |
          |            JCTC 2019 parametrisation            |
           ------------------------------------------------- 
             KAB for C  - Si     :                1.0500
             KAB for H  - Pd     :                0.9500
             k(s)              :                1.8500
             k(p)              :                2.2300
             k(d)              :                2.2300
             k(f)              :                2.0000
             kEN (H0ij)        :               -2.0000
             D4 a1             :                0.5200
             D4 a2             :                5.0000
             D4 s6             :                1.0000
             D4 s8             :                2.7000
             D4 s9             :                5.0000
             alphaj            :                2.0000

  Z AO/shell   Hii/eV     exponent
  1     Wed Apr 25 08:07:45 CEST 2018   EN: 2.200 GM2: 0.406  GM3: 0.0800  RAES: 1.40
     1s    -10.707211    1.230000
  6     Wed Apr 25 08:07:45 CEST 2018   EN: 2.550 GM2: 0.538  GM3: 0.1500  RAES: 3.00
     2s    -13.970922    2.096432
     2p    -10.063292    1.800000
  7     Wed Apr 25 08:07:45 CEST 2018   EN: 3.040 GM2: 0.461  GM3:-0.0640  RAES: 1.90
     2s    -16.686243    2.339881
     2p    -12.523956    2.014332
  8     Wed Apr 25 08:07:45 CEST 2018   EN: 3.440 GM2: 0.452  GM3:-0.0517  RAES: 1.80
     2s    -20.229985    2.439742
     2p    -15.503117    2.137023
  9     Mon Apr 23 13:58:50 CEST 2018   EN: 3.980 GM2: 0.532  GM3: 0.1426  RAES: 2.40
     2s    -23.458179    2.416361
     2p    -15.746583    2.308399
 16     Tue Apr 24 11:44:34 CEST 2018   EN: 2.580 GM2: 0.340  GM3:-0.0502  RAES: 3.10
     3s    -20.029654    1.981333
     3p    -11.377694    2.025643
     3d     -0.420282    1.702555

           ------------------------------------------------- 
          |        Self-Consistent Charge Iterations        |
           ------------------------------------------------- 

          ...................................................
          :                      SETUP                      :
          :.................................................:
          :  # basis functions                 398          :
          :  # atomic orbitals                 394          :
          :  # shells                          214          :
          :  # electrons                       398          :
          :  max. iterations                   250          :
          :  Hamiltonian                  GFN2-xTB          :
          :  restarted?                      false          :
          :  GBSA solvation                  false          :
          :  PC potential                    false          :
          :  electronic temp.          300.0000000     K    :
          :  accuracy                    1.0000000          :
          :  -> integral cutoff          0.2500000E+02      :
          :  -> integral neglect         0.1000000E-07      :
          :  -> SCF convergence          0.1000000E-05 Eh   :
          :  -> wf. convergence          0.1000000E-03 e    :
          :  Broyden damping             0.4000000          :
          ...................................................

 iter      E             dE          RMSdq      gap      omega  full diag
   1   -219.9528667 -0.219953E+03  0.480E+00    1.38       0.0  T
   2   -220.0380213 -0.851546E-01  0.300E+00    0.86       1.0  T
   3   -219.7074915  0.330530E+00  0.225E+00    0.32       1.0  T
   4   -220.1958270 -0.488335E+00  0.628E-01    0.23       1.0  T
   5   -220.2296773 -0.338504E-01  0.226E-01    0.17       1.0  T
   6   -220.2308668 -0.118944E-02  0.142E-01    0.44       1.0  T
   7   -220.2334453 -0.257856E-02  0.562E-02    0.30       1.0  T
   8   -220.2336836 -0.238241E-03  0.269E-02    0.26       1.0  T
   9   -220.2337012 -0.176285E-04  0.151E-02    0.25       1.0  T
  10   -220.2337093 -0.811246E-05  0.903E-03    0.26       1.0  T
  11   -220.2337149 -0.558196E-05  0.462E-03    0.25       1.9  T
  12   -220.2337170 -0.214102E-05  0.287E-03    0.25       3.1  T
  13   -220.2337180 -0.970717E-06  0.122E-03    0.25       7.2  T
  14   -220.2337180 -0.595336E-07  0.624E-04    0.25      14.2  T
  15   -220.2337181 -0.252005E-07  0.317E-04    0.25      27.9  T

   *** convergence criteria satisfied after 15 iterations ***

         #    Occupation            Energy/Eh            Energy/eV
      -------------------------------------------------------------
         1        2.0000           -0.8343535             -22.7039
       ...           ...                  ...                  ...
       193        2.0000           -0.3960000             -10.7757
       194        2.0000           -0.3806686             -10.3585
       195        2.0000           -0.3776536             -10.2765
       196        2.0000           -0.3775534             -10.2738
       197        2.0000           -0.3698509             -10.0642
       198        1.9994           -0.3499116              -9.5216
       199        1.9852           -0.3469262              -9.4403 (HOMO)
       200        0.0154           -0.3376509              -9.1879 (LUMO)
       201        0.0001           -0.3323660              -9.0441
       202                         -0.3192782              -8.6880
       203                         -0.3164766              -8.6118
       204                         -0.2987188              -8.1286
       ...                                ...                  ...
       394                          1.0967556              29.8442
      -------------------------------------------------------------
                  HL-Gap            0.0092753 Eh            0.2524 eV
             Fermi-level           -0.3422700 Eh           -9.3136 eV

 SCC (total)                   0 d,  0 h,  0 min,  2.566 sec
 SCC setup                      ...        0 min,  0.003 sec (  0.124%)
 Dispersion                     ...        0 min,  0.005 sec (  0.209%)
 integral evaluation            ...        0 min,  0.059 sec (  2.294%)
 zeroth order Hamiltonian       ...        0 min,  0.001 sec (  0.057%)
 iterations                     ...        0 min,  2.388 sec ( 93.054%)
 molecular gradient             ...        0 min,  0.105 sec (  4.108%)
 printout                       ...        0 min,  0.004 sec (  0.149%)

         :::::::::::::::::::::::::::::::::::::::::::::::::::::
         ::                     SUMMARY                     ::
         :::::::::::::::::::::::::::::::::::::::::::::::::::::
         :: total energy            -216.842467561482 Eh    ::
         :: gradient norm              0.192074029012 Eh/a0 ::
         :: HOMO-LUMO gap              0.252394498050 eV    ::
         ::.................................................::
         :: SCC energy              -220.233718073908 Eh    ::
         :: -> isotropic ES            0.138633037107 Eh    ::
         :: -> anisotropic ES          0.011336489610 Eh    ::
         :: -> anisotropic XC          0.152458789379 Eh    ::
         :: -> dispersion             -0.188004985507 Eh    ::
         :: repulsion energy           3.388242909786 Eh    ::
         :: add. restraining           0.000000000000 Eh    ::
         :::::::::::::::::::::::::::::::::::::::::::::::::::::

      ----------------------------------------------------------- 
     |                   =====================                   |
     |                        A N C O P T                        |
     |                   =====================                   |
     |               Approximate Normal Coordinate               |
     |                Rational Function Optimizer                |
      ----------------------------------------------------------- 

          ...................................................
          :                      SETUP                      :
          :.................................................:
          :   optimization level            normal          :
          :   max. optcycles                   384          :
          :   ANC micro-cycles                  20          :
          :   degrees of freedom               378          :
          :.................................................:
          :   RF solver                   davidson          :
          :   input Hessian                  false          :
          :   write xtbopt.log                true          :
          :   linear?                        false          :
          :   energy convergence         0.5000000E-05 Eh   :
          :   grad. convergence          0.1000000E-02 Eh/α :
          :   maximium RF displ.         2.0000000          :
          :   Hlow (freq-cutoff)         0.5000000E-02      :
          :   Hmax (freq-cutoff)         5.0000000          :
          :   S6 in model hess.         20.0000000          :
          ...................................................

generating ANC from model Hessian ...
Using Lindh-Hessian (1995)
 Shifting diagonal of input Hessian by   5.044437234258371E-003
 Lowest  eigenvalues of input Hessian
    0.005000   -0.000000   -0.000000   -0.000000    0.000000    0.000000
    0.000000    0.005048    0.005060    0.005079    0.005100    0.005149
    0.005161    0.005185    0.005243    0.005264    0.005326    0.005404
 Highest eigenvalues
    2.252262    2.260543    2.472230    2.516391    2.546564    2.582505
 

........................................................................
.............................. CYCLE    1 ..............................
........................................................................
   1   -220.2337181 -0.220234E+03  0.161E-04    0.25       0.0  T
   2   -220.2337181  0.809763E-09  0.148E-04    0.25      59.8  T
   3   -220.2337181 -0.280897E-08  0.681E-05    0.25     129.8  T
     SCC iter.                  ...        0 min,  0.196 sec
     gradient                   ...        0 min,  0.051 sec
 * total energy  :  -216.8424677 Eh     change       -0.9960772E-07 Eh
   gradient norm :     0.1920728 Eh/α   predicted     0.0000000E+00 (-100.00%)
   displ. norm   :     0.4965603 α      lambda       -0.5047731E-01
   maximum displ.:     0.1129059 α      in ANC's #70, #78, #173, ...

........................................................................
.............................. CYCLE    2 ..............................
........................................................................
   1   -220.3509994 -0.220351E+03  0.338E-01    0.24       0.0  T
   2   -220.3512493 -0.249917E-03  0.184E-01    0.25       1.0  T
   3   -220.3492849  0.196439E-02  0.138E-01    0.28       1.0  T
   4   -220.3517884 -0.250350E-02  0.407E-02    0.22       1.0  T
   5   -220.3519180 -0.129636E-03  0.271E-02    0.27       1.0  T
   6   -220.3519753 -0.572703E-04  0.148E-02    0.25       1.0  T
   7   -220.3519988 -0.234727E-04  0.355E-03    0.25       2.5  T
   8   -220.3520001 -0.129703E-05  0.156E-03    0.25       5.6  T
   9   -220.3520001 -0.328698E-07  0.104E-03    0.25       8.5  T
     SCC iter.                  ...        0 min,  0.563 sec
     gradient                   ...        0 min,  0.052 sec
 * total energy  :  -216.8780498 Eh     change       -0.3558215E-01 Eh
   gradient norm :     0.0777410 Eh/α   predicted    -0.3146219E-01 ( -11.58%)
   displ. norm   :     0.5974149 α      lambda       -0.2230833E-01
   maximum displ.:     0.1907245 α      in ANC's #22, #70, #40, ...

........................................................................
.............................. CYCLE    3 ..............................
........................................................................
   1   -220.4040712 -0.220404E+03  0.336E-01    0.20       0.0  T
   2   -220.4042281 -0.156866E-03  0.180E-01    0.29       1.0  T
   3   -220.3903066  0.139214E-01  0.238E-01    0.11       1.0  T
   4   -220.4032027 -0.128961E-01  0.904E-02    0.35       1.0  T
   5   -220.4046133 -0.141060E-02  0.419E-02    0.29       1.0  T
   6   -220.4047115 -0.981456E-04  0.325E-02    0.27       1.0  T
   7   -220.4048170 -0.105506E-03  0.189E-02    0.26       1.0  T
   8   -220.4048757 -0.587326E-04  0.897E-03    0.25       1.0  T
   9   -220.4048814 -0.573678E-05  0.343E-03    0.24       2.6  T
  10   -220.4048824 -0.983003E-06  0.145E-03    0.24       6.1  T
     SCC iter.                  ...        0 min,  0.838 sec
     gradient                   ...        0 min,  0.039 sec
 * total energy  :  -216.8927218 Eh     change       -0.1467198E-01 Eh
   gradient norm :     0.0316220 Eh/α   predicted    -0.1513514E-01 (   3.16%)
   displ. norm   :     0.7320839 α      lambda       -0.1358382E-01
   maximum displ.:     0.1914002 α      in ANC's #41, #22, #36, ...

........................................................................
.............................. CYCLE    4 ..............................
........................................................................
   1   -220.4019953 -0.220402E+03  0.373E-01    0.17       0.0  T
   2   -220.4017512  0.244116E-03  0.213E-01    0.32       1.0  T
   3   -220.1165620  0.285189E+00  0.922E-01    0.02       1.0  T
   4   -220.4004744 -0.283912E+00  0.120E-01    0.41       1.0  T
   5   -220.4019351 -0.146067E-02  0.693E-02    0.36       1.0  T
   6   -220.4020924 -0.157280E-03  0.577E-02    0.34       1.0  T
   7   -220.4022959 -0.203555E-03  0.515E-02    0.32       1.0  T
   8   -220.4023762 -0.802352E-04  0.465E-02    0.31       1.0  T
   9   -220.4024717 -0.955242E-04  0.403E-02    0.30       1.0  T
  10   -220.4025936 -0.121912E-03  0.327E-02    0.28       1.0  T
  11   -220.4027057 -0.112122E-03  0.238E-02    0.27       1.0  T
  12   -220.4028425 -0.136829E-03  0.629E-03    0.23       1.4  T
  13   -220.4028455 -0.299214E-05  0.489E-03    0.23       1.8  T
  14   -220.4028509 -0.532874E-05  0.229E-03    0.22       3.9  T
     SCC iter.                  ...        0 min,  0.927 sec
     gradient                   ...        0 min,  0.057 sec
 * total energy  :  -216.8977179 Eh     change       -0.4996108E-02 Eh
   gradient norm :     0.0654187 Eh/α   predicted    -0.1043202E-01 ( 108.80%)
   displ. norm   :     0.5847675 α      lambda       -0.1356118E-01
   maximum displ.:     0.2810003 α      in ANC's #22, #40, #18, ...

........................................................................
.............................. CYCLE    5 ..............................
........................................................................
   1   -220.4298008 -0.220430E+03  0.306E-01    0.21       0.0  T
   2   -220.4298818 -0.809613E-04  0.169E-01    0.24       1.0  T
   3   -220.4234921  0.638972E-02  0.150E-01    0.12       1.0  T
   4   -220.4295837 -0.609165E-02  0.455E-02    0.30       1.0  T
   5   -220.4299586 -0.374842E-03  0.175E-02    0.26       1.0  T
   6   -220.4300059 -0.473066E-04  0.124E-02    0.23       1.0  T
   7   -220.4300254 -0.195221E-04  0.543E-03    0.23       1.6  T
   8   -220.4300295 -0.410124E-05  0.234E-03    0.22       3.8  T
   9   -220.4300298 -0.298099E-06  0.112E-03    0.22       7.9  T
     SCC iter.                  ...        0 min,  0.800 sec
     gradient                   ...        0 min,  0.059 sec
 * total energy  :  -216.9060392 Eh     change       -0.8321312E-02 Eh
   gradient norm :     0.0320257 Eh/α   predicted    -0.9099236E-02 (   9.35%)
   displ. norm   :     0.6498331 α      lambda       -0.6499144E-02
   maximum displ.:     0.3355064 α      in ANC's #22, #18, #20, ...

........................................................................
.............................. CYCLE    6 ..............................
........................................................................
   1   -220.4258655 -0.220426E+03  0.210E-01    0.20       0.0  T
   2   -220.4258700 -0.449362E-05  0.118E-01    0.24       1.0  T
   3   -220.4180999  0.777006E-02  0.152E-01    0.11       1.0  T
   4   -220.4255792 -0.747931E-02  0.453E-02    0.30       1.0  T
   5   -220.4258958 -0.316642E-03  0.193E-02    0.26       1.0  T
   6   -220.4259474 -0.515676E-04  0.153E-02    0.24       1.0  T
   7   -220.4259819 -0.344554E-04  0.678E-03    0.23       1.3  T
   8   -220.4259913 -0.943112E-05  0.293E-03    0.22       3.0  T
   9   -220.4259919 -0.636754E-06  0.119E-03    0.22       7.4  T
  10   -220.4259921 -0.159747E-06  0.631E-04    0.22      14.0  T
     SCC iter.                  ...        0 min,  0.689 sec
     gradient                   ...        0 min,  0.058 sec
 * total energy  :  -216.9114614 Eh     change       -0.5422175E-02 Eh
   gradient norm :     0.0260864 Eh/α   predicted    -0.4621814E-02 ( -14.76%)
   displ. norm   :     0.7687299 α      lambda       -0.6656419E-02
   maximum displ.:     0.3794950 α      in ANC's #22, #18, #20, ...

........................................................................
.............................. CYCLE    7 ..............................
........................................................................
   1   -220.4331407 -0.220433E+03  0.235E-01    0.21       0.0  T
   2   -220.4331881 -0.473865E-04  0.131E-01    0.24       1.0  T
   3   -220.4313884  0.179970E-02  0.879E-02    0.16       1.0  T
   4   -220.4329845 -0.159610E-02  0.373E-02    0.29       1.0  T
   5   -220.4332772 -0.292695E-03  0.133E-02    0.24       1.0  T
   6   -220.4332829 -0.574870E-05  0.107E-02    0.22       1.0  T
   7   -220.4332971 -0.141722E-04  0.357E-03    0.22       2.5  T
   8   -220.4332981 -0.102719E-05  0.169E-03    0.22       5.2  T
   9   -220.4332983 -0.169626E-06  0.844E-04    0.22      10.5  T
     SCC iter.                  ...        0 min,  0.658 sec
     gradient                   ...        0 min,  0.061 sec
 * total energy  :  -216.9166119 Eh     change       -0.5150508E-02 Eh
   gradient norm :     0.0225728 Eh/α   predicted    -0.5294998E-02 (   2.81%)
   displ. norm   :     0.8030765 α      lambda       -0.6825211E-02
   maximum displ.:     0.3666303 α      in ANC's #22, #18, #20, ...

........................................................................
.............................. CYCLE    8 ..............................
........................................................................
   1   -220.4419560 -0.220442E+03  0.314E-01    0.20       0.0  T
   2   -220.4420182 -0.621298E-04  0.176E-01    0.25       1.0  T
   3   -220.4249254  0.170928E-01  0.216E-01    0.09       1.0  T
   4   -220.4415340 -0.166087E-01  0.609E-02    0.34       1.0  T
   5   -220.4420490 -0.514942E-03  0.262E-02    0.29       1.0  T
   6   -220.4421091 -0.601316E-04  0.231E-02    0.26       1.0  T
   7   -220.4421794 -0.702572E-04  0.129E-02    0.25       1.0  T
   8   -220.4422115 -0.321477E-04  0.699E-03    0.23       1.3  T
   9   -220.4422210 -0.949738E-05  0.261E-03    0.22       3.4  T
  10   -220.4422221 -0.111258E-05  0.100E-03    0.22       8.8  T
  11   -220.4422222 -0.846143E-07  0.468E-04    0.22      18.9  T
     SCC iter.                  ...        0 min,  1.147 sec
     gradient                   ...        0 min,  0.067 sec
 * total energy  :  -216.9191967 Eh     change       -0.2584800E-02 Eh
   gradient norm :     0.0517694 Eh/α   predicted    -0.5613503E-02 ( 117.17%)
   displ. norm   :     0.5490559 α      lambda       -0.6212818E-02
   maximum displ.:     0.2724339 α      in ANC's #22, #18, #20, ...

........................................................................
.............................. CYCLE    9 ..............................
........................................................................
   1   -220.4414030 -0.220441E+03  0.236E-01    0.20       0.0  T
   2   -220.4413863  0.167528E-04  0.133E-01    0.25       1.0  T
   3   -220.4181761  0.232101E-01  0.268E-01    0.08       1.0  T
   4   -220.4410646 -0.228885E-01  0.460E-02    0.32       1.0  T
   5   -220.4414269 -0.362272E-03  0.246E-02    0.28       1.0  T
   6   -220.4414772 -0.502996E-04  0.180E-02    0.26       1.0  T
   7   -220.4415372 -0.600159E-04  0.119E-02    0.24       1.0  T
   8   -220.4415565 -0.192826E-04  0.704E-03    0.23       1.3  T
   9   -220.4415673 -0.108011E-04  0.311E-03    0.22       2.8  T
  10   -220.4415692 -0.191330E-05  0.109E-03    0.22       8.1  T
  11   -220.4415693 -0.941433E-07  0.580E-04    0.22      15.2  T
     SCC iter.                  ...        0 min,  1.237 sec
     gradient                   ...        0 min,  0.093 sec
 * total energy  :  -216.9229698 Eh     change       -0.3773092E-02 Eh
   gradient norm :     0.0446884 Eh/α   predicted    -0.4042877E-02 (   7.15%)
   displ. norm   :     0.5561361 α      lambda       -0.5211869E-02
   maximum displ.:     0.2044878 α      in ANC's #22, #27, #18, ...

........................................................................
.............................. CYCLE   10 ..............................
........................................................................
   1   -220.4555072 -0.220456E+03  0.214E-01    0.21       0.0  T
   2   -220.4555890 -0.818386E-04  0.119E-01    0.23       1.0  T
   3   -220.4540489  0.154012E-02  0.915E-02    0.16       1.0  T
   4   -220.4552398 -0.119087E-02  0.452E-02    0.28       1.0  T
   5   -220.4556625 -0.422729E-03  0.125E-02    0.23       1.0  T
   6   -220.4556732 -0.107554E-04  0.905E-03    0.21       1.0  T
   7   -220.4556842 -0.109623E-04  0.328E-03    0.22       2.7  T
   8   -220.4556847 -0.455269E-06  0.168E-03    0.21       5.3  T
   9   -220.4556850 -0.340454E-06  0.894E-04    0.22       9.9  T
     SCC iter.                  ...        0 min,  0.960 sec
     gradient                   ...        0 min,  0.065 sec
 * total energy  :  -216.9239752 Eh     change       -0.1005408E-02 Eh
   gradient norm :     0.0702858 Eh/α   predicted    -0.3411921E-02 ( 239.36%)
   displ. norm   :     0.4780971 α      lambda       -0.5291515E-02
   maximum displ.:     0.2260828 α      in ANC's #22, #18, #20, ...

........................................................................
.............................. CYCLE   11 ..............................
........................................................................
   1   -220.4482795 -0.220448E+03  0.193E-01    0.22       0.0  T
   2   -220.4483340 -0.544742E-04  0.107E-01    0.22       1.0  T
   3   -220.4480487  0.285265E-03  0.541E-02    0.22       1.0  T
   4   -220.4483799 -0.331220E-03  0.947E-03    0.21       1.0  T
   5   -220.4483802 -0.272589E-06  0.721E-03    0.22       1.2  T
   6   -220.4483840 -0.384916E-05  0.392E-03    0.21       2.3  T
   7   -220.4483854 -0.133321E-05  0.228E-03    0.22       3.9  T
     SCC iter.                  ...        0 min,  0.913 sec
     gradient                   ...        0 min,  0.071 sec
 * total energy  :  -216.9271706 Eh     change       -0.3195407E-02 Eh
   gradient norm :     0.0288553 Eh/α   predicted    -0.3250521E-02 (   1.72%)
   displ. norm   :     0.5929458 α      lambda       -0.3794521E-02
   maximum displ.:     0.2467797 α      in ANC's #22, #18, #27, ...

........................................................................
.............................. CYCLE   12 ..............................
........................................................................
   1   -220.4502445 -0.220450E+03  0.255E-01    0.20       0.0  T
   2   -220.4502640 -0.195200E-04  0.141E-01    0.24       1.0  T
   3   -220.4326553  0.176087E-01  0.226E-01    0.08       1.0  T
   4   -220.4499519 -0.172966E-01  0.476E-02    0.31       1.0  T
   5   -220.4502868 -0.334952E-03  0.239E-02    0.27       1.0  T
   6   -220.4503439 -0.570254E-04  0.187E-02    0.25       1.0  T
   7   -220.4503946 -0.507447E-04  0.115E-02    0.24       1.0  T
   8   -220.4504188 -0.241845E-04  0.701E-03    0.23       1.3  T
   9   -220.4504277 -0.893284E-05  0.293E-03    0.22       3.0  T
  10   -220.4504297 -0.192314E-05  0.104E-03    0.21       8.5  T
  11   -220.4504298 -0.103310E-06  0.449E-04    0.21      19.7  T
     SCC iter.                  ...        0 min,  1.106 sec
     gradient                   ...        0 min,  0.086 sec
 * total energy  :  -216.9288781 Eh     change       -0.1707492E-02 Eh
   gradient norm :     0.0487806 Eh/α   predicted    -0.2564311E-02 (  50.18%)
   displ. norm   :     0.5798968 α      lambda       -0.3343608E-02
   maximum displ.:     0.2636662 α      in ANC's #22, #18, #27, ...

........................................................................
.............................. CYCLE   13 ..............................
........................................................................
   1   -220.4512675 -0.220451E+03  0.183E-01    0.21       0.0  T
   2   -220.4512854 -0.179023E-04  0.101E-01    0.23       1.0  T
   3   -220.4495265  0.175894E-02  0.849E-02    0.15       1.0  T
   4   -220.4511535 -0.162703E-02  0.298E-02    0.26       1.0  T
   5   -220.4513367 -0.183230E-03  0.994E-03    0.22       1.0  T
   6   -220.4513414 -0.464010E-05  0.503E-03    0.21       1.8  T
   7   -220.4513449 -0.354873E-05  0.250E-03    0.22       3.5  T
     SCC iter.                  ...        0 min,  0.937 sec
     gradient                   ...        0 min,  0.069 sec
 * total energy  :  -216.9313354 Eh     change       -0.2457287E-02 Eh
   gradient norm :     0.0278072 Eh/α   predicted    -0.2234001E-02 (  -9.09%)
   displ. norm   :     0.6600654 α      lambda       -0.2895087E-02
   maximum displ.:     0.2691621 α      in ANC's #22, #18, #27, ...

........................................................................
.............................. CYCLE   14 ..............................
........................................................................
   1   -220.4605988 -0.220461E+03  0.201E-01    0.21       0.0  T
   2   -220.4606401 -0.412936E-04  0.106E-01    0.22       1.0  T
   3   -220.4600449  0.595277E-03  0.537E-02    0.17       1.0  T
   4   -220.4605069 -0.462045E-03  0.291E-02    0.25       1.0  T
   5   -220.4606606 -0.153694E-03  0.120E-02    0.21       1.0  T
   6   -220.4606697 -0.906081E-05  0.452E-03    0.21       2.0  T
   7   -220.4606726 -0.294399E-05  0.209E-03    0.21       4.2  T
   8   -220.4606732 -0.558790E-06  0.105E-03    0.21       8.4  T
     SCC iter.                  ...        0 min,  0.862 sec
     gradient                   ...        0 min,  0.068 sec
 * total energy  :  -216.9332703 Eh     change       -0.1934909E-02 Eh
   gradient norm :     0.0208471 Eh/α   predicted    -0.2078222E-02 (   7.41%)
   displ. norm   :     0.7661524 α      lambda       -0.2731694E-02
   maximum displ.:     0.3319294 α      in ANC's #22, #27, #18, ...

........................................................................
.............................. CYCLE   15 ..............................
........................................................................
   1   -220.4460136 -0.220446E+03  0.236E-01    0.21       0.0  T
   2   -220.4460343 -0.206983E-04  0.127E-01    0.23       1.0  T
   3   -220.4397100  0.632436E-02  0.148E-01    0.12       1.0  T
   4   -220.4458750 -0.616500E-02  0.351E-02    0.28       1.0  T
   5   -220.4460839 -0.208918E-03  0.198E-02    0.23       1.0  T
   6   -220.4461180 -0.341007E-04  0.937E-03    0.23       1.0  T
   7   -220.4461352 -0.172366E-04  0.429E-03    0.22       2.1  T
   8   -220.4461364 -0.122692E-05  0.211E-03    0.22       4.2  T
   9   -220.4461370 -0.560767E-06  0.894E-04    0.21       9.9  T
     SCC iter.                  ...        0 min,  0.784 sec
     gradient                   ...        0 min,  0.053 sec
 * total energy  :  -216.9352496 Eh     change       -0.1979328E-02 Eh
   gradient norm :     0.0323906 Eh/α   predicted    -0.2167589E-02 (   9.51%)
   displ. norm   :     0.6788637 α      lambda       -0.2283008E-02
   maximum displ.:     0.2853087 α      in ANC's #22, #18, #27, ...

........................................................................
.............................. CYCLE   16 ..............................
........................................................................
   1   -220.4509571 -0.220451E+03  0.186E-01    0.20       0.0  T
   2   -220.4509132  0.438849E-04  0.101E-01    0.24       1.0  T
   3   -220.4393936  0.115197E-01  0.188E-01    0.10       1.0  T
   4   -220.4507988 -0.114052E-01  0.354E-02    0.28       1.0  T
   5   -220.4509558 -0.156999E-03  0.225E-02    0.24       1.0  T
   6   -220.4510050 -0.491787E-04  0.131E-02    0.23       1.0  T
   7   -220.4510404 -0.353701E-04  0.672E-03    0.22       1.3  T
   8   -220.4510448 -0.442751E-05  0.374E-03    0.22       2.4  T
   9   -220.4510475 -0.267596E-05  0.164E-03    0.22       5.4  T
     SCC iter.                  ...        0 min,  1.035 sec
     gradient                   ...        0 min,  0.075 sec
 * total energy  :  -216.9369098 Eh     change       -0.1660196E-02 Eh
   gradient norm :     0.0209800 Eh/α   predicted    -0.1667575E-02 (   0.44%)
   displ. norm   :     0.6819233 α      lambda       -0.2227476E-02
   maximum displ.:     0.2600875 α      in ANC's #27, #22, #18, ...

........................................................................
.............................. CYCLE   17 ..............................
........................................................................
   1   -220.4690812 -0.220469E+03  0.196E-01    0.22       0.0  T
   2   -220.4691336 -0.523965E-04  0.101E-01    0.21       1.0  T
   3   -220.4690622  0.713596E-04  0.288E-02    0.23       1.0  T
   4   -220.4690990 -0.368237E-04  0.188E-02    0.20       1.0  T
   5   -220.4690942  0.478366E-05  0.155E-02    0.24       1.0  T
   6   -220.4691507 -0.564935E-04  0.513E-03    0.22       1.7  T
   7   -220.4691541 -0.336207E-05  0.204E-03    0.22       4.3  T
   8   -220.4691544 -0.339733E-06  0.963E-04    0.22       9.2  T
     SCC iter.                  ...        0 min,  0.902 sec
     gradient                   ...        0 min,  0.060 sec
 * total energy  :  -216.9382564 Eh     change       -0.1346625E-02 Eh
   gradient norm :     0.0306155 Eh/α   predicted    -0.1631654E-02 (  21.17%)
   displ. norm   :     0.6621838 α      lambda       -0.2471076E-02
   maximum displ.:     0.2235771 α      in ANC's #22, #18, #27, ...

........................................................................
.............................. CYCLE   18 ..............................
........................................................................
   1   -220.4648255 -0.220465E+03  0.186E-01    0.21       0.0  T
   2   -220.4648618 -0.362942E-04  0.987E-02    0.22       1.0  T
   3   -220.4644311  0.430695E-03  0.499E-02    0.19       1.0  T
   4   -220.4647786 -0.347506E-03  0.257E-02    0.24       1.0  T
   5   -220.4648712 -0.926252E-04  0.132E-02    0.21       1.0  T
   6   -220.4648935 -0.223077E-04  0.293E-03    0.22       3.0  T
   7   -220.4648940 -0.505757E-06  0.167E-03    0.22       5.3  T
   8   -220.4648944 -0.351841E-06  0.959E-04    0.22       9.2  T
     SCC iter.                  ...        0 min,  0.763 sec
     gradient                   ...        0 min,  0.070 sec
 * total energy  :  -216.9397963 Eh     change       -0.1539882E-02 Eh
   gradient norm :     0.0234189 Eh/α   predicted    -0.1777308E-02 (  15.42%)
   displ. norm   :     0.6917732 α      lambda       -0.1840948E-02
   maximum displ.:     0.2768255 α      in ANC's #22, #18, #27, ...

........................................................................
.............................. CYCLE   19 ..............................
........................................................................
   1   -220.4452414 -0.220445E+03  0.194E-01    0.21       0.0  T
   2   -220.4452330  0.843212E-05  0.103E-01    0.24       1.0  T
   3   -220.4395715  0.566144E-02  0.140E-01    0.13       1.0  T
   4   -220.4451345 -0.556297E-02  0.334E-02    0.28       1.0  T
   5   -220.4453064 -0.171872E-03  0.177E-02    0.24       1.0  T
   6   -220.4453412 -0.347892E-04  0.720E-03    0.23       1.2  T
   7   -220.4453487 -0.751165E-05  0.356E-03    0.22       2.5  T
   8   -220.4453492 -0.535535E-06  0.208E-03    0.22       4.3  T
   9   -220.4453498 -0.585634E-06  0.895E-04    0.22       9.9  T
     SCC iter.                  ...        0 min,  1.135 sec
     gradient                   ...        0 min,  0.062 sec
 * total energy  :  -216.9408769 Eh     change       -0.1080613E-02 Eh
   gradient norm :     0.0249351 Eh/α   predicted    -0.1360967E-02 (  25.94%)
   displ. norm   :     0.5789935 α      lambda       -0.1863162E-02
   maximum displ.:     0.1575580 α      in ANC's #31, #27, #5, ...

........................................................................
.............................. CYCLE   20 ..............................
........................................................................
   1   -220.4602143 -0.220460E+03  0.173E-01    0.22       0.0  T
   2   -220.4602565 -0.421998E-04  0.873E-02    0.23       1.0  T
   3   -220.4600550  0.201484E-03  0.386E-02    0.20       1.0  T
   4   -220.4602045 -0.149526E-03  0.226E-02    0.24       1.0  T
   5   -220.4602580 -0.534602E-04  0.138E-02    0.22       1.0  T
   6   -220.4602817 -0.236832E-04  0.306E-03    0.22       2.9  T
   7   -220.4602827 -0.104321E-05  0.141E-03    0.22       6.3  T
   8   -220.4602829 -0.181978E-06  0.857E-04    0.22      10.3  T
     SCC iter.                  ...        0 min,  0.848 sec
     gradient                   ...        0 min,  0.064 sec
 * total energy  :  -216.9421134 Eh     change       -0.1236469E-02 Eh
   gradient norm :     0.0225402 Eh/α   predicted    -0.1243880E-02 (   0.60%)
   displ. norm   :     0.6520183 α      lambda       -0.1955488E-02
   maximum displ.:     0.1697667 α      in ANC's #25, #5, #27, ...
 * RMSD in coord.:     0.8957251 α      energy gain  -0.9964583E-01 Eh

generating ANC from model Hessian ...
Using Lindh-Hessian (1995)
 Shifting diagonal of input Hessian by   4.995302281357590E-003
 Lowest  eigenvalues of input Hessian
   -0.000000   -0.000000    0.000000    0.000000    0.000000    0.000000
    0.005000    0.005014    0.005031    0.005034    0.005068    0.005097
    0.005141    0.005182    0.005264    0.005345    0.005376    0.005469
 Highest eigenvalues
    2.283204    2.290064    2.597911    2.604031    2.635573    2.661157
 

........................................................................
.............................. CYCLE   21 ..............................
........................................................................
   1   -220.4767452 -0.220477E+03  0.192E-01    0.23       0.0  T
   2   -220.4768090 -0.637608E-04  0.964E-02    0.22       1.0  T
   3   -220.4767198  0.892214E-04  0.324E-02    0.23       1.0  T
   4   -220.4768055 -0.856970E-04  0.186E-02    0.22       1.0  T
   5   -220.4768033  0.214441E-05  0.149E-02    0.23       1.0  T
   6   -220.4768305 -0.271978E-04  0.466E-03    0.22       1.9  T
   7   -220.4768334 -0.292044E-05  0.197E-03    0.23       4.5  T
   8   -220.4768340 -0.562113E-06  0.106E-03    0.22       8.3  T
   9   -220.4768342 -0.149820E-06  0.536E-04    0.23      16.5  T
  10   -220.4768342 -0.222414E-07  0.250E-04    0.22      35.3  T
     SCC iter.                  ...        0 min,  1.208 sec
     gradient                   ...        0 min,  0.070 sec
 * total energy  :  -216.9429033 Eh     change       -0.7899516E-03 Eh
   gradient norm :     0.0251488 Eh/α   predicted     0.0000000E+00 (-100.00%)
   displ. norm   :     0.2251142 α      lambda       -0.1449062E-02
   maximum displ.:     0.1038449 α      in ANC's #7, #2, #17, ...

........................................................................
.............................. CYCLE   22 ..............................
........................................................................
   1   -220.4671978 -0.220467E+03  0.859E-02    0.23       0.0  T
   2   -220.4672092 -0.114111E-04  0.439E-02    0.23       1.0  T
   3   -220.4671663  0.428423E-04  0.196E-02    0.23       1.0  T
   4   -220.4672127 -0.463522E-04  0.736E-03    0.23       1.2  T
   5   -220.4672118  0.863840E-06  0.607E-03    0.22       1.5  T
   6   -220.4672157 -0.387949E-05  0.246E-03    0.23       3.6  T
   7   -220.4672165 -0.809170E-06  0.885E-04    0.23      10.0  T
     SCC iter.                  ...        0 min,  0.644 sec
     gradient                   ...        0 min,  0.079 sec
 * total energy  :  -216.9438421 Eh     change       -0.9387123E-03 Eh
   gradient norm :     0.0089076 Eh/α   predicted    -0.7612479E-03 ( -18.91%)
   displ. norm   :     0.2760475 α      lambda       -0.8659244E-03
   maximum displ.:     0.1004554 α      in ANC's #7, #39, #16, ...

........................................................................
.............................. CYCLE   23 ..............................
........................................................................
   1   -220.4626597 -0.220463E+03  0.120E-01    0.22       0.0  T
   2   -220.4626743 -0.146618E-04  0.633E-02    0.23       1.0  T
   3   -220.4623895  0.284830E-03  0.352E-02    0.19       1.0  T
   4   -220.4626598 -0.270318E-03  0.133E-02    0.24       1.0  T
   5   -220.4626869 -0.270383E-04  0.668E-03    0.23       1.3  T
   6   -220.4626896 -0.270778E-05  0.328E-03    0.22       2.7  T
   7   -220.4626912 -0.163074E-05  0.108E-03    0.23       8.2  T
   8   -220.4626913 -0.923480E-07  0.538E-04    0.23      16.4  T
     SCC iter.                  ...        0 min,  1.009 sec
     gradient                   ...        0 min,  0.063 sec
 * total energy  :  -216.9442184 Eh     change       -0.3763045E-03 Eh
   gradient norm :     0.0106605 Eh/α   predicted    -0.4659572E-03 (  23.82%)
   displ. norm   :     0.3098304 α      lambda       -0.7335948E-03
   maximum displ.:     0.1231412 α      in ANC's #7, #39, #2, ...

........................................................................
.............................. CYCLE   24 ..............................
........................................................................
   1   -220.4627961 -0.220463E+03  0.114E-01    0.23       0.0  T
   2   -220.4628100 -0.138665E-04  0.588E-02    0.23       1.0  T
   3   -220.4627538  0.561784E-04  0.217E-02    0.24       1.0  T
   4   -220.4628112 -0.573579E-04  0.943E-03    0.23       1.0  T
   5   -220.4628056  0.554339E-05  0.918E-03    0.24       1.0  T
   6   -220.4628192 -0.135966E-04  0.192E-03    0.23       4.6  T
   7   -220.4628197 -0.419830E-06  0.724E-04    0.23      12.2  T
   8   -220.4628197 -0.173784E-07  0.409E-04    0.23      21.6  T
     SCC iter.                  ...        0 min,  0.886 sec
     gradient                   ...        0 min,  0.094 sec
 * total energy  :  -216.9448043 Eh     change       -0.5859236E-03 Eh
   gradient norm :     0.0119843 Eh/α   predicted    -0.4020115E-03 ( -31.39%)
   displ. norm   :     0.6093869 α      lambda       -0.1218132E-02
   maximum displ.:     0.2472152 α      in ANC's #7, #39, #2, ...

........................................................................
.............................. CYCLE   25 ..............................
........................................................................
   1   -220.4610646 -0.220461E+03  0.205E-01    0.23       0.0  T
   2   -220.4611039 -0.392878E-04  0.103E-01    0.23       1.0  T
   3   -220.4608186  0.285290E-03  0.475E-02    0.25       1.0  T
   4   -220.4611075 -0.288883E-03  0.196E-02    0.23       1.0  T
   5   -220.4610976  0.991398E-05  0.172E-02    0.24       1.0  T
   6   -220.4611384 -0.408162E-04  0.273E-03    0.23       3.2  T
   7   -220.4611393 -0.906119E-06  0.125E-03    0.24       7.1  T
   8   -220.4611393 -0.235292E-07  0.854E-04    0.23      10.4  T
     SCC iter.                  ...        0 min,  1.277 sec
     gradient                   ...        0 min,  0.059 sec
 * total energy  :  -216.9456819 Eh     change       -0.8775669E-03 Eh
   gradient norm :     0.0134778 Eh/α   predicted    -0.8352455E-03 (  -4.82%)
   displ. norm   :     0.6267597 α      lambda       -0.1075295E-02
   maximum displ.:     0.2608894 α      in ANC's #7, #39, #2, ...

........................................................................
.............................. CYCLE   26 ..............................
........................................................................
   1   -220.4598721 -0.220460E+03  0.208E-01    0.24       0.0  T
   2   -220.4599225 -0.503980E-04  0.102E-01    0.24       1.0  T
   3   -220.4598125  0.109985E-03  0.330E-02    0.25       1.0  T
   4   -220.4599045 -0.919956E-04  0.203E-02    0.23       1.0  T
   5   -220.4599077 -0.321074E-05  0.163E-02    0.25       1.0  T
   6   -220.4599460 -0.383482E-04  0.257E-03    0.24       3.4  T
   7   -220.4599466 -0.606438E-06  0.116E-03    0.24       7.6  T
   8   -220.4599467 -0.312000E-07  0.670E-04    0.24      13.2  T
     SCC iter.                  ...        0 min,  0.735 sec
     gradient                   ...        0 min,  0.051 sec
 * total energy  :  -216.9464698 Eh     change       -0.7879061E-03 Eh
   gradient norm :     0.0143025 Eh/α   predicted    -0.7488509E-03 (  -4.96%)
   displ. norm   :     0.5675103 α      lambda       -0.1133670E-02
   maximum displ.:     0.2616643 α      in ANC's #7, #39, #2, ...

........................................................................
.............................. CYCLE   27 ..............................
........................................................................
   1   -220.4670102 -0.220467E+03  0.182E-01    0.25       0.0  T
   2   -220.4670501 -0.398506E-04  0.895E-02    0.24       1.0  T
   3   -220.4669509  0.992118E-04  0.298E-02    0.26       1.0  T
   4   -220.4670253 -0.744409E-04  0.196E-02    0.23       1.0  T
   5   -220.4670471 -0.217642E-04  0.126E-02    0.24       1.0  T
   6   -220.4670680 -0.209790E-04  0.191E-03    0.24       4.6  T
   7   -220.4670683 -0.271193E-06  0.103E-03    0.24       8.6  T
   8   -220.4670683 -0.339856E-07  0.612E-04    0.24      14.4  T
     SCC iter.                  ...        0 min,  0.895 sec
     gradient                   ...        0 min,  0.048 sec
 * total energy  :  -216.9473663 Eh     change       -0.8965406E-03 Eh
   gradient norm :     0.0135159 Eh/α   predicted    -0.7494074E-03 ( -16.41%)
   displ. norm   :     0.6348422 α      lambda       -0.1258248E-02
   maximum displ.:     0.3086796 α      in ANC's #7, #39, #2, ...

........................................................................
.............................. CYCLE   28 ..............................
........................................................................
   1   -220.4776324 -0.220478E+03  0.189E-01    0.25       0.0  T
   2   -220.4776766 -0.441945E-04  0.925E-02    0.24       1.0  T
   3   -220.4775947  0.818532E-04  0.293E-02    0.26       1.0  T
   4   -220.4776452 -0.504489E-04  0.202E-02    0.23       1.0  T
   5   -220.4776654 -0.202184E-04  0.151E-02    0.25       1.0  T
   6   -220.4776942 -0.287845E-04  0.267E-03    0.25       3.3  T
   7   -220.4776951 -0.899857E-06  0.109E-03    0.24       8.1  T
   8   -220.4776951 -0.477730E-07  0.628E-04    0.25      14.1  T
     SCC iter.                  ...        0 min,  0.737 sec
     gradient                   ...        0 min,  0.068 sec
 * total energy  :  -216.9481765 Eh     change       -0.8101737E-03 Eh
   gradient norm :     0.0176459 Eh/α   predicted    -0.8826813E-03 (   8.95%)
   displ. norm   :     0.6803695 α      lambda       -0.1252098E-02
   maximum displ.:     0.3264447 α      in ANC's #7, #2, #39, ...

........................................................................
.............................. CYCLE   29 ..............................
........................................................................
   1   -220.4696085 -0.220470E+03  0.211E-01    0.25       0.0  T
   2   -220.4696664 -0.578824E-04  0.104E-01    0.25       1.0  T
   3   -220.4696002  0.661737E-04  0.287E-02    0.26       1.0  T
   4   -220.4696122 -0.119729E-04  0.243E-02    0.24       1.0  T
   5   -220.4696668 -0.545525E-04  0.125E-02    0.25       1.0  T
   6   -220.4696867 -0.199496E-04  0.200E-03    0.25       4.4  T
   7   -220.4696870 -0.252441E-06  0.116E-03    0.25       7.6  T
   8   -220.4696870 -0.522789E-07  0.638E-04    0.25      13.8  T
     SCC iter.                  ...        0 min,  0.991 sec
     gradient                   ...        0 min,  0.095 sec
 * total energy  :  -216.9491271 Eh     change       -0.9506460E-03 Eh
   gradient norm :     0.0105265 Eh/α   predicted    -0.9158534E-03 (  -3.66%)
   displ. norm   :     0.6915551 α      lambda       -0.9915925E-03
   maximum displ.:     0.3423154 α      in ANC's #7, #2, #39, ...

........................................................................
.............................. CYCLE   30 ..............................
........................................................................
   1   -220.4654293 -0.220465E+03  0.193E-01    0.26       0.0  T
   2   -220.4654776 -0.483008E-04  0.937E-02    0.25       1.0  T
   3   -220.4653944  0.831994E-04  0.297E-02    0.27       1.0  T
   4   -220.4654364 -0.420574E-04  0.229E-02    0.24       1.0  T
   5   -220.4654792 -0.427568E-04  0.112E-02    0.25       1.0  T
   6   -220.4654951 -0.159074E-04  0.194E-03    0.25       4.6  T
   7   -220.4654955 -0.363465E-06  0.909E-04    0.25       9.7  T
   8   -220.4654955 -0.235448E-08  0.605E-04    0.25      14.6  T
     SCC iter.                  ...        0 min,  0.779 sec
     gradient                   ...        0 min,  0.056 sec
 * total energy  :  -216.9499843 Eh     change       -0.8571868E-03 Eh
   gradient norm :     0.0121223 Eh/α   predicted    -0.7329155E-03 ( -14.50%)
   displ. norm   :     0.6882941 α      lambda       -0.1336131E-02
   maximum displ.:     0.3644669 α      in ANC's #7, #2, #27, ...

........................................................................
.............................. CYCLE   31 ..............................
........................................................................
   1   -220.4766527 -0.220477E+03  0.183E-01    0.27       0.0  T
   2   -220.4766923 -0.395862E-04  0.912E-02    0.24       1.0  T
   3   -220.4763776  0.314702E-03  0.457E-02    0.30       1.0  T
   4   -220.4767043 -0.326702E-03  0.193E-02    0.25       1.0  T
   5   -220.4767009  0.347136E-05  0.167E-02    0.25       1.0  T
   6   -220.4767327 -0.318849E-04  0.406E-03    0.25       2.2  T
   7   -220.4767345 -0.176851E-05  0.133E-03    0.25       6.6  T
   8   -220.4767346 -0.141244E-06  0.740E-04    0.25      11.9  T
     SCC iter.                  ...        0 min,  0.937 sec
     gradient                   ...        0 min,  0.048 sec
 * total energy  :  -216.9507354 Eh     change       -0.7510513E-03 Eh
   gradient norm :     0.0196086 Eh/α   predicted    -0.9845646E-03 (  31.09%)
   displ. norm   :     0.7156021 α      lambda       -0.1467367E-02
   maximum displ.:     0.3545123 α      in ANC's #7, #39, #2, ...

........................................................................
.............................. CYCLE   32 ..............................
........................................................................
   1   -220.4696020 -0.220470E+03  0.223E-01    0.26       0.0  T
   2   -220.4696753 -0.732656E-04  0.107E-01    0.25       1.0  T
   3   -220.4695163  0.158927E-03  0.384E-02    0.28       1.0  T
   4   -220.4696579 -0.141593E-03  0.228E-02    0.25       1.0  T
   5   -220.4696814 -0.234617E-04  0.145E-02    0.26       1.0  T
   6   -220.4697047 -0.233560E-04  0.263E-03    0.26       3.4  T
   7   -220.4697054 -0.656160E-06  0.128E-03    0.26       6.9  T
   8   -220.4697055 -0.758863E-07  0.718E-04    0.26      12.3  T
     SCC iter.                  ...        0 min,  0.848 sec
     gradient                   ...        0 min,  0.073 sec
 * total energy  :  -216.9516843 Eh     change       -0.9488942E-03 Eh
   gradient norm :     0.0163774 Eh/α   predicted    -0.1109392E-02 (  16.91%)
   displ. norm   :     0.6177737 α      lambda       -0.1001637E-02
   maximum displ.:     0.3423471 α      in ANC's #7, #2, #39, ...

........................................................................
.............................. CYCLE   33 ..............................
........................................................................
   1   -220.4649027 -0.220465E+03  0.171E-01    0.26       0.0  T
   2   -220.4649417 -0.389479E-04  0.863E-02    0.26       1.0  T
   3   -220.4648005  0.141224E-03  0.369E-02    0.26       1.0  T
   4   -220.4649413 -0.140813E-03  0.172E-02    0.26       1.0  T
   5   -220.4649407  0.589573E-06  0.142E-02    0.26       1.0  T
   6   -220.4649647 -0.239948E-04  0.232E-03    0.26       3.8  T
   7   -220.4649654 -0.706634E-06  0.101E-03    0.26       8.7  T
   8   -220.4649654 -0.532825E-07  0.626E-04    0.26      14.1  T
     SCC iter.                  ...        0 min,  0.993 sec
     gradient                   ...        0 min,  0.041 sec
 * total energy  :  -216.9524028 Eh     change       -0.7185148E-03 Eh
   gradient norm :     0.0131802 Eh/α   predicted    -0.6919598E-03 (  -3.70%)
   displ. norm   :     0.6142136 α      lambda       -0.9772077E-03
   maximum displ.:     0.3506066 α      in ANC's #7, #2, #39, ...

........................................................................
.............................. CYCLE   34 ..............................
........................................................................
   1   -220.4669747 -0.220467E+03  0.157E-01    0.27       0.0  T
   2   -220.4670083 -0.335673E-04  0.794E-02    0.26       1.0  T
   3   -220.4669272  0.811085E-04  0.280E-02    0.28       1.0  T
   4   -220.4669895 -0.623638E-04  0.181E-02    0.26       1.0  T
   5   -220.4670088 -0.192549E-04  0.111E-02    0.26       1.0  T
   6   -220.4670230 -0.142235E-04  0.193E-03    0.26       4.6  T
   7   -220.4670233 -0.333855E-06  0.986E-04    0.26       9.0  T
   8   -220.4670234 -0.332482E-07  0.589E-04    0.26      15.0  T
     SCC iter.                  ...        0 min,  0.714 sec
     gradient                   ...        0 min,  0.046 sec
 * total energy  :  -216.9532159 Eh     change       -0.8130918E-03 Eh
   gradient norm :     0.0105177 Eh/α   predicted    -0.6729343E-03 ( -17.24%)
   displ. norm   :     0.6814436 α      lambda       -0.1112333E-02
   maximum displ.:     0.3838020 α      in ANC's #7, #2, #39, ...

........................................................................
.............................. CYCLE   35 ..............................
........................................................................
   1   -220.4783285 -0.220478E+03  0.174E-01    0.27       0.0  T
   2   -220.4783714 -0.428848E-04  0.900E-02    0.26       1.0  T
   3   -220.4782989  0.724609E-04  0.284E-02    0.28       1.0  T
   4   -220.4783506 -0.516660E-04  0.188E-02    0.26       1.0  T
   5   -220.4783687 -0.180876E-04  0.135E-02    0.26       1.0  T
   6   -220.4783888 -0.201063E-04  0.263E-03    0.26       3.4  T
   7   -220.4783894 -0.618764E-06  0.136E-03    0.26       6.5  T
   8   -220.4783895 -0.881784E-07  0.777E-04    0.26      11.4  T
     SCC iter.                  ...        0 min,  0.665 sec
     gradient                   ...        0 min,  0.057 sec
 * total energy  :  -216.9540255 Eh     change       -0.8096569E-03 Eh
   gradient norm :     0.0112491 Eh/α   predicted    -0.8144352E-03 (   0.59%)
   displ. norm   :     0.7802091 α      lambda       -0.1046298E-02
   maximum displ.:     0.4511142 α      in ANC's #7, #2, #39, ...

........................................................................
.............................. CYCLE   36 ..............................
........................................................................
   1   -220.4735594 -0.220474E+03  0.196E-01    0.27       0.0  T
   2   -220.4736150 -0.555400E-04  0.100E-01    0.26       1.0  T
   3   -220.4735104  0.104539E-03  0.330E-02    0.28       1.0  T
   4   -220.4736036 -0.932280E-04  0.197E-02    0.26       1.0  T
   5   -220.4736107 -0.700367E-05  0.153E-02    0.27       1.0  T
   6   -220.4736394 -0.287022E-04  0.292E-03    0.27       3.0  T
   7   -220.4736402 -0.869854E-06  0.116E-03    0.27       7.6  T
   8   -220.4736403 -0.363639E-07  0.708E-04    0.27      12.5  T
     SCC iter.                  ...        0 min,  0.917 sec
     gradient                   ...        0 min,  0.056 sec
 * total energy  :  -216.9548515 Eh     change       -0.8259616E-03 Eh
   gradient norm :     0.0143054 Eh/α   predicted    -0.8416044E-03 (   1.89%)
   displ. norm   :     0.6524890 α      lambda       -0.9934704E-03
   maximum displ.:     0.3769103 α      in ANC's #7, #2, #6, ...

........................................................................
.............................. CYCLE   37 ..............................
........................................................................
   1   -220.4767034 -0.220477E+03  0.160E-01    0.27       0.0  T
   2   -220.4767386 -0.352346E-04  0.834E-02    0.27       1.0  T
   3   -220.4766588  0.798608E-04  0.289E-02    0.27       1.0  T
   4   -220.4767407 -0.819861E-04  0.142E-02    0.27       1.0  T
   5   -220.4767402  0.592970E-06  0.115E-02    0.27       1.0  T
   6   -220.4767550 -0.148176E-04  0.355E-03    0.27       2.5  T
   7   -220.4767564 -0.145453E-05  0.123E-03    0.27       7.2  T
   8   -220.4767565 -0.773898E-07  0.710E-04    0.27      12.5  T
     SCC iter.                  ...        0 min,  0.563 sec
     gradient                   ...        0 min,  0.050 sec
 * total energy  :  -216.9555066 Eh     change       -0.6551027E-03 Eh
   gradient norm :     0.0145597 Eh/α   predicted    -0.7082173E-03 (   8.11%)
   displ. norm   :     0.6554826 α      lambda       -0.9598996E-03
   maximum displ.:     0.3879224 α      in ANC's #7, #2, #6, ...

........................................................................
.............................. CYCLE   38 ..............................
........................................................................
   1   -220.4698775 -0.220470E+03  0.159E-01    0.27       0.0  T
   2   -220.4699129 -0.353948E-04  0.832E-02    0.26       1.0  T
   3   -220.4698836  0.293671E-04  0.199E-02    0.28       1.0  T
   4   -220.4699087 -0.251579E-04  0.126E-02    0.26       1.0  T
   5   -220.4699188 -0.100242E-04  0.757E-03    0.27       1.2  T
   6   -220.4699255 -0.673042E-05  0.305E-03    0.27       2.9  T
   7   -220.4699264 -0.941979E-06  0.118E-03    0.27       7.5  T
   8   -220.4699265 -0.208422E-07  0.713E-04    0.27      12.4  T
     SCC iter.                  ...        0 min,  0.525 sec
     gradient                   ...        0 min,  0.232 sec
 * total energy  :  -216.9562129 Eh     change       -0.7063061E-03 Eh
   gradient norm :     0.0119150 Eh/α   predicted    -0.6861659E-03 (  -2.85%)
   displ. norm   :     0.5909917 α      lambda       -0.8160135E-03
   maximum displ.:     0.3411444 α      in ANC's #7, #2, #6, ...

........................................................................
.............................. CYCLE   39 ..............................
........................................................................
   1   -220.4750533 -0.220475E+03  0.133E-01    0.27       0.0  T
   2   -220.4750781 -0.247467E-04  0.708E-02    0.27       1.0  T
   3   -220.4750237  0.544245E-04  0.230E-02    0.28       1.0  T
   4   -220.4750739 -0.502652E-04  0.129E-02    0.27       1.0  T
   5   -220.4750803 -0.635661E-05  0.873E-03    0.27       1.0  T
   6   -220.4750891 -0.882188E-05  0.249E-03    0.27       3.6  T
   7   -220.4750898 -0.703408E-06  0.850E-04    0.27      10.4  T
   8   -220.4750898 -0.116844E-07  0.576E-04    0.27      15.3  T
     SCC iter.                  ...        0 min,  0.762 sec
     gradient                   ...        0 min,  0.065 sec
 * total energy  :  -216.9567584 Eh     change       -0.5454954E-03 Eh
   gradient norm :     0.0159005 Eh/α   predicted    -0.5505128E-03 (   0.92%)
   displ. norm   :     0.5897797 α      lambda       -0.9278526E-03
   maximum displ.:     0.3638741 α      in ANC's #7, #2, #6, ...

........................................................................
.............................. CYCLE   40 ..............................
........................................................................
   1   -220.4823814 -0.220482E+03  0.139E-01    0.28       0.0  T
   2   -220.4824199 -0.385850E-04  0.705E-02    0.27       1.0  T
   3   -220.4823510  0.689604E-04  0.270E-02    0.28       1.0  T
   4   -220.4824265 -0.754976E-04  0.125E-02    0.27       1.0  T
   5   -220.4824276 -0.111531E-05  0.926E-03    0.27       1.0  T
   6   -220.4824347 -0.713420E-05  0.431E-03    0.27       2.1  T
   7   -220.4824370 -0.229707E-05  0.135E-03    0.27       6.6  T
   8   -220.4824371 -0.795761E-07  0.809E-04    0.27      10.9  T
     SCC iter.                  ...        0 min,  0.742 sec
     gradient                   ...        0 min,  0.085 sec
 * total energy  :  -216.9571150 Eh     change       -0.3565978E-03 Eh
   gradient norm :     0.0218523 Eh/α   predicted    -0.6253049E-03 (  75.35%)
   displ. norm   :     0.4530717 α      lambda       -0.1093844E-02
   maximum displ.:     0.2493421 α      in ANC's #7, #6, #2, ...

........................................................................
.............................. CYCLE   41 ..............................
........................................................................
   1   -220.4809415 -0.220481E+03  0.116E-01    0.28       0.0  T
   2   -220.4809630 -0.215664E-04  0.619E-02    0.27       1.0  T
   3   -220.4809411  0.219332E-04  0.165E-02    0.28       1.0  T
   4   -220.4809646 -0.234544E-04  0.912E-03    0.27       1.0  T
   5   -220.4809659 -0.136978E-05  0.666E-03    0.27       1.3  T
   6   -220.4809708 -0.483580E-05  0.234E-03    0.28       3.8  T
   7   -220.4809713 -0.521549E-06  0.103E-03    0.28       8.6  T
     SCC iter.                  ...        0 min,  0.800 sec
     gradient                   ...        0 min,  0.054 sec
 * total energy  :  -216.9576812 Eh     change       -0.5662656E-03 Eh
   gradient norm :     0.0172244 Eh/α   predicted    -0.6591917E-03 (  16.41%)
   displ. norm   :     0.4231821 α      lambda       -0.1023929E-02
   maximum displ.:     0.2630001 α      in ANC's #7, #2, #6, ...

........................................................................
.............................. CYCLE   42 ..............................
........................................................................
   1   -220.4830861 -0.220483E+03  0.121E-01    0.28       0.0  T
   2   -220.4831239 -0.377769E-04  0.608E-02    0.28       1.0  T
   3   -220.4829945  0.129407E-03  0.320E-02    0.27       1.0  T
   4   -220.4831267 -0.132173E-03  0.142E-02    0.28       1.0  T
   5   -220.4831362 -0.948747E-05  0.938E-03    0.28       1.0  T
   6   -220.4831446 -0.842103E-05  0.342E-03    0.28       2.6  T
   7   -220.4831454 -0.843754E-06  0.130E-03    0.28       6.8  T
   8   -220.4831455 -0.730697E-07  0.739E-04    0.28      12.0  T
     SCC iter.                  ...        0 min,  0.700 sec
     gradient                   ...        0 min,  0.055 sec
 * total energy  :  -216.9578826 Eh     change       -0.2013288E-03 Eh
   gradient norm :     0.0270436 Eh/α   predicted    -0.6036512E-03 ( 199.83%)
   displ. norm   :     0.4322345 α      lambda       -0.1395782E-02
   maximum displ.:     0.2639973 α      in ANC's #7, #2, #6, ...
 * RMSD in coord.:     0.9557611 α      energy gain  -0.1576918E-01 Eh

generating ANC from model Hessian ...
Using Lindh-Hessian (1995)
 Shifting diagonal of input Hessian by   4.996932479117644E-003
 Lowest  eigenvalues of input Hessian
   -0.000000   -0.000000   -0.000000   -0.000000   -0.000000    0.000000
    0.005000    0.005018    0.005032    0.005035    0.005058    0.005113
    0.005143    0.005206    0.005267    0.005351    0.005369    0.005600
 Highest eigenvalues
    2.278756    2.283873    2.556567    2.581011    2.613495    2.645813
 

........................................................................
.............................. CYCLE   43 ..............................
........................................................................
   1   -220.4693867 -0.220469E+03  0.117E-01    0.28       0.0  T
   2   -220.4694190 -0.323328E-04  0.618E-02    0.28       1.0  T
   3   -220.4694022  0.168348E-04  0.175E-02    0.28       1.0  T
   4   -220.4694249 -0.227307E-04  0.809E-03    0.28       1.1  T
   5   -220.4694253 -0.388743E-06  0.561E-03    0.28       1.6  T
   6   -220.4694283 -0.297214E-05  0.232E-03    0.28       3.8  T
   7   -220.4694288 -0.513606E-06  0.983E-04    0.28       9.0  T
   8   -220.4694289 -0.854868E-07  0.513E-04    0.28      17.2  T
     SCC iter.                  ...        0 min,  0.841 sec
     gradient                   ...        0 min,  0.056 sec
 * total energy  :  -216.9580985 Eh     change       -0.2159077E-03 Eh
   gradient norm :     0.0349579 Eh/α   predicted     0.0000000E+00 (-100.00%)
   displ. norm   :     0.2323050 α      lambda       -0.1555529E-02
   maximum displ.:     0.1390985 α      in ANC's #6, #10, #2, ...

........................................................................
.............................. CYCLE   44 ..............................
........................................................................
   1   -220.4834254 -0.220483E+03  0.915E-02    0.28       0.0  T
   2   -220.4834442 -0.187823E-04  0.464E-02    0.28       1.0  T
   3   -220.4834098  0.343686E-04  0.193E-02    0.28       1.0  T
   4   -220.4834453 -0.354555E-04  0.935E-03    0.28       1.0  T
   5   -220.4834468 -0.151110E-05  0.740E-03    0.28       1.2  T
   6   -220.4834525 -0.567913E-05  0.194E-03    0.28       4.6  T
   7   -220.4834527 -0.278035E-06  0.942E-04    0.28       9.4  T
     SCC iter.                  ...        0 min,  0.512 sec
     gradient                   ...        0 min,  0.054 sec
 * total energy  :  -216.9589826 Eh     change       -0.8841100E-03 Eh
   gradient norm :     0.0085894 Eh/α   predicted    -0.8197371E-03 (  -7.28%)
   displ. norm   :     0.1943790 α      lambda       -0.4677622E-03
   maximum displ.:     0.1044482 α      in ANC's #6, #10, #41, ...

........................................................................
.............................. CYCLE   45 ..............................
........................................................................
   1   -220.4864815 -0.220486E+03  0.765E-02    0.28       0.0  T
   2   -220.4864897 -0.818085E-05  0.406E-02    0.28       1.0  T
   3   -220.4864396  0.500586E-04  0.208E-02    0.29       1.0  T
   4   -220.4864975 -0.578613E-04  0.457E-03    0.28       1.9  T
   5   -220.4864971  0.383898E-06  0.310E-03    0.28       2.9  T
   6   -220.4864986 -0.150124E-05  0.112E-03    0.28       7.9  T
   7   -220.4864987 -0.896360E-07  0.703E-04    0.28      12.6  T
     SCC iter.                  ...        0 min,  0.512 sec
     gradient                   ...        0 min,  0.054 sec
 * total energy  :  -216.9592739 Eh     change       -0.2913528E-03 Eh
   gradient norm :     0.0095906 Eh/α   predicted    -0.2427182E-03 ( -16.69%)
   displ. norm   :     0.3294508 α      lambda       -0.5661824E-03
   maximum displ.:     0.1858913 α      in ANC's #6, #10, #32, ...

........................................................................
.............................. CYCLE   46 ..............................
........................................................................
   1   -220.4846517 -0.220485E+03  0.941E-02    0.28       0.0  T
   2   -220.4846660 -0.143001E-04  0.489E-02    0.28       1.0  T
   3   -220.4846508  0.151772E-04  0.135E-02    0.28       1.0  T
   4   -220.4846683 -0.174694E-04  0.686E-03    0.28       1.3  T
   5   -220.4846690 -0.756748E-06  0.494E-03    0.28       1.8  T
   6   -220.4846717 -0.263454E-05  0.183E-03    0.28       4.8  T
   7   -220.4846720 -0.349814E-06  0.693E-04    0.28      12.8  T
     SCC iter.                  ...        0 min,  0.972 sec
     gradient                   ...        0 min,  0.104 sec
 * total energy  :  -216.9596817 Eh     change       -0.4078053E-03 Eh
   gradient norm :     0.0082770 Eh/α   predicted    -0.3138209E-03 ( -23.05%)
   displ. norm   :     0.4318031 α      lambda       -0.5923887E-03
   maximum displ.:     0.2478035 α      in ANC's #6, #10, #32, ...

........................................................................
.............................. CYCLE   47 ..............................
........................................................................
   1   -220.4803306 -0.220480E+03  0.912E-02    0.28       0.0  T
   2   -220.4803396 -0.899589E-05  0.489E-02    0.28       1.0  T
   3   -220.4802936  0.459889E-04  0.197E-02    0.28       1.0  T
   4   -220.4803443 -0.506043E-04  0.676E-03    0.28       1.3  T
   5   -220.4803451 -0.882298E-06  0.386E-03    0.28       2.3  T
   6   -220.4803467 -0.151788E-05  0.197E-03    0.28       4.5  T
   7   -220.4803471 -0.454295E-06  0.682E-04    0.28      13.0  T
     SCC iter.                  ...        0 min,  0.958 sec
     gradient                   ...        0 min,  0.102 sec
 * total energy  :  -216.9601615 Eh     change       -0.4797154E-03 Eh
   gradient norm :     0.0126993 Eh/α   predicted    -0.3514324E-03 ( -26.74%)
   displ. norm   :     0.5350257 α      lambda       -0.7236811E-03
   maximum displ.:     0.3109044 α      in ANC's #6, #10, #2, ...

........................................................................
.............................. CYCLE   48 ..............................
........................................................................
   1   -220.4772216 -0.220477E+03  0.108E-01    0.28       0.0  T
   2   -220.4772341 -0.125487E-04  0.581E-02    0.28       1.0  T
   3   -220.4772027  0.314284E-04  0.173E-02    0.28       1.0  T
   4   -220.4772362 -0.335313E-04  0.810E-03    0.28       1.1  T
   5   -220.4772401 -0.381681E-05  0.300E-03    0.28       2.9  T
   6   -220.4772411 -0.105570E-05  0.110E-03    0.28       8.0  T
   7   -220.4772412 -0.464518E-07  0.803E-04    0.28      11.0  T
     SCC iter.                  ...        0 min,  1.081 sec
     gradient                   ...        0 min,  0.098 sec
 * total energy  :  -216.9607558 Eh     change       -0.5943493E-03 Eh
   gradient norm :     0.0126769 Eh/α   predicted    -0.4654200E-03 ( -21.69%)
   displ. norm   :     0.5859345 α      lambda       -0.7972227E-03
   maximum displ.:     0.3567504 α      in ANC's #6, #10, #2, ...

........................................................................
.............................. CYCLE   49 ..............................
........................................................................
   1   -220.4780018 -0.220478E+03  0.114E-01    0.28       0.0  T
   2   -220.4780169 -0.151274E-04  0.610E-02    0.28       1.0  T
   3   -220.4779656  0.513884E-04  0.218E-02    0.28       1.0  T
   4   -220.4780204 -0.548416E-04  0.929E-03    0.28       1.0  T
   5   -220.4780205 -0.128943E-06  0.665E-03    0.28       1.3  T
   6   -220.4780259 -0.540660E-05  0.193E-03    0.28       4.6  T
   7   -220.4780263 -0.358133E-06  0.792E-04    0.28      11.2  T
   8   -220.4780263 -0.107897E-07  0.440E-04    0.28      20.1  T
     SCC iter.                  ...        0 min,  0.945 sec
     gradient                   ...        0 min,  0.287 sec
 * total energy  :  -216.9613913 Eh     change       -0.6355315E-03 Eh
   gradient norm :     0.0078829 Eh/α   predicted    -0.5354689E-03 ( -15.74%)
   displ. norm   :     0.6337526 α      lambda       -0.7679821E-03
   maximum displ.:     0.3949131 α      in ANC's #6, #10, #2, ...

........................................................................
.............................. CYCLE   50 ..............................
........................................................................
   1   -220.4814236 -0.220481E+03  0.114E-01    0.29       0.0  T
   2   -220.4814375 -0.139641E-04  0.619E-02    0.28       1.0  T
   3   -220.4813857  0.518212E-04  0.219E-02    0.28       1.0  T
   4   -220.4814365 -0.507533E-04  0.106E-02    0.28       1.0  T
   5   -220.4814350  0.146129E-05  0.921E-03    0.28       1.0  T
   6   -220.4814459 -0.108526E-04  0.153E-03    0.28       5.8  T
   7   -220.4814460 -0.189505E-06  0.698E-04    0.28      12.7  T
   8   -220.4814460 -0.169959E-08  0.426E-04    0.28      20.7  T
     SCC iter.                  ...        0 min,  0.799 sec
     gradient                   ...        0 min,  0.063 sec
 * total energy  :  -216.9620331 Eh     change       -0.6417730E-03 Eh
   gradient norm :     0.0073840 Eh/α   predicted    -0.5382205E-03 ( -16.14%)
   displ. norm   :     0.6835379 α      lambda       -0.7543701E-03
   maximum displ.:     0.4317728 α      in ANC's #6, #10, #2, ...

........................................................................
.............................. CYCLE   51 ..............................
........................................................................
   1   -220.4827573 -0.220483E+03  0.124E-01    0.29       0.0  T
   2   -220.4827723 -0.150021E-04  0.680E-02    0.28       1.0  T
   3   -220.4827118  0.604605E-04  0.233E-02    0.29       1.0  T
   4   -220.4827712 -0.594042E-04  0.108E-02    0.28       1.0  T
   5   -220.4827717 -0.438777E-06  0.877E-03    0.28       1.0  T
   6   -220.4827814 -0.974854E-05  0.161E-03    0.28       5.5  T
   7   -220.4827817 -0.221765E-06  0.831E-04    0.28      10.6  T
   8   -220.4827817 -0.257406E-07  0.485E-04    0.28      18.2  T
     SCC iter.                  ...        0 min,  0.833 sec
     gradient                   ...        0 min,  0.182 sec
 * total energy  :  -216.9627003 Eh     change       -0.6671381E-03 Eh
   gradient norm :     0.0070236 Eh/α   predicted    -0.5534151E-03 ( -17.05%)
   displ. norm   :     0.7107621 α      lambda       -0.8260206E-03
   maximum displ.:     0.4541454 α      in ANC's #6, #10, #2, ...

........................................................................
.............................. CYCLE   52 ..............................
........................................................................
   1   -220.4906688 -0.220491E+03  0.121E-01    0.29       0.0  T
   2   -220.4906819 -0.131607E-04  0.655E-02    0.28       1.0  T
   3   -220.4905723  0.109645E-03  0.296E-02    0.28       1.0  T
   4   -220.4906808 -0.108534E-03  0.123E-02    0.29       1.0  T
   5   -220.4906832 -0.241182E-05  0.928E-03    0.28       1.0  T
   6   -220.4906933 -0.100701E-04  0.188E-03    0.28       4.7  T
   7   -220.4906936 -0.294387E-06  0.874E-04    0.28      10.1  T
   8   -220.4906936 -0.256301E-07  0.535E-04    0.28      16.5  T
     SCC iter.                  ...        0 min,  0.792 sec
     gradient                   ...        0 min,  0.064 sec
 * total energy  :  -216.9633901 Eh     change       -0.6898528E-03 Eh
   gradient norm :     0.0125244 Eh/α   predicted    -0.6216571E-03 (  -9.89%)
   displ. norm   :     0.7814322 α      lambda       -0.9412522E-03
   maximum displ.:     0.5014366 α      in ANC's #6, #10, #2, ...

........................................................................
.............................. CYCLE   53 ..............................
........................................................................
   1   -220.4885866 -0.220489E+03  0.161E-01    0.29       0.0  T
   2   -220.4886134 -0.267905E-04  0.869E-02    0.29       1.0  T
   3   -220.4884650  0.148445E-03  0.351E-02    0.28       1.0  T
   4   -220.4886149 -0.149983E-03  0.142E-02    0.29       1.0  T
   5   -220.4886194 -0.447057E-05  0.103E-02    0.28       1.0  T
   6   -220.4886318 -0.123608E-04  0.225E-03    0.29       3.9  T
   7   -220.4886322 -0.462446E-06  0.112E-03    0.29       7.9  T
   8   -220.4886323 -0.312081E-07  0.663E-04    0.29      13.3  T
     SCC iter.                  ...        0 min,  0.810 sec
     gradient                   ...        0 min,  0.065 sec
 * total energy  :  -216.9641577 Eh     change       -0.7675620E-03 Eh
   gradient norm :     0.0112883 Eh/α   predicted    -0.7580082E-03 (  -1.24%)
   displ. norm   :     0.7588248 α      lambda       -0.8381476E-03
   maximum displ.:     0.4743160 α      in ANC's #6, #10, #2, ...

........................................................................
.............................. CYCLE   54 ..............................
........................................................................
   1   -220.4832279 -0.220483E+03  0.133E-01    0.29       0.0  T
   2   -220.4832411 -0.132317E-04  0.727E-02    0.29       1.0  T
   3   -220.4830376  0.203479E-03  0.386E-02    0.28       1.0  T
   4   -220.4832439 -0.206267E-03  0.137E-02    0.29       1.0  T
   5   -220.4832491 -0.518404E-05  0.997E-03    0.29       1.0  T
   6   -220.4832601 -0.110272E-04  0.245E-03    0.29       3.6  T
   7   -220.4832607 -0.600133E-06  0.968E-04    0.29       9.1  T
   8   -220.4832608 -0.403110E-07  0.562E-04    0.29      15.7  T
     SCC iter.                  ...        0 min,  1.000 sec
     gradient                   ...        0 min,  0.068 sec
 * total energy  :  -216.9648698 Eh     change       -0.7121464E-03 Eh
   gradient norm :     0.0099528 Eh/α   predicted    -0.6603895E-03 (  -7.27%)
   displ. norm   :     0.7576785 α      lambda       -0.9362147E-03
   maximum displ.:     0.4842179 α      in ANC's #6, #10, #2, ...

........................................................................
.............................. CYCLE   55 ..............................
........................................................................
   1   -220.4852965 -0.220485E+03  0.137E-01    0.29       0.0  T
   2   -220.4853104 -0.139402E-04  0.753E-02    0.29       1.0  T
   3   -220.4851426  0.167827E-03  0.357E-02    0.29       1.0  T
   4   -220.4853102 -0.167648E-03  0.135E-02    0.29       1.0  T
   5   -220.4853161 -0.583789E-05  0.947E-03    0.29       1.0  T
   6   -220.4853263 -0.102218E-04  0.222E-03    0.29       4.0  T
   7   -220.4853268 -0.506943E-06  0.846E-04    0.29      10.5  T
   8   -220.4853268 -0.290455E-07  0.505E-04    0.29      17.5  T
     SCC iter.                  ...        0 min,  0.841 sec
     gradient                   ...        0 min,  0.062 sec
 * total energy  :  -216.9656257 Eh     change       -0.7558992E-03 Eh
   gradient norm :     0.0083847 Eh/α   predicted    -0.7368421E-03 (  -2.52%)
   displ. norm   :     0.8107478 α      lambda       -0.8401301E-03
   maximum displ.:     0.5148613 α      in ANC's #6, #10, #2, ...

........................................................................
.............................. CYCLE   56 ..............................
........................................................................
   1   -220.4830234 -0.220483E+03  0.139E-01    0.30       0.0  T
   2   -220.4830385 -0.150962E-04  0.771E-02    0.29       1.0  T
   3   -220.4829474  0.910649E-04  0.263E-02    0.29       1.0  T
   4   -220.4830417 -0.943075E-04  0.103E-02    0.29       1.0  T
   5   -220.4830402  0.158780E-05  0.930E-03    0.29       1.0  T
   6   -220.4830502 -0.100849E-04  0.238E-03    0.29       3.7  T
   7   -220.4830508 -0.594370E-06  0.847E-04    0.29      10.4  T
   8   -220.4830509 -0.200435E-07  0.499E-04    0.29      17.7  T
     SCC iter.                  ...        0 min,  0.736 sec
     gradient                   ...        0 min,  0.045 sec
 * total energy  :  -216.9663685 Eh     change       -0.7428012E-03 Eh
   gradient norm :     0.0090261 Eh/α   predicted    -0.6961809E-03 (  -6.28%)
   displ. norm   :     0.8123356 α      lambda       -0.8657096E-03
   maximum displ.:     0.5108261 α      in ANC's #6, #10, #2, ...

........................................................................
.............................. CYCLE   57 ..............................
........................................................................
[...]
    94   1 H      0.924     0.043     2.411     2.428
    95   1 H      0.924     0.050     2.323     2.384
    96   1 H      0.924     0.048     2.344     2.394
    97   1 H      0.926     0.038     2.470     2.458
    98   1 H      0.924     0.057     2.240     2.341
    99   1 H      0.923     0.000     3.054     2.733
   100   1 H      0.924     0.027     2.626     2.534
   101   1 H      0.860     0.160     1.337     1.811
   102   1 H      0.860     0.158     1.349     1.819
   103   1 H      0.923     0.001     3.036     2.725
   104   1 H      0.924     0.028     2.610     2.526
   105   1 H      0.860     0.143     1.449     1.886
   106   1 H      0.860     0.136     1.499     1.918
   107   1 H      0.926     0.046     2.368     2.406
   108   1 H      0.923     0.074     2.046     2.237
   109   1 H      0.926     0.033     2.543     2.494
   110   1 H      0.926     0.040     2.443     2.444
   111   1 H      0.926     0.038     2.482     2.464
   112   1 H      0.926     0.038     2.477     2.461
   113   1 H      0.925     0.047     2.357     2.401
   114   1 H      0.926     0.070     2.080     2.255
   115   1 H      0.924     0.049     2.334     2.389
   116   1 H      0.923     0.178     1.219     1.727
   117   1 H      0.924     0.046     2.375     2.410
   118   1 H      0.924     0.054     2.265     2.354
   119   1 H      0.924     0.038     2.470     2.458
   120   1 H      0.924     0.044     2.393     2.419
   121   1 H      0.924     0.048     2.351     2.398
   122   1 H      0.924     0.061     2.186     2.312
   123   1 H      0.925     0.075     2.029     2.227
   124   1 H      0.926     0.064     2.153     2.295
   125   1 H      0.926     0.070     2.089     2.260
   126   1 H      0.926     0.067     2.118     2.276
   127   1 H      0.926     0.057     2.236     2.338
   128   1 H      0.926     0.058     2.219     2.329

 Mol. C6AA /au·bohr⁶  :     263821.955088
 Mol. C8AA /au·bohr⁸  :    7152402.539303
 Mol. α(0) /au        :        816.784250


Wiberg/Mayer (AO) data.
largest (>0.10) Wiberg bond orders for each atom
          total WBO             WBO to atom ...
     1  C   3.977        C    2 1.492    C    7 1.290    H   83 0.963    C    5 0.111
     2  C   3.880        C    1 1.492    C    4 1.292    F    3 0.965
     3  F   1.094        C    2 0.965
     4  C   3.976        C    5 1.547    C    2 1.292    H   84 0.966
     5  C   3.981        C    4 1.547    C    6 1.287    H   85 0.967    C    1 0.111
     6  C   3.980        C    5 1.287    C   11 1.270    C    7 1.242
     7  C   3.984        C    1 1.290    C    8 1.271    C    6 1.242
     8  C   3.971        C    9 1.508    C    7 1.271    H   86 0.960
     9  C   3.984        C    8 1.508    C   10 1.200    C   15 1.081
    10  C   3.974        C   11 1.526    C    9 1.200    C   12 1.015
    11  C   3.979        C   10 1.526    C    6 1.270    H   87 0.963
    12  C   3.923        O   13 1.776    C   14 1.016    C   10 1.015
    13  O   2.039        C   12 1.776
    14  C   3.961        C   21 1.548    C   15 1.138    C   12 1.016
    15  C   3.972        C   16 1.473    C   14 1.138    C    9 1.081
    16  C   3.962        C   15 1.473    C   19 1.104    C   17 1.101
    17  C   3.946        N   18 2.760    C   16 1.101
    18  N   2.975        C   17 2.760
    19  C   3.946        N   20 2.762    C   16 1.104
    20  N   2.968        C   19 2.762
    21  C   3.945        C   14 1.548    C   22 1.236    H   88 0.937
    22  C   3.934        C   26 1.391    C   21 1.236    S   23 1.106
    23  S   2.596        C   24 1.145    C   22 1.106
    24  C   3.925        C   25 1.438    S   23 1.145    C   32 1.124
    25  C   3.962        C   24 1.438    C   26 1.309    C   31 1.012
    26  C   3.960        C   22 1.391    C   25 1.309    C   27 1.017
    27  C   3.973        C   26 1.017    C   29 0.999    H   89 0.957    S   28 0.945
    28  S   2.017        H   90 0.964    C   27 0.945
    29  C   3.994        C   30 1.005    C   27 0.999    H   91 0.977    H   92 0.974
    30  C   3.995        C   29 1.005    C   31 1.001    H   93 0.977    H   94 0.974
    31  C   3.996        C   25 1.012    C   30 1.001    H   95 0.967    H   96 0.956
    32  C   3.949        C   33 1.503    C   49 1.179    C   24 1.124
    33  C   3.952        C   32 1.503    C   34 1.250    H   97 0.960
    34  C   3.975        C   35 1.441    C   33 1.250    C   47 1.096
    35  C   3.920        C   34 1.441    C   41 1.138    C   36 1.018
    36  C   3.991        C   35 1.018    C   39 0.974    C   37 0.970    H   98 0.957
    37  C   3.983        N   38 1.037    H  100 0.975    C   36 0.970    H   99 0.960
    38  N   3.003        C   37 1.037    H  101 0.950    H  102 0.950
    39  C   3.979        N   40 1.024    C   36 0.974    H  104 0.972    H  103 0.969
    40  N   3.014        C   39 1.024    H  106 0.966    H  105 0.965
    41  C   3.982        C   42 1.668    C   35 1.138    C   46 1.048
    42  C   3.924        C   41 1.668    C   43 1.010    H  107 0.959
    43  C   3.989        C   44 1.026    C   42 1.010    C   50 0.966    H  108 0.906
    44  C   3.931        C   45 1.720    C   43 1.026    H  109 0.969
    45  C   3.986        C   44 1.720    C   46 1.211    H  110 0.964
    46  C   3.960        C   47 1.432    C   45 1.211    C   41 1.048
    47  C   3.982        C   46 1.432    C   48 1.222    C   34 1.096
    48  C   3.983        C   49 1.642    C   47 1.222    H  111 0.966
    49  C   3.934        C   48 1.642    C   32 1.179    H  112 0.963
    50  C   3.939        C   51 1.776    C   43 0.966    H  113 0.957
    51  C   3.982        C   50 1.776    C   52 1.160    H  114 0.947
    52  C   3.932        C   56 1.435    C   51 1.160    S   53 1.137
    53  S   2.590        C   52 1.137    C   54 1.102
    54  C   3.940        C   55 1.413    C   62 1.215    S   53 1.102
    55  C   3.961        C   54 1.413    C   56 1.292    C   61 1.019
    56  C   3.971        C   52 1.435    C   55 1.292    C   57 1.014
    57  C   3.977        C   56 1.014    C   59 0.998    H  115 0.955    S   58 0.954
    58  S   2.017        H  116 0.956    C   57 0.954
    59  C   3.994        C   60 1.005    C   57 0.998    H  117 0.977    H  118 0.973
    60  C   3.996        C   59 1.005    C   61 1.003    H  119 0.977    H  120 0.975
    61  C   3.995        C   55 1.019    C   60 1.003    H  121 0.962    H  122 0.951
    62  C   3.946        C   63 1.569    C   54 1.215    H  123 0.943
    63  C   3.963        C   62 1.569    C   77 1.132    C   64 1.011
    64  C   3.924        O   65 1.778    C   66 1.020    C   63 1.011
    65  O   2.040        C   64 1.778
    66  C   3.974        C   67 1.523    C   76 1.198    C   64 1.020
    67  C   3.979        C   66 1.523    C   68 1.271    H  124 0.963
    68  C   3.979        C   73 1.287    C   67 1.271    C   69 1.240
    69  C   3.984        C   70 1.290    C   75 1.273    C   68 1.240
    70  C   3.976        C   71 1.491    C   69 1.290    H  125 0.963    C   73 0.111
    71  C   3.881        C   70 1.491    C   72 1.291    F   74 0.968
    72  C   3.975        C   73 1.547    C   71 1.291    H  126 0.966
    73  C   3.981        C   72 1.547    C   68 1.287    H  127 0.966    C   70 0.111
    74  F   1.098        C   71 0.968
    75  C   3.969        C   76 1.505    C   69 1.273    H  128 0.959
    76  C   3.984        C   75 1.505    C   66 1.198    C   77 1.085
    77  C   3.968        C   78 1.475    C   63 1.132    C   76 1.085
    78  C   3.959        C   77 1.475    C   81 1.104    C   79 1.100
    79  C   3.944        N   80 2.754    C   78 1.100
    80  N   2.973        C   79 2.754
    81  C   3.944        N   82 2.753    C   78 1.104
    82  N   2.973        C   81 2.753
    83  H   0.995        C    1 0.963
    84  H   0.995        C    4 0.966
    85  H   0.997        C    5 0.967
    86  H   0.996        C    8 0.960
    87  H   0.995        C   11 0.963
    88  H   0.990        C   21 0.937
    89  H   0.996        C   27 0.957
    90  H   0.973        S   28 0.964
    91  H   0.998        C   29 0.977
    92  H   0.997        C   29 0.974
    93  H   0.998        C   30 0.977
    94  H   0.997        C   30 0.974
    95  H   0.997        C   31 0.967
    96  H   0.996        C   31 0.956
    97  H   0.998        C   33 0.960
    98  H   0.996        C   36 0.957
    99  H   0.998        C   37 0.960
   100  H   0.999        C   37 0.975
   101  H   0.974        N   38 0.950
   102  H   0.973        N   38 0.950
   103  H   1.000        C   39 0.969
   104  H   0.999        C   39 0.972
   105  H   0.979        N   40 0.965
   106  H   0.980        N   40 0.966
   107  H   0.997        C   42 0.959
   108  H   0.981        C   43 0.906
   109  H   0.998        C   44 0.969
   110  H   0.997        C   45 0.964
   111  H   0.997        C   48 0.966
   112  H   0.998        C   49 0.963
   113  H   0.997        C   50 0.957
   114  H   0.995        C   51 0.947
   115  H   0.996        C   57 0.955
   116  H   0.968        S   58 0.956
   117  H   0.997        C   59 0.977
   118  H   0.997        C   59 0.973
   119  H   0.998        C   60 0.977
   120  H   0.997        C   60 0.975
   121  H   0.997        C   61 0.962
   122  H   0.994        C   61 0.951
   123  H   0.992        C   62 0.943
   124  H   0.995        C   67 0.963
   125  H   0.995        C   70 0.963
   126  H   0.995        C   72 0.966
   127  H   0.996        C   73 0.966
   128  H   0.996        C   75 0.959

molecular dipole:
                 x           y           z       tot (Debye)
 q only:       -0.067      -3.417       1.462
   full:       -0.066      -4.064       1.551      11.056
molecular quadrupole (traceless):
                xx          xy          yy          xz          yz          zz
 q only:      -28.233     -65.653      54.970      35.014     -13.284     -26.737
  q+dip:      -46.713     -92.117      76.102      44.606     -32.534     -29.389
   full:      -43.266     -81.232      77.293      48.861     -29.783     -34.027

           -------------------------------------------------
          |                Geometry Summary                 |
           -------------------------------------------------

      molecular mass/u    :     1145.3872000
   center of mass at/Å    :        9.8622332      -5.0851995      -1.2860164
  moments of inertia/u·Å² :        0.1316410E+05   0.7154289E+05   0.7892521E+05
rotational constants/cm⁻¹ :        0.1280577E-02   0.2356297E-03   0.2135900E-03

 * 115 selected distances

     #   Z        #   Z                                     value/Å
     1   6 C      2   6 C                                 1.3668924
     2   6 C      4   6 C                                 1.4010945
     4   6 C      5   6 C                                 1.3673436
     5   6 C      6   6 C                                 1.4096965
     1   6 C      7   6 C                                 1.4084264
     6   6 C      7   6 C                                 1.4253287
     7   6 C      8   6 C                                 1.4145993
     8   6 C      9   6 C                                 1.3678381
     9   6 C     10   6 C                                 1.4250182
     6   6 C     11   6 C                                 1.4136904
    10   6 C     11   6 C                                 1.3643173
    12   6 C     13   8 O                                 1.2100459
    15   6 C     16   6 C                                 1.3724264
    17   6 C     18   7 N                                 1.1486110
    19   6 C     20   7 N                                 1.1484199
    14   6 C     21   6 C                                 1.3633002
    21   6 C     22   6 C                                 1.4136903
    22   6 C     23  16 S                                 1.7437770
    23  16 S     24   6 C                                 1.7343286
    24   6 C     25   6 C                                 1.3825808
    22   6 C     26   6 C                                 1.3898854
    25   6 C     26   6 C                                 1.4063525
    26   6 C     27   6 C                                 1.4922692
    27   6 C     29   6 C                                 1.5281440
    29   6 C     30   6 C                                 1.5238102
    25   6 C     31   6 C                                 1.4952145
    30   6 C     31   6 C                                 1.5268610
    32   6 C     33   6 C                                 1.3741835
    33   6 C     34   6 C                                 1.4102573
    34   6 C     35   6 C                                 1.3859193
    37   6 C     38   7 N                                 1.4474244
    36   6 C     39   6 C                                 1.5392072
    39   6 C     40   7 N                                 1.4550357
    41   6 C     42   6 C                                 1.3446664
    44   6 C     45   6 C                                 1.3452619
    45   6 C     46   6 C                                 1.4159364
    46   6 C     47   6 C                                 1.3789529
    47   6 C     48   6 C                                 1.4148649
    32   6 C     49   6 C                                 1.4355379
    48   6 C     49   6 C                                 1.3551553
    50   6 C     51   6 C                                 1.3353518
    51   6 C     52   6 C                                 1.4312502
    52   6 C     53  16 S                                 1.7361480
    53  16 S     54   6 C                                 1.7447103 (max)
    54   6 C     55   6 C                                 1.3829590
    52   6 C     56   6 C                                 1.3842365
    55   6 C     56   6 C                                 1.4085598
    56   6 C     57   6 C                                 1.4934678
    57   6 C     59   6 C                                 1.5291154
    59   6 C     60   6 C                                 1.5238937
    55   6 C     61   6 C                                 1.4907061
    60   6 C     61   6 C                                 1.5263187
    54   6 C     62   6 C                                 1.4167353
    62   6 C     63   6 C                                 1.3609481
    64   6 C     65   8 O                                 1.2099018
    66   6 C     67   6 C                                 1.3647614
    67   6 C     68   6 C                                 1.4133600
    68   6 C     69   6 C                                 1.4254980
    69   6 C     70   6 C                                 1.4083526
    70   6 C     71   6 C                                 1.3671494
    71   6 C     72   6 C                                 1.4013646
    68   6 C     73   6 C                                 1.4097835
    72   6 C     73   6 C                                 1.3673413
    69   6 C     75   6 C                                 1.4142352
    66   6 C     76   6 C                                 1.4254936
    75   6 C     76   6 C                                 1.3685002
    77   6 C     78   6 C                                 1.3730263
    79   6 C     80   7 N                                 1.1491944
    81   6 C     82   7 N                                 1.1488880
     1   6 C     83   1 H                                 1.0788643
     4   6 C     84   1 H                                 1.0784995
     5   6 C     85   1 H                                 1.0797461
     8   6 C     86   1 H                                 1.0788413
    11   6 C     87   1 H                                 1.0797660
    21   6 C     88   1 H                                 1.0856861
    27   6 C     89   1 H                                 1.0934727
    28  16 S     90   1 H                                 1.3306932
    29   6 C     91   1 H                                 1.0916716
    29   6 C     92   1 H                                 1.0930673
    30   6 C     93   1 H                                 1.0915963
    30   6 C     94   1 H                                 1.0905711
    31   6 C     95   1 H                                 1.0914768
    31   6 C     96   1 H                                 1.0946538
    33   6 C     97   1 H                                 1.0780027
    36   6 C     98   1 H                                 1.0946688
    37   6 C     99   1 H                                 1.1027390
    37   6 C    100   1 H                                 1.0956751
    38   7 N    101   1 H                                 1.0162707
    38   7 N    102   1 H                                 1.0152243
    39   6 C    103   1 H                                 1.1045422
    39   6 C    104   1 H                                 1.0932912
    40   7 N    105   1 H                                 1.0154224
    40   7 N    106   1 H                                 1.0146592 (min)
    42   6 C    107   1 H                                 1.0802043
    43   6 C    108   1 H                                 1.1013665
    44   6 C    109   1 H                                 1.0796826
    45   6 C    110   1 H                                 1.0802036
    48   6 C    111   1 H                                 1.0796673
    49   6 C    112   1 H                                 1.0804457
    50   6 C    113   1 H                                 1.0833573
    51   6 C    114   1 H                                 1.0799308
    57   6 C    115   1 H                                 1.0939980
    58  16 S    116   1 H                                 1.3301558
    59   6 C    117   1 H                                 1.0905042
    59   6 C    118   1 H                                 1.0924280
    60   6 C    119   1 H                                 1.0923722
    60   6 C    120   1 H                                 1.0903666
    61   6 C    121   1 H                                 1.0923831
    61   6 C    122   1 H                                 1.0943929
    62   6 C    123   1 H                                 1.0853969
    67   6 C    124   1 H                                 1.0796769
    70   6 C    125   1 H                                 1.0788391
    72   6 C    126   1 H                                 1.0784263
    73   6 C    127   1 H                                 1.0795893
    75   6 C    128   1 H                                 1.0786458

 * 7 distinct bonds (by element types)

   Z      Z             #   av. dist./Å        max./Å        min./Å
   1 H    6 C          40     1.0872177     1.1045422     1.0780027
   6 C    6 C          57     1.4154585     1.5392072     1.3353518
   1 H    7 N           4     1.0153942     1.0162707     1.0146592
   6 C    7 N           6     1.2495956     1.4550357     1.1484199
   6 C    8 O           2     1.2099738     1.2100459     1.2099018
   1 H   16 S           2     1.3304245     1.3306932     1.3301558
   6 C   16 S           4     1.7397410     1.7447103     1.7343286


optimized geometry written to: xtbopt.xyz


           -------------------------------------------------
          | TOTAL ENERGY             -216.990497058643 Eh   |
          | GRADIENT NORM               0.000916875496 Eh/α |
          | HOMO-LUMO GAP               0.221464283944 eV   |
           -------------------------------------------------

------------------------------------------------------------------------
 * finished run on 2021/05/29 at 15:02:03.174     
------------------------------------------------------------------------
 total:
 * wall-time:     0 d,  0 h,  4 min, 47.159 sec
 *  cpu-time:     0 d,  0 h, 38 min, 49.997 sec
 * ratio c/w:     8.114 speedup
 SCF:
 * wall-time:     0 d,  0 h,  0 min,  2.568 sec
 *  cpu-time:     0 d,  0 h,  0 min, 20.584 sec
 * ratio c/w:     8.016 speedup
 ANC optimizer:
 * wall-time:     0 d,  0 h,  4 min, 44.294 sec
 *  cpu-time:     0 d,  0 h, 38 min, 27.538 sec
 * ratio c/w:     8.117 speedup

