      -----------------------------------------------------------      
     |                   =====================                   |     
     |                           x T B                           |     
     |                   =====================                   |     
     |                         S. Grimme                         |     
     |          Mulliken Center for Theoretical Chemistry        |     
     |                    University of Bonn                     |     
     |                Version 6.2 RC2 (SAW190805)                |     
      -----------------------------------------------------------      

   This program is distributed in the hope that it will be useful,
   but WITHOUT ANY WARRANTY; without even the implied warranty of
   MERCHANTABILITY or FITNESS FOR A PARTICULAR PURPOSE.
   
   FOR NON-COMMERCIAL, ACADEMIA USE ONLY.
   
   Cite this work as:
   * S. Grimme, C. Bannwarth, P. Shushkov, J. Chem. Theory Comput., 2017,
     13, 1989-2009. DOI: 10.1021/acs.jctc.7b00118
   * C. Bannwarth, S. Ehlert and S. Grimme., J. Chem. Theory Comput., 2019,
     15, 1652-1671. DOI: 10.1021/acs.jctc.8b01176
   * P. Pracht, E. Caldeweyher, S. Ehlert, S. Grimme, ChemRxiv, 2019, preprint.
     DOI: 10.26434/chemrxiv.8326202.v1
   
   for DFT-D4:
   * E. Caldeweyher, C. Bannwarth and S. Grimme, J. Chem. Phys., 2017,
     147, 034112. DOI: 10.1063/1.4993215
   * E. Caldeweyher, S. Ehlert, A. Hansen, H. Neugebauer, S. Spicher,
     C. Bannwarth and S. Grimme, J. Chem. Phys., 2019, 150, 154122.
     DOI: 10.1063/1.5090222
   
   for sTDA-xTB:
   * S. Grimme and C. Bannwarth, J. Chem. Phys., 2016, 145, 054103.
     DOI: 10.1063/1.4959605
   
   in the mass-spec context:
   * V. Asgeirsson, C. Bauer and S. Grimme, Chem. Sci., 2017, 8, 4879.
     DOI: 10.1039/c7sc00601b
   
   for metadynamics refer to:
   * S. Grimme, J. Chem. Theory Comput., 2019, 155, 2847-2862
     DOI: 10.1021/acs.jctc.9b00143
   
   with help from (in alphabetical order)
   C. Bannwarth, F. Bohle, G. Brandenburg, E. Caldeweyher, M. Checinski,
   S. Dohm, S. Ehlert, S. Ehrlich, F. März, H. Neugebauer, J. Pisarek,
   P. Pracht, P. Shushkov, and S. Spicher.
   
 * started run on 2021/05/20 at 15:19:28.896     

           -------------------------------------------------
          |                Calculation Setup                |
           -------------------------------------------------

          program call               : /ihome/ghutchison/geoffh/xtb/xtb /ihome/ghutchison/blp62/GA/running_GA/more_units/generations/6/62_169_127_169_62.xyz -opt
          hostname                   : smp-n155
          coordinate file            : /ihome/ghutchison/blp62/GA/running_GA/more_units/generations/6/62_169_127_169_62.xyz
          omp threads                :                    12
          number of atoms            :                   109
          number of electrons        :                   372
          charge                     :                     0
          spin                       :                   0.0
          first test random number   :      0.46494994197075


########################################################################
# WARNING! Please study the warnings concerning your input carefully
#  - XTBPATH is not set, using XTBHOME instead
#  - the use of '-opt' is discouraged, please use '--opt' next time
########################################################################

           ------------------------------------------------- 
          |                 G F N 2 - x T B                 |
          | Geometry, Frequencies, Noncovalent interactions |
          |            JCTC 2019 parametrisation            |
           ------------------------------------------------- 
             KAB for C  - Si     :                1.0500
             KAB for H  - Pd     :                0.9500
             k(s)              :                1.8500
             k(p)              :                2.2300
             k(d)              :                2.2300
             k(f)              :                2.0000
             kEN (H0ij)        :               -2.0000
             D4 a1             :                0.5200
             D4 a2             :                5.0000
             D4 s6             :                1.0000
             D4 s8             :                2.7000
             D4 s9             :                5.0000
             alphaj            :                2.0000

  Z AO/shell   Hii/eV     exponent
  1     Wed Apr 25 08:07:45 CEST 2018   EN: 2.200 GM2: 0.406  GM3: 0.0800  RAES: 1.40
     1s    -10.707211    1.230000
  6     Wed Apr 25 08:07:45 CEST 2018   EN: 2.550 GM2: 0.538  GM3: 0.1500  RAES: 3.00
     2s    -13.970922    2.096432
     2p    -10.063292    1.800000
  7     Wed Apr 25 08:07:45 CEST 2018   EN: 3.040 GM2: 0.461  GM3:-0.0640  RAES: 1.90
     2s    -16.686243    2.339881
     2p    -12.523956    2.014332
 16     Tue Apr 24 11:44:34 CEST 2018   EN: 2.580 GM2: 0.340  GM3:-0.0502  RAES: 3.10
     3s    -20.029654    1.981333
     3p    -11.377694    2.025643
     3d     -0.420282    1.702555

           ------------------------------------------------- 
          |        Self-Consistent Charge Iterations        |
           ------------------------------------------------- 

          ...................................................
          :                      SETUP                      :
          :.................................................:
          :  # basis functions                 382          :
          :  # atomic orbitals                 377          :
          :  # shells                          195          :
          :  # electrons                       372          :
          :  max. iterations                   250          :
          :  Hamiltonian                  GFN2-xTB          :
          :  restarted?                      false          :
          :  GBSA solvation                  false          :
          :  PC potential                    false          :
          :  electronic temp.          300.0000000     K    :
          :  accuracy                    1.0000000          :
          :  -> integral cutoff          0.2500000E+02      :
          :  -> integral neglect         0.1000000E-07      :
          :  -> SCF convergence          0.1000000E-05 Eh   :
          :  -> wf. convergence          0.1000000E-03 e    :
          :  Broyden damping             0.4000000          :
          ...................................................

 iter      E             dE          RMSdq      gap      omega  full diag
   1   -203.7244863 -0.203724E+03  0.591E+00    1.63       0.0  T
   2   -203.6529875  0.714988E-01  0.407E+00    1.15       1.0  T
   3   -203.4299924  0.222995E+00  0.291E+00    0.75       1.0  T
   4   -204.0782319 -0.648240E+00  0.527E-01    0.62       1.0  T
   5   -204.0945083 -0.162764E-01  0.292E-01    0.57       1.0  T
   6   -204.0996863 -0.517796E-02  0.959E-02    0.70       1.0  T
   7   -204.1004042 -0.717859E-03  0.484E-02    0.69       1.0  T
   8   -204.1005421 -0.137911E-03  0.249E-02    0.69       1.0  T
   9   -204.1005555 -0.134166E-04  0.146E-02    0.68       1.0  T
  10   -204.1005717 -0.162297E-04  0.649E-03    0.69       1.5  T
  11   -204.1005748 -0.304994E-05  0.326E-03    0.68       2.9  T
  12   -204.1005752 -0.445234E-06  0.192E-03    0.69       5.0  T
  13   -204.1005754 -0.190286E-06  0.935E-04    0.68      10.2  T
  14   -204.1005754 -0.234215E-07  0.546E-04    0.69      17.6  T

   *** convergence criteria satisfied after 14 iterations ***

         #    Occupation            Energy/Eh            Energy/eV
      -------------------------------------------------------------
         1        2.0000           -0.7623706             -20.7452
       ...           ...                  ...                  ...
       180        2.0000           -0.4100632             -11.1584
       181        2.0000           -0.4028848             -10.9631
       182        2.0000           -0.3994992             -10.8709
       183        2.0000           -0.3939442             -10.7198
       184        2.0000           -0.3929532             -10.6928
       185        2.0000           -0.3700370             -10.0692
       186        2.0000           -0.3660556              -9.9609 (HOMO)
       187        0.0000           -0.3408757              -9.2757 (LUMO)
       188        0.0000           -0.3399561              -9.2507
       189                         -0.3316347              -9.0242
       190                         -0.3292150              -8.9584
       191                         -0.3079053              -8.3785
       ...                                ...                  ...
       377                          1.0813010              29.4237
      -------------------------------------------------------------
                  HL-Gap            0.0251799 Eh            0.6852 eV
             Fermi-level           -0.3536115 Eh           -9.6223 eV

 SCC (total)                   0 d,  0 h,  0 min,  0.281 sec
 SCC setup                      ...        0 min,  0.003 sec (  0.915%)
 Dispersion                     ...        0 min,  0.006 sec (  2.220%)
 integral evaluation            ...        0 min,  0.028 sec ( 10.084%)
 zeroth order Hamiltonian       ...        0 min,  0.002 sec (  0.569%)
 iterations                     ...        0 min,  0.216 sec ( 76.746%)
 molecular gradient             ...        0 min,  0.025 sec (  8.988%)
 printout                       ...        0 min,  0.001 sec (  0.442%)

         :::::::::::::::::::::::::::::::::::::::::::::::::::::
         ::                     SUMMARY                     ::
         :::::::::::::::::::::::::::::::::::::::::::::::::::::
         :: total energy            -200.494755678576 Eh    ::
         :: gradient norm              0.199454012743 Eh/a0 ::
         :: HOMO-LUMO gap              0.685180406642 eV    ::
         ::.................................................::
         :: SCC energy              -204.100575436078 Eh    ::
         :: -> isotropic ES            0.083671294893 Eh    ::
         :: -> anisotropic ES          0.016575578150 Eh    ::
         :: -> anisotropic XC          0.235206697908 Eh    ::
         :: -> dispersion             -0.174882205817 Eh    ::
         :: repulsion energy           3.604988874663 Eh    ::
         :: add. restraining           0.000000000000 Eh    ::
         :::::::::::::::::::::::::::::::::::::::::::::::::::::

      ----------------------------------------------------------- 
     |                   =====================                   |
     |                        A N C O P T                        |
     |                   =====================                   |
     |               Approximate Normal Coordinate               |
     |                Rational Function Optimizer                |
      ----------------------------------------------------------- 

          ...................................................
          :                      SETUP                      :
          :.................................................:
          :   optimization level            normal          :
          :   max. optcycles                   327          :
          :   ANC micro-cycles                  20          :
          :   degrees of freedom               321          :
          :.................................................:
          :   RF solver                   davidson          :
          :   input Hessian                  false          :
          :   write xtbopt.log                true          :
          :   linear?                        false          :
          :   energy convergence         0.5000000E-05 Eh   :
          :   grad. convergence          0.1000000E-02 Eh/α :
          :   maximium RF displ.         2.0000000          :
          :   Hlow (freq-cutoff)         0.5000000E-02      :
          :   Hmax (freq-cutoff)         5.0000000          :
          :   S6 in model hess.         20.0000000          :
          ...................................................

generating ANC from model Hessian ...
Using Lindh-Hessian (1995)
 Shifting diagonal of input Hessian by   5.026693463120926E-003
 Lowest  eigenvalues of input Hessian
    0.005000    0.005014   -0.000000   -0.000000   -0.000000   -0.000000
   -0.000000    0.000000    0.005044    0.005058    0.005083    0.005121
    0.005223    0.005280    0.005321    0.005465    0.005486    0.005511
 Highest eigenvalues
    2.507849    2.509158    2.569446    2.570183    2.572644    2.574721
 

........................................................................
.............................. CYCLE    1 ..............................
........................................................................
   1   -204.1005755 -0.204101E+03  0.207E-04    0.69       0.0  T
   2   -204.1005755  0.353225E-09  0.178E-04    0.69      53.9  T
   3   -204.1005755 -0.237881E-08  0.997E-05    0.68      96.1  T
     SCC iter.                  ...        0 min,  0.045 sec
     gradient                   ...        0 min,  0.025 sec
 * total energy  :  -200.4947552 Eh     change        0.5143326E-06 Eh
   gradient norm :     0.1994567 Eh/α   predicted     0.0000000E+00 (-100.00%)
   displ. norm   :     0.4134711 α      lambda       -0.4308960E-01
   maximum displ.:     0.1020596 α      in ANC's #99, #93, #152, ...

........................................................................
.............................. CYCLE    2 ..............................
........................................................................
   1   -204.2833811 -0.204283E+03  0.221E-01    0.65       0.0  T
   2   -204.2836646 -0.283485E-03  0.134E-01    0.68       1.0  T
   3   -204.2836237  0.409349E-04  0.842E-02    0.68       1.0  T
   4   -204.2840760 -0.452334E-03  0.271E-02    0.68       1.0  T
   5   -204.2841094 -0.333636E-04  0.171E-02    0.68       1.0  T
   6   -204.2841316 -0.222169E-04  0.727E-03    0.68       1.3  T
   7   -204.2841367 -0.516784E-05  0.298E-03    0.68       3.2  T
   8   -204.2841376 -0.826542E-06  0.113E-03    0.68       8.5  T
     SCC iter.                  ...        0 min,  0.116 sec
     gradient                   ...        0 min,  0.024 sec
 * total energy  :  -200.5228786 Eh     change       -0.2812339E-01 Eh
   gradient norm :     0.0777837 Eh/α   predicted    -0.2522828E-01 ( -10.29%)
   displ. norm   :     0.4908408 α      lambda       -0.1492096E-01
   maximum displ.:     0.1150140 α      in ANC's #46, #64, #39, ...

........................................................................
.............................. CYCLE    3 ..............................
........................................................................
   1   -204.3224295 -0.204322E+03  0.209E-01    0.61       0.0  T
   2   -204.3225674 -0.137811E-03  0.125E-01    0.69       1.0  T
   3   -204.3218492  0.718172E-03  0.100E-01    0.64       1.0  T
   4   -204.3227256 -0.876391E-03  0.481E-02    0.69       1.0  T
   5   -204.3229998 -0.274256E-03  0.169E-02    0.67       1.0  T
   6   -204.3230217 -0.218679E-04  0.655E-03    0.68       1.5  T
   7   -204.3230242 -0.255474E-05  0.270E-03    0.68       3.5  T
   8   -204.3230248 -0.535981E-06  0.129E-03    0.68       7.4  T
     SCC iter.                  ...        0 min,  0.111 sec
     gradient                   ...        0 min,  0.024 sec
 * total energy  :  -200.5330038 Eh     change       -0.1012522E-01 Eh
   gradient norm :     0.0302572 Eh/α   predicted    -0.9257982E-02 (  -8.57%)
   displ. norm   :     0.6010411 α      lambda       -0.7173889E-02
   maximum displ.:     0.2076494 α      in ANC's #39, #34, #46, ...

........................................................................
.............................. CYCLE    4 ..............................
........................................................................
   1   -204.3308037 -0.204331E+03  0.221E-01    0.63       0.0  T
   2   -204.3306167  0.186980E-03  0.137E-01    0.76       1.0  T
   3   -204.3278162  0.280051E-02  0.150E-01    0.64       1.0  T
   4   -204.3311991 -0.338289E-02  0.429E-02    0.72       1.0  T
   5   -204.3313860 -0.186923E-03  0.142E-02    0.72       1.0  T
   6   -204.3313995 -0.135300E-04  0.719E-03    0.72       1.3  T
   7   -204.3314028 -0.324040E-05  0.299E-03    0.72       3.2  T
   8   -204.3314036 -0.797866E-06  0.128E-03    0.72       7.5  T
     SCC iter.                  ...        0 min,  0.112 sec
     gradient                   ...        0 min,  0.024 sec
 * total energy  :  -200.5380318 Eh     change       -0.5028079E-02 Eh
   gradient norm :     0.0262318 Eh/α   predicted    -0.4882751E-02 (  -2.89%)
   displ. norm   :     0.7177678 α      lambda       -0.6903270E-02
   maximum displ.:     0.1932361 α      in ANC's #40, #21, #13, ...

........................................................................
.............................. CYCLE    5 ..............................
........................................................................
   1   -204.3283215 -0.204328E+03  0.284E-01    0.68       0.0  T
   2   -204.3270732  0.124823E-02  0.193E-01    0.86       1.0  T
   3   -204.3217041  0.536911E-02  0.218E-01    0.69       1.0  T
   4   -204.3292274 -0.752322E-02  0.508E-02    0.78       1.0  T
   5   -204.3294925 -0.265105E-03  0.195E-02    0.79       1.0  T
   6   -204.3295231 -0.306695E-04  0.950E-03    0.79       1.0  T
   7   -204.3295282 -0.505964E-05  0.415E-03    0.78       2.3  T
   8   -204.3295298 -0.161575E-05  0.165E-03    0.79       5.8  T
     SCC iter.                  ...        0 min,  0.110 sec
     gradient                   ...        0 min,  0.025 sec
 * total energy  :  -200.5423969 Eh     change       -0.4365006E-02 Eh
   gradient norm :     0.0310815 Eh/α   predicted    -0.5229891E-02 (  19.81%)
   displ. norm   :     0.5939894 α      lambda       -0.4480693E-02
   maximum displ.:     0.1740032 α      in ANC's #14, #13, #34, ...

........................................................................
.............................. CYCLE    6 ..............................
........................................................................
   1   -204.3272794 -0.204327E+03  0.202E-01    0.77       0.0  T
   2   -204.3263376  0.941845E-03  0.145E-01    0.86       1.0  T
   3   -204.3239839  0.235366E-02  0.155E-01    0.76       1.0  T
   4   -204.3277736 -0.378964E-02  0.354E-02    0.82       1.0  T
   5   -204.3279109 -0.137290E-03  0.131E-02    0.82       1.0  T
   6   -204.3279229 -0.119795E-04  0.672E-03    0.82       1.4  T
   7   -204.3279256 -0.273174E-05  0.294E-03    0.82       3.3  T
   8   -204.3279265 -0.877320E-06  0.111E-03    0.82       8.7  T
     SCC iter.                  ...        0 min,  0.107 sec
     gradient                   ...        0 min,  0.024 sec
 * total energy  :  -200.5456897 Eh     change       -0.3292873E-02 Eh
   gradient norm :     0.0261078 Eh/α   predicted    -0.3030803E-02 (  -7.96%)
   displ. norm   :     0.6616719 α      lambda       -0.4467372E-02
   maximum displ.:     0.2442016 α      in ANC's #13, #39, #14, ...

........................................................................
.............................. CYCLE    7 ..............................
........................................................................
   1   -204.3323314 -0.204332E+03  0.238E-01    0.81       0.0  T
   2   -204.3316650  0.666432E-03  0.154E-01    0.88       1.0  T
   3   -204.3259914  0.567356E-02  0.195E-01    0.78       1.0  T
   4   -204.3326599 -0.666853E-02  0.400E-02    0.85       1.0  T
   5   -204.3328611 -0.201144E-03  0.129E-02    0.84       1.0  T
   6   -204.3328700 -0.891079E-05  0.719E-03    0.84       1.3  T
   7   -204.3328735 -0.347526E-05  0.344E-03    0.84       2.8  T
   8   -204.3328748 -0.135575E-05  0.122E-03    0.84       7.9  T
     SCC iter.                  ...        0 min,  0.108 sec
     gradient                   ...        0 min,  0.024 sec
 * total energy  :  -200.5480954 Eh     change       -0.2405645E-02 Eh
   gradient norm :     0.0247650 Eh/α   predicted    -0.3211623E-02 (  33.50%)
   displ. norm   :     0.5490281 α      lambda       -0.3160772E-02
   maximum displ.:     0.2331871 α      in ANC's #14, #13, #7, ...

........................................................................
.............................. CYCLE    8 ..............................
........................................................................
   1   -204.3382408 -0.204338E+03  0.191E-01    0.82       0.0  T
   2   -204.3378694  0.371366E-03  0.120E-01    0.87       1.0  T
   3   -204.3332646  0.460486E-02  0.168E-01    0.80       1.0  T
   4   -204.3384425 -0.517790E-02  0.239E-02    0.85       1.0  T
   5   -204.3385011 -0.586028E-04  0.976E-03    0.85       1.0  T
   6   -204.3385065 -0.542396E-05  0.551E-03    0.85       1.7  T
   7   -204.3385091 -0.255979E-05  0.230E-03    0.85       4.2  T
     SCC iter.                  ...        0 min,  0.096 sec
     gradient                   ...        0 min,  0.024 sec
 * total energy  :  -200.5503260 Eh     change       -0.2230663E-02 Eh
   gradient norm :     0.0188919 Eh/α   predicted    -0.2056766E-02 (  -7.80%)
   displ. norm   :     0.5938664 α      lambda       -0.2588580E-02
   maximum displ.:     0.2635593 α      in ANC's #13, #14, #7, ...

........................................................................
.............................. CYCLE    9 ..............................
........................................................................
   1   -204.3349534 -0.204335E+03  0.212E-01    0.83       0.0  T
   2   -204.3346520  0.301422E-03  0.128E-01    0.86       1.0  T
   3   -204.3290847  0.556733E-02  0.180E-01    0.80       1.0  T
   4   -204.3350869 -0.600225E-02  0.276E-02    0.85       1.0  T
   5   -204.3351866 -0.996889E-04  0.111E-02    0.84       1.0  T
   6   -204.3351965 -0.989621E-05  0.566E-03    0.84       1.7  T
   7   -204.3351989 -0.236772E-05  0.227E-03    0.84       4.2  T
   8   -204.3351994 -0.579487E-06  0.935E-04    0.84      10.2  T
     SCC iter.                  ...        0 min,  0.113 sec
     gradient                   ...        0 min,  0.024 sec
 * total energy  :  -200.5517909 Eh     change       -0.1464881E-02 Eh
   gradient norm :     0.0242024 Eh/α   predicted    -0.1750764E-02 (  19.52%)
   displ. norm   :     0.5619444 α      lambda       -0.2367215E-02
   maximum displ.:     0.2575051 α      in ANC's #13, #14, #7, ...

........................................................................
.............................. CYCLE   10 ..............................
........................................................................
   1   -204.3449166 -0.204345E+03  0.169E-01    0.83       0.0  T
   2   -204.3447705  0.146141E-03  0.997E-02    0.85       1.0  T
   3   -204.3416869  0.308358E-02  0.135E-01    0.81       1.0  T
   4   -204.3449724 -0.328553E-02  0.282E-02    0.84       1.0  T
   5   -204.3450731 -0.100693E-03  0.104E-02    0.84       1.0  T
   6   -204.3450822 -0.903295E-05  0.564E-03    0.84       1.7  T
   7   -204.3450850 -0.280882E-05  0.200E-03    0.84       4.8  T
   8   -204.3450854 -0.409736E-06  0.806E-04    0.84      11.9  T
     SCC iter.                  ...        0 min,  0.107 sec
     gradient                   ...        0 min,  0.025 sec
 * total energy  :  -200.5533493 Eh     change       -0.1558381E-02 Eh
   gradient norm :     0.0170538 Eh/α   predicted    -0.1557372E-02 (  -0.06%)
   displ. norm   :     0.5665871 α      lambda       -0.1705544E-02
   maximum displ.:     0.2762248 α      in ANC's #13, #14, #7, ...

........................................................................
.............................. CYCLE   11 ..............................
........................................................................
   1   -204.3519546 -0.204352E+03  0.170E-01    0.83       0.0  T
   2   -204.3519588 -0.419301E-05  0.941E-02    0.84       1.0  T
   3   -204.3508567  0.110211E-02  0.805E-02    0.82       1.0  T
   4   -204.3519628 -0.110612E-02  0.218E-02    0.84       1.0  T
   5   -204.3520276 -0.647860E-04  0.896E-03    0.84       1.1  T
   6   -204.3520341 -0.646349E-05  0.501E-03    0.84       1.9  T
   7   -204.3520368 -0.271111E-05  0.165E-03    0.84       5.8  T
   8   -204.3520371 -0.289643E-06  0.692E-04    0.84      13.8  T
     SCC iter.                  ...        0 min,  0.111 sec
     gradient                   ...        0 min,  0.024 sec
 * total energy  :  -200.5544224 Eh     change       -0.1073126E-02 Eh
   gradient norm :     0.0210282 Eh/α   predicted    -0.1126535E-02 (   4.98%)
   displ. norm   :     0.6083930 α      lambda       -0.1734085E-02
   maximum displ.:     0.2885872 α      in ANC's #13, #14, #7, ...

........................................................................
.............................. CYCLE   12 ..............................
........................................................................
   1   -204.3430453 -0.204343E+03  0.177E-01    0.83       0.0  T
   2   -204.3430068  0.385134E-04  0.992E-02    0.84       1.0  T
   3   -204.3411655  0.184133E-02  0.106E-01    0.82       1.0  T
   4   -204.3430677 -0.190220E-02  0.232E-02    0.84       1.0  T
   5   -204.3431385 -0.708322E-04  0.108E-02    0.84       1.0  T
   6   -204.3431505 -0.119615E-04  0.548E-03    0.84       1.7  T
   7   -204.3431538 -0.335763E-05  0.160E-03    0.84       6.0  T
   8   -204.3431540 -0.197551E-06  0.801E-04    0.84      12.0  T
     SCC iter.                  ...        0 min,  0.106 sec
     gradient                   ...        0 min,  0.024 sec
 * total energy  :  -200.5555286 Eh     change       -0.1106173E-02 Eh
   gradient norm :     0.0241337 Eh/α   predicted    -0.1187972E-02 (   7.39%)
   displ. norm   :     0.5796737 α      lambda       -0.1683428E-02
   maximum displ.:     0.2573254 α      in ANC's #13, #14, #7, ...

........................................................................
.............................. CYCLE   13 ..............................
........................................................................
   1   -204.3413548 -0.204341E+03  0.173E-01    0.83       0.0  T
   2   -204.3412964  0.584769E-04  0.973E-02    0.84       1.0  T
   3   -204.3391301  0.216627E-02  0.112E-01    0.81       1.0  T
   4   -204.3413714 -0.224130E-02  0.251E-02    0.83       1.0  T
   5   -204.3414624 -0.910239E-04  0.980E-03    0.83       1.0  T
   6   -204.3414703 -0.792233E-05  0.495E-03    0.83       1.9  T
   7   -204.3414725 -0.212498E-05  0.192E-03    0.83       5.0  T
   8   -204.3414729 -0.391686E-06  0.856E-04    0.83      11.2  T
     SCC iter.                  ...        0 min,  0.106 sec
     gradient                   ...        0 min,  0.024 sec
 * total energy  :  -200.5563664 Eh     change       -0.8378235E-03 Eh
   gradient norm :     0.0254801 Eh/α   predicted    -0.1124555E-02 (  34.22%)
   displ. norm   :     0.5209874 α      lambda       -0.1553661E-02
   maximum displ.:     0.2369506 α      in ANC's #13, #7, #14, ...

........................................................................
.............................. CYCLE   14 ..............................
........................................................................
   1   -204.3353914 -0.204335E+03  0.164E-01    0.82       0.0  T
   2   -204.3353266  0.648788E-04  0.932E-02    0.83       1.0  T
   3   -204.3329010  0.242560E-02  0.115E-01    0.80       1.0  T
   4   -204.3354123 -0.251131E-02  0.227E-02    0.83       1.0  T
   5   -204.3354845 -0.722463E-04  0.801E-03    0.82       1.2  T
   6   -204.3354886 -0.403670E-05  0.497E-03    0.82       1.9  T
   7   -204.3354912 -0.260332E-05  0.158E-03    0.82       6.1  T
     SCC iter.                  ...        0 min,  0.094 sec
     gradient                   ...        0 min,  0.024 sec
 * total energy  :  -200.5571921 Eh     change       -0.8256432E-03 Eh
   gradient norm :     0.0248853 Eh/α   predicted    -0.9876910E-03 (  19.63%)
   displ. norm   :     0.4954422 α      lambda       -0.1396648E-02
   maximum displ.:     0.2170892 α      in ANC's #13, #7, #9, ...

........................................................................
.............................. CYCLE   15 ..............................
........................................................................
   1   -204.3517242 -0.204352E+03  0.148E-01    0.82       0.0  T
   2   -204.3517556 -0.314747E-04  0.815E-02    0.82       1.0  T
   3   -204.3516738  0.818495E-04  0.306E-02    0.82       1.0  T
   4   -204.3517684 -0.946270E-04  0.816E-03    0.82       1.2  T
   5   -204.3517673  0.107803E-05  0.662E-03    0.82       1.4  T
   6   -204.3517720 -0.466309E-05  0.314E-03    0.82       3.0  T
   7   -204.3517733 -0.134105E-05  0.146E-03    0.82       6.6  T
     SCC iter.                  ...        0 min,  0.094 sec
     gradient                   ...        0 min,  0.024 sec
 * total energy  :  -200.5576586 Eh     change       -0.4665462E-03 Eh
   gradient norm :     0.0303817 Eh/α   predicted    -0.8697397E-03 (  86.42%)
   displ. norm   :     0.4440584 α      lambda       -0.1466022E-02
   maximum displ.:     0.1973918 α      in ANC's #7, #13, #14, ...

........................................................................
.............................. CYCLE   16 ..............................
........................................................................
   1   -204.3457574 -0.204346E+03  0.162E-01    0.82       0.0  T
   2   -204.3457905 -0.330716E-04  0.898E-02    0.82       1.0  T
   3   -204.3455385  0.252034E-03  0.394E-02    0.83       1.0  T
   4   -204.3457864 -0.247912E-03  0.129E-02    0.82       1.0  T
   5   -204.3458067 -0.202849E-04  0.710E-03    0.82       1.3  T
   6   -204.3458123 -0.561649E-05  0.294E-03    0.82       3.3  T
   7   -204.3458133 -0.102580E-05  0.123E-03    0.82       7.8  T
     SCC iter.                  ...        0 min,  0.094 sec
     gradient                   ...        0 min,  0.024 sec
 * total energy  :  -200.5582460 Eh     change       -0.5873840E-03 Eh
   gradient norm :     0.0263405 Eh/α   predicted    -0.8775555E-03 (  49.40%)
   displ. norm   :     0.4108843 α      lambda       -0.1359244E-02
   maximum displ.:     0.1782127 α      in ANC's #7, #13, #9, ...

........................................................................
.............................. CYCLE   17 ..............................
........................................................................
   1   -204.3318366 -0.204332E+03  0.158E-01    0.82       0.0  T
   2   -204.3318564 -0.197230E-04  0.883E-02    0.82       1.0  T
   3   -204.3312251  0.631280E-03  0.662E-02    0.81       1.0  T
   4   -204.3318813 -0.656190E-03  0.146E-02    0.82       1.0  T
   5   -204.3319074 -0.261158E-04  0.755E-03    0.82       1.3  T
   6   -204.3319140 -0.659507E-05  0.399E-03    0.82       2.4  T
   7   -204.3319160 -0.203510E-05  0.155E-03    0.82       6.2  T
   8   -204.3319163 -0.231261E-06  0.699E-04    0.82      13.7  T
     SCC iter.                  ...        0 min,  0.107 sec
     gradient                   ...        0 min,  0.024 sec
 * total energy  :  -200.5586147 Eh     change       -0.3687045E-03 Eh
   gradient norm :     0.0298480 Eh/α   predicted    -0.7943609E-03 ( 115.45%)
   displ. norm   :     0.3565039 α      lambda       -0.1372756E-02
   maximum displ.:     0.1524879 α      in ANC's #7, #13, #9, ...

........................................................................
.............................. CYCLE   18 ..............................
........................................................................
   1   -204.3442213 -0.204344E+03  0.136E-01    0.81       0.0  T
   2   -204.3442216 -0.300880E-06  0.765E-02    0.82       1.0  T
   3   -204.3433854  0.836236E-03  0.694E-02    0.80       1.0  T
   4   -204.3442014 -0.816033E-03  0.211E-02    0.82       1.0  T
   5   -204.3442768 -0.753896E-04  0.441E-03    0.82       2.2  T
   6   -204.3442778 -0.970548E-06  0.271E-03    0.82       3.5  T
   7   -204.3442783 -0.577530E-06  0.114E-03    0.82       8.4  T
     SCC iter.                  ...        0 min,  0.094 sec
     gradient                   ...        0 min,  0.024 sec
 * total energy  :  -200.5590390 Eh     change       -0.4242763E-03 Eh
   gradient norm :     0.0266350 Eh/α   predicted    -0.7736154E-03 (  82.34%)
   displ. norm   :     0.3682503 α      lambda       -0.1246164E-02
   maximum displ.:     0.1664160 α      in ANC's #7, #13, #9, ...

........................................................................
.............................. CYCLE   19 ..............................
........................................................................
   1   -204.3483782 -0.204348E+03  0.148E-01    0.81       0.0  T
   2   -204.3484087 -0.305131E-04  0.825E-02    0.81       1.0  T
   3   -204.3482766  0.132088E-03  0.336E-02    0.81       1.0  T
   4   -204.3484167 -0.140061E-03  0.907E-03    0.81       1.1  T
   5   -204.3484226 -0.597468E-05  0.651E-03    0.81       1.5  T
   6   -204.3484289 -0.621527E-05  0.240E-03    0.81       4.0  T
   7   -204.3484295 -0.634842E-06  0.104E-03    0.81       9.2  T
   8   -204.3484296 -0.107423E-06  0.458E-04    0.81      20.9  T
     SCC iter.                  ...        0 min,  0.108 sec
     gradient                   ...        0 min,  0.024 sec
 * total energy  :  -200.5593438 Eh     change       -0.3048209E-03 Eh
   gradient norm :     0.0291894 Eh/α   predicted    -0.7075783E-03 ( 132.13%)
   displ. norm   :     0.3628100 α      lambda       -0.1236835E-02
   maximum displ.:     0.1639929 α      in ANC's #7, #13, #9, ...

........................................................................
.............................. CYCLE   20 ..............................
........................................................................
   1   -204.3474655 -0.204347E+03  0.134E-01    0.82       0.0  T
   2   -204.3474613  0.412475E-05  0.763E-02    0.81       1.0  T
   3   -204.3464633  0.998041E-03  0.768E-02    0.84       1.0  T
   4   -204.3474793 -0.101604E-02  0.162E-02    0.82       1.0  T
   5   -204.3475192 -0.399004E-04  0.431E-03    0.82       2.2  T
   6   -204.3475205 -0.121924E-05  0.212E-03    0.82       4.5  T
   7   -204.3475209 -0.419778E-06  0.895E-04    0.82      10.7  T
     SCC iter.                  ...        0 min,  0.096 sec
     gradient                   ...        0 min,  0.024 sec
 * total energy  :  -200.5597914 Eh     change       -0.4476495E-03 Eh
   gradient norm :     0.0193016 Eh/α   predicted    -0.6998266E-03 (  56.33%)
   displ. norm   :     0.3752572 α      lambda       -0.8937602E-03
   maximum displ.:     0.1887561 α      in ANC's #7, #13, #9, ...
 * RMSD in coord.:     0.7772036 α      energy gain  -0.6503577E-01 Eh

generating ANC from model Hessian ...
Using Lindh-Hessian (1995)
 Shifting diagonal of input Hessian by   5.057029536834820E-003
 Lowest  eigenvalues of input Hessian
    0.005000    0.005018   -0.000000   -0.000000   -0.000000    0.000000
    0.000000    0.000000    0.005067    0.005079    0.005115    0.005145
    0.005161    0.005240    0.005296    0.005339    0.005462    0.005507
 Highest eigenvalues
    2.595439    2.603343    2.633962    2.639993    2.640256    2.645534
 

........................................................................
.............................. CYCLE   21 ..............................
........................................................................
   1   -204.3367510 -0.204337E+03  0.113E-01    0.81       0.0  T
   2   -204.3367642 -0.132719E-04  0.634E-02    0.82       1.0  T
   3   -204.3365849  0.179305E-03  0.383E-02    0.81       1.0  T
   4   -204.3367787 -0.193818E-03  0.819E-03    0.82       1.2  T
   5   -204.3367851 -0.631794E-05  0.451E-03    0.82       2.1  T
   6   -204.3367861 -0.107251E-05  0.272E-03    0.82       3.5  T
   7   -204.3367870 -0.858941E-06  0.142E-03    0.82       6.8  T
   8   -204.3367873 -0.312406E-06  0.536E-04    0.82      17.9  T
   9   -204.3367873 -0.204093E-07  0.286E-04    0.82      33.5  T
     SCC iter.                  ...        0 min,  0.125 sec
     gradient                   ...        0 min,  0.025 sec
 * total energy  :  -200.5601569 Eh     change       -0.3654255E-03 Eh
   gradient norm :     0.0217190 Eh/α   predicted     0.0000000E+00 (-100.00%)
   displ. norm   :     0.2308779 α      lambda       -0.7664272E-03
   maximum displ.:     0.0980681 α      in ANC's #21, #7, #10, ...

........................................................................
.............................. CYCLE   22 ..............................
........................................................................
   1   -204.3444971 -0.204344E+03  0.137E-01    0.82       0.0  T
   2   -204.3445204 -0.232879E-04  0.758E-02    0.82       1.0  T
   3   -204.3444700  0.504216E-04  0.219E-02    0.82       1.0  T
   4   -204.3445306 -0.606216E-04  0.519E-03    0.82       1.8  T
   5   -204.3445320 -0.138459E-05  0.398E-03    0.82       2.4  T
   6   -204.3445340 -0.201391E-05  0.194E-03    0.82       4.9  T
     SCC iter.                  ...        0 min,  0.083 sec
     gradient                   ...        0 min,  0.024 sec
 * total energy  :  -200.5601998 Eh     change       -0.4295175E-04 Eh
   gradient norm :     0.0113450 Eh/α   predicted    -0.4036415E-03 ( 839.76%)
   displ. norm   :     0.2012500 α      lambda       -0.1074447E-02
   maximum displ.:     0.0814683 α      in ANC's #10, #16, #8, ...

........................................................................
.............................. CYCLE   23 ..............................
........................................................................
   1   -204.3574514 -0.204357E+03  0.138E-01    0.82       0.0  T
   2   -204.3574743 -0.228965E-04  0.761E-02    0.82       1.0  T
   3   -204.3573860  0.882804E-04  0.251E-02    0.82       1.0  T
   4   -204.3574783 -0.922546E-04  0.799E-03    0.82       1.2  T
   5   -204.3574875 -0.922440E-05  0.362E-03    0.82       2.6  T
   6   -204.3574890 -0.142869E-05  0.180E-03    0.82       5.3  T
   7   -204.3574891 -0.185318E-06  0.936E-04    0.82      10.2  T
     SCC iter.                  ...        0 min,  0.098 sec
     gradient                   ...        0 min,  0.024 sec
 * total energy  :  -200.5603420 Eh     change       -0.1421278E-03 Eh
   gradient norm :     0.0262713 Eh/α   predicted    -0.5589847E-03 ( 293.30%)
   displ. norm   :     0.1671292 α      lambda       -0.9752493E-03
   maximum displ.:     0.0583945 α      in ANC's #7, #52, #53, ...

........................................................................
.............................. CYCLE   24 ..............................
........................................................................
   1   -204.3518848 -0.204352E+03  0.129E-01    0.81       0.0  T
   2   -204.3519005 -0.156960E-04  0.716E-02    0.82       1.0  T
   3   -204.3517327  0.167760E-03  0.350E-02    0.81       1.0  T
   4   -204.3519009 -0.168184E-03  0.975E-03    0.82       1.0  T
   5   -204.3519180 -0.170981E-04  0.262E-03    0.81       3.7  T
   6   -204.3519183 -0.243923E-06  0.150E-03    0.82       6.4  T
   7   -204.3519185 -0.206040E-06  0.701E-04    0.81      13.7  T
     SCC iter.                  ...        0 min,  0.098 sec
     gradient                   ...        0 min,  0.024 sec
 * total energy  :  -200.5604953 Eh     change       -0.1533633E-03 Eh
   gradient norm :     0.0128957 Eh/α   predicted    -0.5012459E-03 ( 226.84%)
   displ. norm   :     0.1400393 α      lambda       -0.8182237E-03
   maximum displ.:     0.0472870 α      in ANC's #10, #21, #8, ...

........................................................................
.............................. CYCLE   25 ..............................
........................................................................
   1   -204.3409142 -0.204341E+03  0.105E-01    0.82       0.0  T
   2   -204.3409276 -0.134017E-04  0.583E-02    0.82       1.0  T
   3   -204.3408806  0.470330E-04  0.196E-02    0.81       1.0  T
   4   -204.3409337 -0.530623E-04  0.457E-03    0.82       2.1  T
   5   -204.3409354 -0.171290E-05  0.297E-03    0.82       3.2  T
   6   -204.3409363 -0.975007E-06  0.164E-03    0.82       5.8  T
     SCC iter.                  ...        0 min,  0.089 sec
     gradient                   ...        0 min,  0.024 sec
 * total energy  :  -200.5607003 Eh     change       -0.2049750E-03 Eh
   gradient norm :     0.0161889 Eh/α   predicted    -0.4171351E-03 ( 103.51%)
   displ. norm   :     0.2147621 α      lambda       -0.7658094E-03
   maximum displ.:     0.0810166 α      in ANC's #7, #21, #10, ...

........................................................................
.............................. CYCLE   26 ..............................
........................................................................
   1   -204.3387760 -0.204339E+03  0.149E-01    0.82       0.0  T
   2   -204.3387992 -0.231966E-04  0.823E-02    0.82       1.0  T
   3   -204.3386091  0.190043E-03  0.362E-02    0.82       1.0  T
   4   -204.3388042 -0.195036E-03  0.967E-03    0.81       1.0  T
   5   -204.3388202 -0.159939E-04  0.253E-03    0.82       3.8  T
   6   -204.3388202 -0.991918E-09  0.190E-03    0.82       5.0  T
   7   -204.3388205 -0.356763E-06  0.742E-04    0.82      12.9  T
     SCC iter.                  ...        0 min,  0.099 sec
     gradient                   ...        0 min,  0.024 sec
 * total energy  :  -200.5605250 Eh     change        0.1753351E-03 Eh
   gradient norm :     0.0188059 Eh/α   predicted    -0.4005714E-03 (-328.46%)
   displ. norm   :     0.1549620 α      lambda       -0.1106878E-02
   maximum displ.:     0.0621019 α      in ANC's #10, #11, #52, ...

........................................................................
.............................. CYCLE   27 ..............................
........................................................................
   1   -204.3528951 -0.204353E+03  0.981E-02    0.82       0.0  T
   2   -204.3529048 -0.970558E-05  0.545E-02    0.82       1.0  T
   3   -204.3527578  0.147003E-03  0.293E-02    0.81       1.0  T
   4   -204.3529077 -0.149931E-03  0.728E-03    0.82       1.3  T
   5   -204.3529154 -0.769580E-05  0.287E-03    0.82       3.3  T
   6   -204.3529162 -0.770422E-06  0.150E-03    0.82       6.4  T
   7   -204.3529164 -0.188260E-06  0.713E-04    0.82      13.4  T
     SCC iter.                  ...        0 min,  0.099 sec
     gradient                   ...        0 min,  0.024 sec
 * total energy  :  -200.5610387 Eh     change       -0.5137491E-03 Eh
   gradient norm :     0.0138674 Eh/α   predicted    -0.5667305E-03 (  10.31%)
   displ. norm   :     0.1871089 α      lambda       -0.3535859E-03
   maximum displ.:     0.0850669 α      in ANC's #10, #8, #7, ...

........................................................................
.............................. CYCLE   28 ..............................
........................................................................
   1   -204.3469508 -0.204347E+03  0.783E-02    0.82       0.0  T
   2   -204.3469580 -0.714820E-05  0.433E-02    0.82       1.0  T
   3   -204.3469096  0.483421E-04  0.186E-02    0.81       1.0  T
   4   -204.3469599 -0.502289E-04  0.489E-03    0.82       2.0  T
   5   -204.3469635 -0.361614E-05  0.219E-03    0.82       4.4  T
   6   -204.3469638 -0.363057E-06  0.128E-03    0.82       7.5  T
   7   -204.3469640 -0.176966E-06  0.495E-04    0.82      19.3  T
     SCC iter.                  ...        0 min,  0.098 sec
     gradient                   ...        0 min,  0.024 sec
 * total energy  :  -200.5611346 Eh     change       -0.9585549E-04 Eh
   gradient norm :     0.0064795 Eh/α   predicted    -0.1829825E-03 (  90.89%)
   displ. norm   :     0.2935364 α      lambda       -0.5074625E-03
   maximum displ.:     0.1419761 α      in ANC's #10, #11, #7, ...

........................................................................
.............................. CYCLE   29 ..............................
........................................................................
   1   -204.3388273 -0.204339E+03  0.905E-02    0.82       0.0  T
   2   -204.3388368 -0.951339E-05  0.502E-02    0.82       1.0  T
   3   -204.3388176  0.192021E-04  0.126E-02    0.82       1.0  T
   4   -204.3388389 -0.213339E-04  0.484E-03    0.82       2.0  T
   5   -204.3388399 -0.997758E-06  0.373E-03    0.82       2.6  T
   6   -204.3388417 -0.178755E-05  0.163E-03    0.82       5.9  T
   7   -204.3388420 -0.301674E-06  0.673E-04    0.82      14.2  T
     SCC iter.                  ...        0 min,  0.105 sec
     gradient                   ...        0 min,  0.024 sec
 * total energy  :  -200.5612530 Eh     change       -0.1184033E-03 Eh
   gradient norm :     0.0181222 Eh/α   predicted    -0.2755962E-03 ( 132.76%)
   displ. norm   :     0.3098242 α      lambda       -0.6957398E-03
   maximum displ.:     0.1397275 α      in ANC's #10, #8, #7, ...

........................................................................
.............................. CYCLE   30 ..............................
........................................................................
   1   -204.3416307 -0.204342E+03  0.101E-01    0.81       0.0  T
   2   -204.3416419 -0.112088E-04  0.557E-02    0.82       1.0  T
   3   -204.3415942  0.476434E-04  0.199E-02    0.82       1.0  T
   4   -204.3416442 -0.499335E-04  0.609E-03    0.81       1.6  T
   5   -204.3416477 -0.355822E-05  0.403E-03    0.82       2.4  T
   6   -204.3416498 -0.209983E-05  0.147E-03    0.82       6.5  T
   7   -204.3416500 -0.168263E-06  0.690E-04    0.82      13.9  T
     SCC iter.                  ...        0 min,  0.100 sec
     gradient                   ...        0 min,  0.024 sec
 * total energy  :  -200.5615507 Eh     change       -0.2977759E-03 Eh
   gradient norm :     0.0126505 Eh/α   predicted    -0.3812626E-03 (  28.04%)
   displ. norm   :     0.3482437 α      lambda       -0.5784496E-03
   maximum displ.:     0.1687778 α      in ANC's #10, #8, #7, ...

........................................................................
.............................. CYCLE   31 ..............................
........................................................................
   1   -204.3493831 -0.204349E+03  0.884E-02    0.81       0.0  T
   2   -204.3493917 -0.865643E-05  0.491E-02    0.81       1.0  T
   3   -204.3493512  0.405293E-04  0.188E-02    0.81       1.0  T
   4   -204.3493954 -0.441660E-04  0.498E-03    0.81       1.9  T
   5   -204.3493960 -0.602776E-06  0.387E-03    0.82       2.5  T
   6   -204.3493976 -0.163757E-05  0.196E-03    0.81       4.9  T
   7   -204.3493981 -0.475217E-06  0.892E-04    0.81      10.7  T
     SCC iter.                  ...        0 min,  0.097 sec
     gradient                   ...        0 min,  0.024 sec
 * total energy  :  -200.5618842 Eh     change       -0.3334354E-03 Eh
   gradient norm :     0.0091779 Eh/α   predicted    -0.3243032E-03 (  -2.74%)
   displ. norm   :     0.5476315 α      lambda       -0.5002130E-03
   maximum displ.:     0.2680668 α      in ANC's #10, #7, #8, ...

........................................................................
.............................. CYCLE   32 ..............................
........................................................................
   1   -204.3471260 -0.204347E+03  0.118E-01    0.81       0.0  T
   2   -204.3471394 -0.133771E-04  0.650E-02    0.81       1.0  T
   3   -204.3470723  0.670616E-04  0.228E-02    0.81       1.0  T
   4   -204.3471398 -0.675030E-04  0.810E-03    0.81       1.2  T
   5   -204.3471428 -0.295537E-05  0.614E-03    0.82       1.6  T
   6   -204.3471481 -0.532517E-05  0.206E-03    0.81       4.6  T
   7   -204.3471485 -0.436242E-06  0.936E-04    0.81      10.2  T
   8   -204.3471486 -0.487100E-07  0.575E-04    0.81      16.7  T
     SCC iter.                  ...        0 min,  0.108 sec
     gradient                   ...        0 min,  0.024 sec
 * total energy  :  -200.5621644 Eh     change       -0.2801908E-03 Eh
   gradient norm :     0.0138566 Eh/α   predicted    -0.3251143E-03 (  16.03%)
   displ. norm   :     0.5817581 α      lambda       -0.6700100E-03
   maximum displ.:     0.2826194 α      in ANC's #10, #7, #8, ...

........................................................................
.............................. CYCLE   33 ..............................
........................................................................
   1   -204.3425870 -0.204343E+03  0.114E-01    0.81       0.0  T
   2   -204.3425990 -0.120083E-04  0.631E-02    0.81       1.0  T
   3   -204.3425425  0.564723E-04  0.220E-02    0.82       1.0  T
   4   -204.3425974 -0.548701E-04  0.849E-03    0.81       1.1  T
   5   -204.3425992 -0.181345E-05  0.703E-03    0.81       1.4  T
   6   -204.3426067 -0.749848E-05  0.175E-03    0.81       5.5  T
   7   -204.3426070 -0.293287E-06  0.804E-04    0.81      11.9  T
   8   -204.3426070 -0.145223E-07  0.532E-04    0.81      18.0  T
     SCC iter.                  ...        0 min,  0.110 sec
     gradient                   ...        0 min,  0.024 sec
 * total energy  :  -200.5624055 Eh     change       -0.2410949E-03 Eh
   gradient norm :     0.0145922 Eh/α   predicted    -0.4483907E-03 (  85.98%)
   displ. norm   :     0.4406559 α      lambda       -0.7661780E-03
   maximum displ.:     0.2115001 α      in ANC's #10, #7, #8, ...

........................................................................
.............................. CYCLE   34 ..............................
........................................................................
   1   -204.3380131 -0.204338E+03  0.120E-01    0.81       0.0  T
   2   -204.3380305 -0.174453E-04  0.662E-02    0.81       1.0  T
   3   -204.3379775  0.530112E-04  0.215E-02    0.81       1.0  T
   4   -204.3380357 -0.581542E-04  0.662E-03    0.81       1.4  T
   5   -204.3380365 -0.853536E-06  0.556E-03    0.81       1.7  T
   6   -204.3380409 -0.433222E-05  0.205E-03    0.81       4.7  T
   7   -204.3380414 -0.498691E-06  0.914E-04    0.81      10.5  T
   8   -204.3380414 -0.749482E-07  0.478E-04    0.81      20.1  T
     SCC iter.                  ...        0 min,  0.109 sec
     gradient                   ...        0 min,  0.024 sec
 * total energy  :  -200.5626915 Eh     change       -0.2860427E-03 Eh
   gradient norm :     0.0184118 Eh/α   predicted    -0.4574759E-03 (  59.93%)
   displ. norm   :     0.4141653 α      lambda       -0.5479357E-03
   maximum displ.:     0.1991174 α      in ANC's #10, #7, #8, ...

........................................................................
.............................. CYCLE   35 ..............................
........................................................................
   1   -204.3451359 -0.204345E+03  0.799E-02    0.81       0.0  T
   2   -204.3451400 -0.411935E-05  0.444E-02    0.81       1.0  T
   3   -204.3450207  0.119355E-03  0.276E-02    0.81       1.0  T
   4   -204.3451375 -0.116830E-03  0.820E-03    0.81       1.2  T
   5   -204.3451459 -0.838167E-05  0.444E-03    0.81       2.2  T
   6   -204.3451483 -0.239052E-05  0.165E-03    0.81       5.8  T
   7   -204.3451485 -0.181637E-06  0.733E-04    0.81      13.1  T
     SCC iter.                  ...        0 min,  0.098 sec
     gradient                   ...        0 min,  0.024 sec
 * total energy  :  -200.5630576 Eh     change       -0.3660626E-03 Eh
   gradient norm :     0.0054721 Eh/α   predicted    -0.3209526E-03 ( -12.32%)
   displ. norm   :     0.6359812 α      lambda       -0.4497544E-03
   maximum displ.:     0.3080824 α      in ANC's #10, #7, #8, ...

........................................................................
.............................. CYCLE   36 ..............................
........................................................................
   1   -204.3461849 -0.204346E+03  0.121E-01    0.81       0.0  T
   2   -204.3461943 -0.942979E-05  0.668E-02    0.81       1.0  T
   3   -204.3459700  0.224317E-03  0.371E-02    0.81       1.0  T
   4   -204.3461967 -0.226645E-03  0.987E-03    0.81       1.0  T
   5   -204.3462019 -0.525688E-05  0.732E-03    0.81       1.3  T
   6   -204.3462094 -0.751619E-05  0.261E-03    0.81       3.7  T
   7   -204.3462101 -0.650909E-06  0.107E-03    0.81       9.0  T
   8   -204.3462101 -0.714438E-07  0.671E-04    0.81      14.3  T
     SCC iter.                  ...        0 min,  0.110 sec
     gradient                   ...        0 min,  0.024 sec
 * total energy  :  -200.5633220 Eh     change       -0.2644598E-03 Eh
   gradient norm :     0.0094133 Eh/α   predicted    -0.3158309E-03 (  19.42%)
   displ. norm   :     0.6286196 α      lambda       -0.4661032E-03
   maximum displ.:     0.3075458 α      in ANC's #10, #7, #8, ...

........................................................................
.............................. CYCLE   37 ..............................
........................................................................
   1   -204.3466708 -0.204347E+03  0.109E-01    0.80       0.0  T
   2   -204.3466793 -0.846185E-05  0.601E-02    0.80       1.0  T
   3   -204.3465781  0.101177E-03  0.262E-02    0.80       1.0  T
   4   -204.3466831 -0.104977E-03  0.804E-03    0.80       1.2  T
   5   -204.3466810  0.211268E-05  0.728E-03    0.80       1.3  T
   6   -204.3466878 -0.680036E-05  0.329E-03    0.80       2.9  T
   7   -204.3466894 -0.162864E-05  0.103E-03    0.80       9.3  T
   8   -204.3466895 -0.934230E-07  0.580E-04    0.80      16.5  T
     SCC iter.                  ...        0 min,  0.113 sec
     gradient                   ...        0 min,  0.024 sec
 * total energy  :  -200.5636782 Eh     change       -0.3561822E-03 Eh
   gradient norm :     0.0065476 Eh/α   predicted    -0.3251762E-03 (  -8.71%)
   displ. norm   :     0.6700714 α      lambda       -0.4065942E-03
   maximum displ.:     0.3205191 α      in ANC's #10, #7, #8, ...

........................................................................
.............................. CYCLE   38 ..............................
........................................................................
   1   -204.3473850 -0.204347E+03  0.129E-01    0.80       0.0  T
   2   -204.3473970 -0.119603E-04  0.709E-02    0.80       1.0  T
   3   -204.3472085  0.188469E-03  0.352E-02    0.80       1.0  T
   4   -204.3474087 -0.200227E-03  0.882E-03    0.80       1.1  T
   5   -204.3474090 -0.237364E-06  0.690E-03    0.80       1.4  T
   6   -204.3474128 -0.389623E-05  0.393E-03    0.80       2.4  T
   7   -204.3474153 -0.247711E-05  0.133E-03    0.80       7.2  T
   8   -204.3474155 -0.206276E-06  0.641E-04    0.80      15.0  T
     SCC iter.                  ...        0 min,  0.110 sec
     gradient                   ...        0 min,  0.024 sec
 * total energy  :  -200.5639739 Eh     change       -0.2956731E-03 Eh
   gradient norm :     0.0072497 Eh/α   predicted    -0.2945874E-03 (  -0.37%)
   displ. norm   :     0.6898546 α      lambda       -0.4176724E-03
   maximum displ.:     0.3232198 α      in ANC's #10, #7, #8, ...

........................................................................
.............................. CYCLE   39 ..............................
........................................................................
   1   -204.3469303 -0.204347E+03  0.131E-01    0.79       0.0  T
   2   -204.3469434 -0.130722E-04  0.714E-02    0.79       1.0  T
   3   -204.3467700  0.173372E-03  0.339E-02    0.79       1.0  T
   4   -204.3469522 -0.182204E-03  0.980E-03    0.79       1.0  T
   5   -204.3469539 -0.170549E-05  0.721E-03    0.79       1.3  T
   6   -204.3469575 -0.360920E-05  0.432E-03    0.79       2.2  T
   7   -204.3469606 -0.305354E-05  0.120E-03    0.79       8.0  T
   8   -204.3469607 -0.126729E-06  0.710E-04    0.79      13.5  T
   9   -204.3469607 -0.347275E-07  0.370E-04    0.79      25.9  T
     SCC iter.                  ...        0 min,  0.124 sec
     gradient                   ...        0 min,  0.024 sec
 * total energy  :  -200.5642356 Eh     change       -0.2617270E-03 Eh
   gradient norm :     0.0090980 Eh/α   predicted    -0.3082150E-03 (  17.76%)
   displ. norm   :     0.6602971 α      lambda       -0.3185102E-03
   maximum displ.:     0.3151743 α      in ANC's #10, #7, #8, ...

........................................................................
.............................. CYCLE   40 ..............................
........................................................................
   1   -204.3398400 -0.204340E+03  0.122E-01    0.78       0.0  T
   2   -204.3398520 -0.120689E-04  0.666E-02    0.79       1.0  T
   3   -204.3397393  0.112775E-03  0.279E-02    0.78       1.0  T
   4   -204.3398539 -0.114628E-03  0.971E-03    0.79       1.0  T
   5   -204.3398528  0.107980E-05  0.847E-03    0.79       1.1  T
   6   -204.3398624 -0.961822E-05  0.362E-03    0.79       2.6  T
   7   -204.3398643 -0.189213E-05  0.974E-04    0.79       9.8  T
   8   -204.3398644 -0.545632E-07  0.660E-04    0.79      14.5  T
     SCC iter.                  ...        0 min,  0.111 sec
     gradient                   ...        0 min,  0.024 sec
 * total energy  :  -200.5644718 Eh     change       -0.2361512E-03 Eh
   gradient norm :     0.0064738 Eh/α   predicted    -0.2286841E-03 (  -3.16%)
   displ. norm   :     0.5861996 α      lambda       -0.3119629E-03
   maximum displ.:     0.2575679 α      in ANC's #10, #1, #4, ...

........................................................................
.............................. CYCLE   41 ..............................
........................................................................
   1   -204.3459435 -0.204346E+03  0.128E-01    0.78       0.0  T
   2   -204.3459590 -0.155174E-04  0.692E-02    0.78       1.0  T
   3   -204.3458235  0.135565E-03  0.306E-02    0.77       1.0  T
   4   -204.3459583 -0.134799E-03  0.112E-02    0.78       1.0  T
   5   -204.3459644 -0.609707E-05  0.808E-03    0.78       1.2  T
   6   -204.3459716 -0.721148E-05  0.402E-03    0.78       2.4  T
   7   -204.3459740 -0.243886E-05  0.105E-03    0.78       9.1  T
   8   -204.3459741 -0.978495E-07  0.595E-04    0.78      16.1  T
     SCC iter.                  ...        0 min,  0.111 sec
     gradient                   ...        0 min,  0.024 sec
 * total energy  :  -200.5646717 Eh     change       -0.1999467E-03 Eh
   gradient norm :     0.0077978 Eh/α   predicted    -0.2095878E-03 (   4.82%)
   displ. norm   :     0.6063993 α      lambda       -0.2456313E-03
   maximum displ.:     0.2671064 α      in ANC's #10, #1, #4, ...

........................................................................
.............................. CYCLE   42 ..............................
........................................................................
   1   -204.3476086 -0.204348E+03  0.122E-01    0.77       0.0  T
   2   -204.3476195 -0.108928E-04  0.657E-02    0.78       1.0  T
   3   -204.3474285  0.190981E-03  0.341E-02    0.77       1.0  T
   4   -204.3476118 -0.183305E-03  0.126E-02    0.78       1.0  T
   5   -204.3476267 -0.149478E-04  0.715E-03    0.77       1.3  T
   6   -204.3476318 -0.504522E-05  0.322E-03    0.77       3.0  T
   7   -204.3476332 -0.143131E-05  0.878E-04    0.77      10.9  T
   8   -204.3476333 -0.543740E-07  0.549E-04    0.77      17.5  T
     SCC iter.                  ...        0 min,  0.118 sec
     gradient                   ...        0 min,  0.025 sec
 * total energy  :  -200.5648634 Eh     change       -0.1917181E-03 Eh
   gradient norm :     0.0039933 Eh/α   predicted    -0.1679843E-03 ( -12.38%)
   displ. norm   :     0.6493083 α      lambda       -0.2460396E-03
   maximum displ.:     0.2878970 α      in ANC's #10, #1, #4, ...
 * RMSD in coord.:     0.8237810 α      energy gain  -0.5071977E-02 Eh

generating ANC from model Hessian ...
Using Lindh-Hessian (1995)
 Shifting diagonal of input Hessian by   5.060802278942060E-003
 Lowest  eigenvalues of input Hessian
    0.005000    0.005006   -0.000000   -0.000000    0.000000    0.000000
    0.000000    0.000000    0.005062    0.005081    0.005110    0.005137
    0.005148    0.005202    0.005314    0.005364    0.005442    0.005499
 Highest eigenvalues
    2.606487    2.607195    2.638306    2.639319    2.641521    2.642454
 

........................................................................
.............................. CYCLE   43 ..............................
........................................................................
   1   -204.3401821 -0.204340E+03  0.126E-01    0.76       0.0  T
   2   -204.3401935 -0.114252E-04  0.683E-02    0.77       1.0  T
   3   -204.3399942  0.199269E-03  0.349E-02    0.76       1.0  T
   4   -204.3401839 -0.189634E-03  0.132E-02    0.77       1.0  T
   5   -204.3401997 -0.158366E-04  0.780E-03    0.77       1.2  T
   6   -204.3402064 -0.669908E-05  0.284E-03    0.77       3.4  T
   7   -204.3402073 -0.910756E-06  0.861E-04    0.77      11.1  T
   8   -204.3402074 -0.504676E-07  0.547E-04    0.77      17.5  T
     SCC iter.                  ...        0 min,  0.110 sec
     gradient                   ...        0 min,  0.025 sec
 * total energy  :  -200.5650440 Eh     change       -0.1806134E-03 Eh
   gradient norm :     0.0080269 Eh/α   predicted     0.0000000E+00 (-100.00%)
   displ. norm   :     0.1107003 α      lambda       -0.1393963E-03
   maximum displ.:     0.0453854 α      in ANC's #12, #14, #4, ...

........................................................................
.............................. CYCLE   44 ..............................
........................................................................
   1   -204.3466197 -0.204347E+03  0.407E-02    0.77       0.0  T
   2   -204.3466215 -0.176767E-05  0.223E-02    0.77       1.0  T
   3   -204.3466119  0.952494E-05  0.878E-03    0.77       1.1  T
   4   -204.3466209 -0.896304E-05  0.353E-03    0.77       2.7  T
   5   -204.3466224 -0.150348E-05  0.173E-03    0.77       5.5  T
   6   -204.3466227 -0.324257E-06  0.711E-04    0.77      13.5  T
     SCC iter.                  ...        0 min,  0.086 sec
     gradient                   ...        0 min,  0.024 sec
 * total energy  :  -200.5651159 Eh     change       -0.7182039E-04 Eh
   gradient norm :     0.0034373 Eh/α   predicted    -0.7060107E-04 (  -1.70%)
   displ. norm   :     0.1348718 α      lambda       -0.1815647E-03
   maximum displ.:     0.0645660 α      in ANC's #14, #12, #1, ...

........................................................................
.............................. CYCLE   45 ..............................
........................................................................
   1   -204.3552800 -0.204355E+03  0.641E-02    0.77       0.0  T
   2   -204.3552849 -0.489239E-05  0.353E-02    0.77       1.0  T
   3   -204.3552710  0.138981E-04  0.111E-02    0.77       1.0  T
   4   -204.3552864 -0.153905E-04  0.336E-03    0.77       2.9  T
   5   -204.3552865 -0.540013E-07  0.314E-03    0.77       3.1  T
   6   -204.3552879 -0.144760E-05  0.100E-03    0.77       9.6  T
   7   -204.3552880 -0.120560E-06  0.317E-04    0.77      30.2  T
   8   -204.3552881 -0.427914E-08  0.203E-04    0.77      47.2  T
     SCC iter.                  ...        0 min,  0.113 sec
     gradient                   ...        0 min,  0.025 sec
 * total energy  :  -200.5650998 Eh     change        0.1604960E-04 Eh
   gradient norm :     0.0128993 Eh/α   predicted    -0.9244633E-04 (-676.00%)
   displ. norm   :     0.0911986 α      lambda       -0.2410851E-03
   maximum displ.:     0.0285390 α      in ANC's #12, #7, #14, ...

........................................................................
.............................. CYCLE   46 ..............................
........................................................................
   1   -204.3533036 -0.204353E+03  0.557E-02    0.77       0.0  T
   2   -204.3533071 -0.348703E-05  0.307E-02    0.77       1.0  T
   3   -204.3532868  0.202897E-04  0.112E-02    0.77       1.0  T
   4   -204.3533081 -0.213198E-04  0.310E-03    0.77       3.1  T
   5   -204.3533094 -0.125738E-05  0.146E-03    0.77       6.6  T
   6   -204.3533095 -0.159260E-06  0.524E-04    0.77      18.3  T
     SCC iter.                  ...        0 min,  0.086 sec
     gradient                   ...        0 min,  0.024 sec
 * total energy  :  -200.5651937 Eh     change       -0.9389286E-04 Eh
   gradient norm :     0.0062142 Eh/α   predicted    -0.1215664E-03 (  29.47%)
   displ. norm   :     0.1165062 α      lambda       -0.2457291E-03
   maximum displ.:     0.0379525 α      in ANC's #12, #1, #44, ...

........................................................................
.............................. CYCLE   47 ..............................
........................................................................
   1   -204.3449201 -0.204345E+03  0.661E-02    0.76       0.0  T
   2   -204.3449233 -0.323781E-05  0.366E-02    0.76       1.0  T
   3   -204.3448212  0.102114E-03  0.246E-02    0.76       1.0  T
   4   -204.3449238 -0.102568E-03  0.589E-03    0.77       1.6  T
   5   -204.3449295 -0.569235E-05  0.171E-03    0.76       5.6  T
   6   -204.3449296 -0.110416E-06  0.751E-04    0.76      12.8  T
   7   -204.3449296 -0.447356E-07  0.409E-04    0.76      23.4  T
     SCC iter.                  ...        0 min,  0.101 sec
     gradient                   ...        0 min,  0.024 sec
 * total energy  :  -200.5652237 Eh     change       -0.3002732E-04 Eh
   gradient norm :     0.0088993 Eh/α   predicted    -0.1245352E-03 ( 314.74%)
   displ. norm   :     0.1469263 α      lambda       -0.2457204E-03
   maximum displ.:     0.0669619 α      in ANC's #14, #12, #4, ...

........................................................................
.............................. CYCLE   48 ..............................
........................................................................
   1   -204.3448885 -0.204345E+03  0.748E-02    0.76       0.0  T
   2   -204.3448940 -0.543324E-05  0.411E-02    0.76       1.0  T
   3   -204.3448656  0.283676E-04  0.136E-02    0.77       1.0  T
   4   -204.3448946 -0.290185E-04  0.448E-03    0.76       2.1  T
   5   -204.3448970 -0.234129E-05  0.253E-03    0.76       3.8  T
   6   -204.3448975 -0.567894E-06  0.103E-03    0.76       9.3  T
     SCC iter.                  ...        0 min,  0.089 sec
     gradient                   ...        0 min,  0.024 sec
 * total energy  :  -200.5652813 Eh     change       -0.5758624E-04 Eh
   gradient norm :     0.0075819 Eh/α   predicted    -0.1255177E-03 ( 117.96%)
   displ. norm   :     0.2294291 α      lambda       -0.3624265E-03
   maximum displ.:     0.0927631 α      in ANC's #14, #12, #1, ...

........................................................................
.............................. CYCLE   49 ..............................
........................................................................
   1   -204.3515890 -0.204352E+03  0.956E-02    0.76       0.0  T
   2   -204.3515989 -0.992468E-05  0.522E-02    0.76       1.0  T
   3   -204.3515456  0.532923E-04  0.205E-02    0.76       1.0  T
   4   -204.3516000 -0.543674E-04  0.651E-03    0.76       1.5  T
   5   -204.3516024 -0.238734E-05  0.529E-03    0.76       1.8  T
   6   -204.3516064 -0.400377E-05  0.129E-03    0.76       7.4  T
   7   -204.3516066 -0.207939E-06  0.485E-04    0.76      19.8  T
   8   -204.3516066 -0.119555E-07  0.324E-04    0.76      29.6  T
     SCC iter.                  ...        0 min,  0.116 sec
     gradient                   ...        0 min,  0.024 sec
 * total energy  :  -200.5653649 Eh     change       -0.8355255E-04 Eh
   gradient norm :     0.0070591 Eh/α   predicted    -0.1907532E-03 ( 128.30%)
   displ. norm   :     0.1975790 α      lambda       -0.2917851E-03
   maximum displ.:     0.0835005 α      in ANC's #14, #12, #1, ...

........................................................................
.............................. CYCLE   50 ..............................
........................................................................
   1   -204.3528663 -0.204353E+03  0.779E-02    0.76       0.0  T
   2   -204.3528705 -0.411687E-05  0.426E-02    0.76       1.0  T
   3   -204.3527815  0.889122E-04  0.234E-02    0.76       1.0  T
   4   -204.3528683 -0.867993E-04  0.738E-03    0.76       1.3  T
   5   -204.3528760 -0.762357E-05  0.312E-03    0.76       3.1  T
   6   -204.3528767 -0.729000E-06  0.889E-04    0.76      10.8  T
   7   -204.3528768 -0.859167E-07  0.378E-04    0.76      25.3  T
     SCC iter.                  ...        0 min,  0.097 sec
     gradient                   ...        0 min,  0.024 sec
 * total energy  :  -200.5654545 Eh     change       -0.8962406E-04 Eh
   gradient norm :     0.0090012 Eh/α   predicted    -0.1516012E-03 (  69.15%)
   displ. norm   :     0.2423545 α      lambda       -0.3253394E-03
   maximum displ.:     0.0946753 α      in ANC's #12, #14, #1, ...

........................................................................
.............................. CYCLE   51 ..............................
........................................................................
   1   -204.3463680 -0.204346E+03  0.836E-02    0.76       0.0  T
   2   -204.3463754 -0.748188E-05  0.454E-02    0.76       1.0  T
   3   -204.3463556  0.198106E-04  0.151E-02    0.76       1.0  T
   4   -204.3463787 -0.230786E-04  0.448E-03    0.76       2.1  T
   5   -204.3463770  0.168654E-05  0.424E-03    0.76       2.3  T
   6   -204.3463799 -0.290001E-05  0.121E-03    0.76       7.9  T
   7   -204.3463801 -0.164450E-06  0.654E-04    0.76      14.7  T
     SCC iter.                  ...        0 min,  0.101 sec
     gradient                   ...        0 min,  0.024 sec
 * total energy  :  -200.5655890 Eh     change       -0.1345123E-03 Eh
   gradient norm :     0.0050256 Eh/α   predicted    -0.1722280E-03 (  28.04%)
   displ. norm   :     0.2932089 α      lambda       -0.2296879E-03
   maximum displ.:     0.1227402 α      in ANC's #14, #12, #1, ...

........................................................................
.............................. CYCLE   52 ..............................
........................................................................
   1   -204.3425149 -0.204343E+03  0.919E-02    0.76       0.0  T
   2   -204.3425233 -0.834522E-05  0.494E-02    0.76       1.0  T
   3   -204.3424957  0.276058E-04  0.168E-02    0.75       1.0  T
   4   -204.3425259 -0.302190E-04  0.588E-03    0.76       1.6  T
   5   -204.3425243  0.161479E-05  0.512E-03    0.75       1.9  T
   6   -204.3425283 -0.403276E-05  0.160E-03    0.76       6.0  T
   7   -204.3425287 -0.409359E-06  0.645E-04    0.75      14.9  T
   8   -204.3425287 -0.482585E-07  0.297E-04    0.76      32.2  T
     SCC iter.                  ...        0 min,  0.114 sec
     gradient                   ...        0 min,  0.024 sec
 * total energy  :  -200.5657171 Eh     change       -0.1280615E-03 Eh
   gradient norm :     0.0075077 Eh/α   predicted    -0.1247292E-03 (  -2.60%)
   displ. norm   :     0.4049869 α      lambda       -0.2273468E-03
   maximum displ.:     0.1735879 α      in ANC's #14, #12, #1, ...

........................................................................
.............................. CYCLE   53 ..............................
........................................................................
   1   -204.3462131 -0.204346E+03  0.105E-01    0.75       0.0  T
   2   -204.3462234 -0.102831E-04  0.555E-02    0.75       1.0  T
   3   -204.3462200  0.332181E-05  0.111E-02    0.75       1.0  T
   4   -204.3462223 -0.223647E-05  0.735E-03    0.75       1.3  T
   5   -204.3462229 -0.634675E-06  0.451E-03    0.75       2.1  T
   6   -204.3462265 -0.362595E-05  0.125E-03    0.75       7.6  T
   7   -204.3462268 -0.223220E-06  0.441E-04    0.75      21.7  T
   8   -204.3462268 -0.785562E-08  0.280E-04    0.75      34.3  T
     SCC iter.                  ...        0 min,  0.112 sec
     gradient                   ...        0 min,  0.024 sec
 * total energy  :  -200.5658890 Eh     change       -0.1719544E-03 Eh
   gradient norm :     0.0036347 Eh/α   predicted    -0.1323207E-03 ( -23.05%)
   displ. norm   :     0.5580472 α      lambda       -0.2632799E-03
   maximum displ.:     0.2308434 α      in ANC's #12, #1, #14, ...

........................................................................
.............................. CYCLE   54 ..............................
........................................................................
   1   -204.3490106 -0.204349E+03  0.145E-01    0.74       0.0  T
   2   -204.3490301 -0.194267E-04  0.764E-02    0.74       1.0  T
   3   -204.3490044  0.256873E-04  0.185E-02    0.74       1.0  T
   4   -204.3490049 -0.564259E-06  0.152E-02    0.75       1.0  T
   5   -204.3490233 -0.183175E-04  0.931E-03    0.74       1.0  T
   6   -204.3490370 -0.137449E-04  0.157E-03    0.74       6.1  T
   7   -204.3490373 -0.321257E-06  0.656E-04    0.74      14.6  T
   8   -204.3490373 -0.218955E-07  0.433E-04    0.74      22.1  T
     SCC iter.                  ...        0 min,  0.115 sec
     gradient                   ...        0 min,  0.025 sec
 * total energy  :  -200.5660772 Eh     change       -0.1881973E-03 Eh
   gradient norm :     0.0064371 Eh/α   predicted    -0.1726368E-03 (  -8.27%)
   displ. norm   :     0.6156777 α      lambda       -0.3076090E-03
   maximum displ.:     0.2634498 α      in ANC's #1, #12, #4, ...

........................................................................
.............................. CYCLE   55 ..............................
........................................................................
   1   -204.3493393 -0.204349E+03  0.153E-01    0.74       0.0  T
   2   -204.3493598 -0.204076E-04  0.805E-02    0.74       1.0  T
   3   -204.3493192  0.405763E-04  0.217E-02    0.73       1.0  T
   4   -204.3493375 -0.183636E-04  0.152E-02    0.74       1.0  T
   5   -204.3493488 -0.112842E-04  0.109E-02    0.73       1.0  T
   6   -204.3493672 -0.183582E-04  0.258E-03    0.74       3.7  T
   7   -204.3493683 -0.110071E-05  0.741E-04    0.74      12.9  T
   8   -204.3493683 -0.425912E-07  0.442E-04    0.74      21.7  T
     SCC iter.                  ...        0 min,  0.116 sec
     gradient                   ...        0 min,  0.024 sec
 * total energy  :  -200.5663278 Eh     change       -0.2506255E-03 Eh
   gradient norm :     0.0072208 Eh/α   predicted    -0.2121072E-03 ( -15.37%)
   displ. norm   :     0.6650230 α      lambda       -0.3301801E-03
   maximum displ.:     0.3026066 α      in ANC's #1, #12, #4, ...

........................................................................
.............................. CYCLE   56 ..............................
........................................................................
   1   -204.3478558 -0.204348E+03  0.162E-01    0.73       0.0  T
   2   -204.3478776 -0.217447E-04  0.858E-02    0.73       1.0  T
   3   -204.3477850  0.925301E-04  0.281E-02    0.72       1.0  T
   4   -204.3478577 -0.726707E-04  0.158E-02    0.73       1.0  T
   5   -204.3478710 -0.132823E-04  0.110E-02    0.73       1.0  T
   6   -204.3478872 -0.162447E-04  0.384E-03    0.73       2.5  T
   7   -204.3478898 -0.257190E-05  0.807E-04    0.73      11.9  T
   8   -204.3478899 -0.465690E-07  0.462E-04    0.73      20.7  T
     SCC iter.                  ...        0 min,  0.109 sec
     gradient                   ...        0 min,  0.024 sec
 * total energy  :  -200.5665940 Eh     change       -0.2661131E-03 Eh
   gradient norm :     0.0052312 Eh/α   predicted    -0.2381032E-03 ( -10.53%)
   displ. norm   :     0.6805645 α      lambda       -0.3393431E-03
   maximum displ.:     0.3213807 α      in ANC's #1, #4, #12, ...

........................................................................
.............................. CYCLE   57 ..............................
........................................................................
   1   -204.3473286 -0.204347E+03  0.165E-01    0.72       0.0  T
   2   -204.3473507 -0.220727E-04  0.878E-02    0.72       1.0  T
   3   -204.3471896  0.161128E-03  0.355E-02    0.71       1.0  T
   4   -204.3473382 -0.148621E-03  0.155E-02    0.72       1.0  T
   5   -204.3473500 -0.118091E-04  0.112E-02    0.72       1.0  T
   6   -204.3473642 -0.142087E-04  0.483E-03    0.72       2.0  T
   7   -204.3473684 -0.422113E-05  0.875E-04    0.72      10.9  T
   8   -204.3473685 -0.462386E-07  0.525E-04    0.72      18.2  T
   9   -204.3473685 -0.149847E-07  0.253E-04    0.72      37.9  T
     SCC iter.                  ...        0 min,  0.130 sec
     gradient                   ...        0 min,  0.024 sec
 * total energy  :  -200.5668330 Eh     change       -0.2390880E-03 Eh
   gradient norm :     0.0066783 Eh/α   predicted    -0.2482613E-03 (   3.84%)
   displ. norm   :     0.6334229 α      lambda       -0.3021273E-03
   maximum displ.:     0.2977403 α      in ANC's #1, #4, #12, ...

........................................................................
.............................. CYCLE   58 ..............................
........................................................................
   1   -204.3476539 -0.204348E+03  0.147E-01    0.71       0.0  T
   2   -204.3476731 -0.191867E-04  0.785E-02    0.71       1.0  T
   3   -204.3476469  0.261932E-04  0.196E-02    0.71       1.0  T
   4   -204.3476693 -0.224453E-04  0.112E-02    0.71       1.0  T
   5   -204.3476669  0.240726E-05  0.911E-03    0.71       1.1  T
   6   -204.3476802 -0.132607E-04  0.252E-03    0.71       3.8  T
   7   -204.3476812 -0.106107E-05  0.791E-04    0.71      12.1  T
   8   -204.3476813 -0.553340E-07  0.461E-04    0.71      20.8  T
     SCC iter.                  ...        0 min,  0.115 sec
     gradient                   ...        0 min,  0.024 sec
 * total energy  :  -200.5670090 Eh     change       -0.1759185E-03 Eh
   gradient norm :     0.0090906 Eh/α   predicted    -0.2116765E-03 (  20.33%)
   displ. norm   :     0.5748889 α      lambda       -0.2885314E-03
   maximum displ.:     0.2722447 α      in ANC's #1, #4, #12, ...

........................................................................
.............................. CYCLE   59 ..............................
........................................................................
   1   -204.3440294 -0.204344E+03  0.138E-01    0.71       0.0  T
   2   -204.3440480 -0.185674E-04  0.740E-02    0.71       1.0  T
   3   -204.3440296  0.184096E-04  0.181E-02    0.71       1.0  T
   4   -204.3440505 -0.208533E-04  0.883E-03    0.71       1.1  T
   5   -204.3440504  0.375697E-07  0.580E-03    0.71       1.7  T
   6   -204.3440556 -0.521653E-05  0.126E-03    0.71       7.6  T
   7   -204.3440558 -0.173866E-06  0.555E-04    0.71      17.2  T
   8   -204.3440558 -0.111904E-07  0.342E-04    0.71      28.0  T
     SCC iter.                  ...        0 min,  0.119 sec
     gradient                   ...        0 min,  0.024 sec
 * total energy  :  -200.5671954 Eh     change       -0.1864227E-03 Eh
   gradient norm :     0.0059111 Eh/α   predicted    -0.1919539E-03 (   2.97%)
   displ. norm   :     0.4151870 α      lambda       -0.2216013E-03
   maximum displ.:     0.2056463 α      in ANC's #1, #4, #12, ...

[...]
    26  16 S      2.094     0.013   140.532    19.952
    27   6 C      3.099     0.009    27.702     8.625
    28   6 C      3.241    -0.009    27.282     8.467
    29   6 C      3.065    -0.042    28.972     8.826
    30   6 C      2.949    -0.016    28.410     8.742
    31  16 S      2.227     0.000   141.046    19.989
    32   6 C      3.031     0.004    27.904     8.665
    33   6 C      2.900    -0.029    28.719     8.787
    34   6 C      2.930    -0.040    28.993     8.831
    35   6 C      2.986     0.019    27.580     8.615
    36  16 S      2.398    -0.021   141.930    20.051
    37   6 C      3.060     0.004    27.870     8.657
    38   6 C      3.131    -0.011    28.086     8.676
    39   6 C      3.143    -0.014    28.101     8.674
    40   6 C      3.817    -0.046    21.380     6.581
    41   6 C      3.865    -0.002    20.566     6.449
    42   6 C      1.909     0.110    28.387     8.605
    43   7 N      0.911    -0.216    25.717     7.335
    44   6 C      3.866     0.000    20.530     6.443
    45   6 C      1.907     0.109    28.411     8.608
    46   7 N      0.911    -0.210    25.573     7.314
    47   6 C      3.816    -0.046    21.387     6.582
    48   6 C      2.986     0.024    27.456     8.595
    49   6 C      2.938    -0.038    28.951     8.824
    50   6 C      3.074     0.003    27.876     8.657
    51   6 C      3.088     0.006    27.780     8.640
    52   6 C      2.889    -0.005    28.139     8.697
    53  16 S      2.188     0.045   139.235    19.860
    54   6 C      3.101     0.003    27.834     8.645
    55   6 C      3.241    -0.004    27.187     8.453
    56   6 C      3.069    -0.036    28.830     8.804
    57   6 C      2.950    -0.014    28.351     8.733
    58  16 S      2.230    -0.008   141.367    20.011
    59   6 C      3.030    -0.002    28.047     8.687
    60   6 C      2.908    -0.016    28.399     8.738
    61   6 C      2.896    -0.030    28.741     8.790
    62   6 C      2.908    -0.020    28.517     8.756
    63   6 C      3.020    -0.012    28.283     8.724
    64   6 C      3.027     0.027    27.364     8.580
    65   6 C      2.946     0.001    28.012     8.681
    66   6 C      1.947     0.124    28.029     8.550
    67   7 N      0.911    -0.254    26.594     7.458
    68   6 C      1.949     0.123    28.066     8.555
    69   7 N      0.911    -0.240    26.263     7.412
    70   6 C      3.050     0.005    27.869     8.658
    71   6 C      3.048     0.005    27.875     8.659
    72   6 C      2.912    -0.027    28.687     8.783
    73   6 C      2.921    -0.021    28.527     8.759
    74   6 C      2.920    -0.021    28.536     8.760
    75   6 C      2.913    -0.027    28.685     8.782
    76   6 C      3.030     0.029    27.324     8.574
    77   6 C      2.947     0.001    27.995     8.678
    78   6 C      1.942     0.120    28.124     8.564
    79   7 N      0.911    -0.242    26.307     7.418
    80   6 C      1.940     0.121    28.117     8.563
    81   7 N      0.911    -0.245    26.385     7.429
    82   1 H      0.926     0.056     2.245     2.343
    83   1 H      0.926     0.051     2.311     2.377
    84   1 H      0.926     0.051     2.310     2.377
    85   1 H      0.926     0.055     2.263     2.352
    86   1 H      0.925     0.068     2.108     2.271
    87   1 H      0.925     0.064     2.147     2.291
    88   1 H      0.926     0.071     2.073     2.251
    89   1 H      0.926     0.044     2.393     2.419
    90   1 H      0.926     0.055     2.257     2.349
    91   1 H      0.925     0.053     2.289     2.366
    92   1 H      0.926     0.053     2.287     2.365
    93   1 H      0.924     0.054     2.275     2.358
    94   1 H      0.924     0.052     2.295     2.369
    95   1 H      0.924     0.071     2.072     2.251
    96   1 H      0.924     0.067     2.121     2.277
    97   1 H      0.924     0.055     2.257     2.350
    98   1 H      0.924     0.052     2.294     2.369
    99   1 H      0.926     0.059     2.210     2.325
   100   1 H      0.926     0.073     2.054     2.241
   101   1 H      0.926     0.046     2.375     2.410
   102   1 H      0.926     0.055     2.263     2.352
   103   1 H      0.925     0.047     2.353     2.399
   104   1 H      0.926     0.049     2.337     2.391
   105   1 H      0.925     0.058     2.226     2.333
   106   1 H      0.926     0.053     2.286     2.365
   107   1 H      0.926     0.047     2.352     2.398
   108   1 H      0.926     0.048     2.350     2.397
   109   1 H      0.926     0.054     2.264     2.353

 Mol. C6AA /au·bohr⁶  :     249065.575645
 Mol. C8AA /au·bohr⁸  :    7104542.423262
 Mol. α(0) /au        :        803.202827


Wiberg/Mayer (AO) data.
largest (>0.10) Wiberg bond orders for each atom
          total WBO             WBO to atom ...
     1  C   3.974        C    2 1.428    C    6 1.403    H   82 0.961
     2  C   3.969        C    3 1.431    C    1 1.428    H   83 0.970
     3  C   3.968        C    2 1.431    C    4 1.426    H   84 0.970
     4  C   3.975        C    3 1.426    C    5 1.407    H   85 0.963
     5  C   3.974        C    4 1.407    C    6 1.271    C   14 1.092
     6  C   3.972        C    1 1.403    C    5 1.271    C    7 1.094
     7  C   3.966        C    8 1.483    C   13 1.118    C    6 1.094
     8  C   3.943        C    7 1.483    C   11 1.100    C    9 1.095
     9  C   3.944        N   10 2.765    C    8 1.095
    10  N   2.967        C    9 2.765
    11  C   3.944        N   12 2.751    C    8 1.100
    12  N   2.962        C   11 2.751
    13  C   3.916        C   20 1.496    C   14 1.120    C    7 1.118
    14  C   3.957        C   15 1.475    C   13 1.120    C    5 1.092
    15  C   3.944        C   14 1.475    C   18 1.100    C   16 1.098
    16  C   3.944        N   17 2.761    C   15 1.098
    17  N   2.969        C   16 2.761
    18  C   3.946        N   19 2.767    C   15 1.100
    19  N   2.966        C   18 2.767
    20  C   3.923        C   13 1.496    C   21 1.262    H   86 0.936
    21  C   3.904        C   22 1.413    C   20 1.262    S   26 1.057
    22  C   3.959        C   21 1.413    C   23 1.382    H   87 0.948
    23  C   3.939        C   22 1.382    C   32 1.276    C   24 1.067
    24  C   3.979        C   25 1.572    C   27 1.174    C   23 1.067
    25  C   3.937        C   24 1.572    S   26 1.201    H   88 0.957
    26  S   2.599        C   25 1.201    C   21 1.057
    27  C   3.905        C   28 1.339    C   24 1.174    S   31 1.168
    28  C   3.968        C   27 1.339    C   29 1.240    C   32 1.163
    29  C   3.977        C   30 1.638    C   28 1.240    H   89 0.958
    30  C   3.924        C   29 1.638    S   31 1.171    H   90 0.970
    31  S   2.621        C   30 1.171    C   27 1.168
    32  C   3.927        C   23 1.276    C   33 1.247    C   28 1.163
    33  C   3.963        C   34 1.583    C   32 1.247    H   91 0.950
    34  C   3.890        C   33 1.583    C   35 1.231    H   92 0.950
    35  C   3.918        C   39 1.391    C   34 1.231    S   36 1.121
    36  S   2.565        C   37 1.131    C   35 1.121
    37  C   3.906        C   38 1.409    C   48 1.168    S   36 1.131
    38  C   3.948        C   37 1.409    C   39 1.329    C   47 1.010
    39  C   3.930        C   35 1.391    C   38 1.329    C   40 1.009
    40  C   3.993        C   39 1.009    C   41 0.967    H   93 0.963    H   94 0.958
    41  C   3.994        C   42 1.034    C   40 0.967    H   95 0.941    C   44 0.937
    42  C   3.945        N   43 2.863    C   41 1.034
    43  N   3.013        C   42 2.863
    44  C   3.994        C   45 1.033    C   47 0.965    H   96 0.941    C   41 0.937
    45  C   3.946        N   46 2.867    C   44 1.033
    46  N   3.015        C   45 2.867
    47  C   3.994        C   38 1.010    C   44 0.965    H   98 0.964    H   97 0.955
    48  C   3.894        C   49 1.468    C   37 1.168    S   53 1.087
    49  C   3.961        C   48 1.468    C   50 1.337    H   99 0.945
    50  C   3.928        C   49 1.337    C   59 1.282    C   51 1.083
    51  C   3.972        C   52 1.561    C   54 1.169    C   50 1.083
    52  C   3.937        C   51 1.561    S   53 1.201    H  100 0.957
    53  S   2.610        C   52 1.201    C   48 1.087
    54  C   3.917        C   55 1.363    C   51 1.169    S   58 1.156
    55  C   3.974        C   54 1.363    C   56 1.253    C   59 1.128
    56  C   3.980        C   57 1.625    C   55 1.253    H  101 0.957
    57  C   3.928        C   56 1.625    S   58 1.183    H  102 0.970
    58  S   2.622        C   57 1.183    C   54 1.156
    59  C   3.941        C   60 1.302    C   50 1.282    C   55 1.128
    60  C   3.958        C   61 1.488    C   59 1.302    H  103 0.955
    61  C   3.917        C   60 1.488    C   62 1.336    H  104 0.952
    62  C   3.937        C   63 1.445    C   61 1.336    H  105 0.944
    63  C   3.913        C   62 1.445    C   76 1.140    C   64 1.136
    64  C   3.967        C   65 1.468    C   63 1.136    C   70 1.093
    65  C   3.939        C   64 1.468    C   66 1.103    C   68 1.098
    66  C   3.943        N   67 2.743    C   65 1.103
    67  N   2.956        C   66 2.743
    68  C   3.943        N   69 2.759    C   65 1.098
    69  N   2.961        C   68 2.759
    70  C   3.974        C   75 1.404    C   71 1.274    C   64 1.093
    71  C   3.974        C   72 1.407    C   70 1.274    C   76 1.090
    72  C   3.976        C   73 1.426    C   71 1.407    H  106 0.962
    73  C   3.969        C   74 1.432    C   72 1.426    H  107 0.970
    74  C   3.971        C   73 1.432    C   75 1.428    H  108 0.970
    75  C   3.975        C   74 1.428    C   70 1.404    H  109 0.961
    76  C   3.964        C   77 1.467    C   63 1.140    C   71 1.090
    77  C   3.939        C   76 1.467    C   78 1.101    C   80 1.099
    78  C   3.944        N   79 2.759    C   77 1.101
    79  N   2.960        C   78 2.759
    80  C   3.945        N   81 2.757    C   77 1.099
    81  N   2.969        C   80 2.757
    82  H   0.996        C    1 0.961
    83  H   0.997        C    2 0.970
    84  H   0.997        C    3 0.970
    85  H   0.996        C    4 0.963
    86  H   0.992        C   20 0.936
    87  H   0.995        C   22 0.948
    88  H   0.994        C   25 0.957
    89  H   0.998        C   29 0.958
    90  H   0.996        C   30 0.970
    91  H   0.996        C   33 0.950
    92  H   0.997        C   34 0.950
    93  H   0.994        C   40 0.963
    94  H   0.994        C   40 0.958
    95  H   0.995        C   41 0.941
    96  H   0.995        C   44 0.941
    97  H   0.995        C   47 0.955
    98  H   0.995        C   47 0.964
    99  H   0.996        C   49 0.945
   100  H   0.993        C   52 0.957
   101  H   0.997        C   56 0.957
   102  H   0.996        C   57 0.970
   103  H   0.996        C   60 0.955
   104  H   0.997        C   61 0.952
   105  H   0.995        C   62 0.944
   106  H   0.997        C   72 0.962
   107  H   0.997        C   73 0.970
   108  H   0.997        C   74 0.970
   109  H   0.996        C   75 0.961

molecular dipole:
                 x           y           z       tot (Debye)
 q only:        0.033      -3.034      -1.988
   full:        0.475      -3.062      -1.353       8.594
molecular quadrupole (traceless):
                xx          xy          yy          xz          yz          zz
 q only:       11.943      29.412      94.000      20.221     -67.615    -105.943
  q+dip:       -3.437      30.848      87.052      41.790     -69.865     -83.615
   full:       -2.392      28.184      85.279      38.209     -78.806     -82.887

           -------------------------------------------------
          |                Geometry Summary                 |
           -------------------------------------------------

      molecular mass/u    :     1121.3142000
   center of mass at/Å    :        2.0399308      -6.2281277       7.8220500
  moments of inertia/u·Å² :        0.1702392E+05   0.6629884E+05   0.7336561E+05
rotational constants/cm⁻¹ :        0.9902323E-03   0.2542674E-03   0.2297757E-03

 * 95 selected distances

     #   Z        #   Z                                     value/Å
     1   6 C      2   6 C                                 1.3876825
     2   6 C      3   6 C                                 1.3871547
     3   6 C      4   6 C                                 1.3875245
     4   6 C      5   6 C                                 1.3838014
     1   6 C      6   6 C                                 1.3853748
     5   6 C      6   6 C                                 1.4134455
     7   6 C      8   6 C                                 1.3709512
     9   6 C     10   7 N                                 1.1479135
    11   6 C     12   7 N                                 1.1491397
    14   6 C     15   6 C                                 1.3718743
    16   6 C     17   7 N                                 1.1484009
    18   6 C     19   7 N                                 1.1478659
    13   6 C     20   6 C                                 1.3726888
    20   6 C     21   6 C                                 1.4134391
    21   6 C     22   6 C                                 1.3843402
    22   6 C     23   6 C                                 1.3841752
    24   6 C     25   6 C                                 1.3508448
    25   6 C     26  16 S                                 1.7109941
    24   6 C     27   6 C                                 1.4207200
    27   6 C     28   6 C                                 1.4011147
    28   6 C     29   6 C                                 1.4148027
    29   6 C     30   6 C                                 1.3578837
    27   6 C     31  16 S                                 1.7137575
    30   6 C     31  16 S                                 1.7311792
    23   6 C     32   6 C                                 1.4173331
    28   6 C     32   6 C                                 1.4365978
    32   6 C     33   6 C                                 1.4111118
    33   6 C     34   6 C                                 1.3593763
    34   6 C     35   6 C                                 1.4147473
    35   6 C     36  16 S                                 1.7406267 (max)
    36  16 S     37   6 C                                 1.7399949
    37   6 C     38   6 C                                 1.3880247
    35   6 C     39   6 C                                 1.3894322
    38   6 C     39   6 C                                 1.4029738
    40   6 C     41   6 C                                 1.5359311
    42   6 C     43   7 N                                 1.1420430
    45   6 C     46   7 N                                 1.1416474
    44   6 C     47   6 C                                 1.5356822
    37   6 C     48   6 C                                 1.4313237
    48   6 C     49   6 C                                 1.3744928
    49   6 C     50   6 C                                 1.3928131
    51   6 C     52   6 C                                 1.3532200
    52   6 C     53  16 S                                 1.7117109
    51   6 C     54   6 C                                 1.4221848
    54   6 C     55   6 C                                 1.3970179
    55   6 C     56   6 C                                 1.4117892
    56   6 C     57   6 C                                 1.3596218
    54   6 C     58  16 S                                 1.7164510
    57   6 C     58  16 S                                 1.7273700
    50   6 C     59   6 C                                 1.4165630
    55   6 C     59   6 C                                 1.4450318
    59   6 C     60   6 C                                 1.3999640
    60   6 C     61   6 C                                 1.3718188
    61   6 C     62   6 C                                 1.3971946
    62   6 C     63   6 C                                 1.3793692
    64   6 C     65   6 C                                 1.3738120
    66   6 C     67   7 N                                 1.1498921
    68   6 C     69   7 N                                 1.1484355
    70   6 C     71   6 C                                 1.4130844
    71   6 C     72   6 C                                 1.3843542
    72   6 C     73   6 C                                 1.3873130
    73   6 C     74   6 C                                 1.3865771
    70   6 C     75   6 C                                 1.3853661
    74   6 C     75   6 C                                 1.3874280
    76   6 C     77   6 C                                 1.3737340
    78   6 C     79   7 N                                 1.1487047
    80   6 C     81   7 N                                 1.1486300
     1   6 C     82   1 H                                 1.0775529
     2   6 C     83   1 H                                 1.0792709
     3   6 C     84   1 H                                 1.0792483
     4   6 C     85   1 H                                 1.0781244
    20   6 C     86   1 H                                 1.0821180
    22   6 C     87   1 H                                 1.0817976
    25   6 C     88   1 H                                 1.0786220
    29   6 C     89   1 H                                 1.0742711
    30   6 C     90   1 H                                 1.0724524
    33   6 C     91   1 H                                 1.0829171
    34   6 C     92   1 H                                 1.0789291
    40   6 C     93   1 H                                 1.0930482
    40   6 C     94   1 H                                 1.0966952
    41   6 C     95   1 H                                 1.0969147
    44   6 C     96   1 H                                 1.0973708
    47   6 C     97   1 H                                 1.0959239
    47   6 C     98   1 H                                 1.0930918
    49   6 C     99   1 H                                 1.0786982
    52   6 C    100   1 H                                 1.0784456
    56   6 C    101   1 H                                 1.0735826
    57   6 C    102   1 H                                 1.0724235 (min)
    60   6 C    103   1 H                                 1.0832585
    61   6 C    104   1 H                                 1.0769900
    62   6 C    105   1 H                                 1.0812795
    72   6 C    106   1 H                                 1.0778555
    73   6 C    107   1 H                                 1.0793388
    74   6 C    108   1 H                                 1.0793377
    75   6 C    109   1 H                                 1.0773887

 * 4 distinct bonds (by element types)

   Z      Z             #   av. dist./Å        max./Å        min./Å
   1 H    6 C          28     1.0820338     1.0973708     1.0724235
   6 C    6 C          49     1.3984307     1.5359311     1.3508448
   6 C    7 N          10     1.1472673     1.1498921     1.1416474
   6 C   16 S           8     1.7240105     1.7406267     1.7109941


optimized geometry written to: xtbopt.xyz


           -------------------------------------------------
          | TOTAL ENERGY             -200.575341859403 Eh   |
          | GRADIENT NORM               0.000779493881 Eh/α |
          | HOMO-LUMO GAP               0.648210322299 eV   |
           -------------------------------------------------

------------------------------------------------------------------------
 * finished run on 2021/05/20 at 15:20:03.566     
------------------------------------------------------------------------
 total:
 * wall-time:     0 d,  0 h,  0 min, 34.670 sec
 *  cpu-time:     0 d,  0 h,  6 min, 54.632 sec
 * ratio c/w:    11.959 speedup
 SCF:
 * wall-time:     0 d,  0 h,  0 min,  0.282 sec
 *  cpu-time:     0 d,  0 h,  0 min,  3.229 sec
 * ratio c/w:    11.444 speedup
 ANC optimizer:
 * wall-time:     0 d,  0 h,  0 min, 34.316 sec
 *  cpu-time:     0 d,  0 h,  6 min, 50.709 sec
 * ratio c/w:    11.968 speedup

