      -----------------------------------------------------------      
     |                   =====================                   |     
     |                           x T B                           |     
     |                   =====================                   |     
     |                         S. Grimme                         |     
     |          Mulliken Center for Theoretical Chemistry        |     
     |                    University of Bonn                     |     
     |                Version 6.2 RC2 (SAW190805)                |     
      -----------------------------------------------------------      

   This program is distributed in the hope that it will be useful,
   but WITHOUT ANY WARRANTY; without even the implied warranty of
   MERCHANTABILITY or FITNESS FOR A PARTICULAR PURPOSE.
   
   FOR NON-COMMERCIAL, ACADEMIA USE ONLY.
   
   Cite this work as:
   * S. Grimme, C. Bannwarth, P. Shushkov, J. Chem. Theory Comput., 2017,
     13, 1989-2009. DOI: 10.1021/acs.jctc.7b00118
   * C. Bannwarth, S. Ehlert and S. Grimme., J. Chem. Theory Comput., 2019,
     15, 1652-1671. DOI: 10.1021/acs.jctc.8b01176
   * P. Pracht, E. Caldeweyher, S. Ehlert, S. Grimme, ChemRxiv, 2019, preprint.
     DOI: 10.26434/chemrxiv.8326202.v1
   
   for DFT-D4:
   * E. Caldeweyher, C. Bannwarth and S. Grimme, J. Chem. Phys., 2017,
     147, 034112. DOI: 10.1063/1.4993215
   * E. Caldeweyher, S. Ehlert, A. Hansen, H. Neugebauer, S. Spicher,
     C. Bannwarth and S. Grimme, J. Chem. Phys., 2019, 150, 154122.
     DOI: 10.1063/1.5090222
   
   for sTDA-xTB:
   * S. Grimme and C. Bannwarth, J. Chem. Phys., 2016, 145, 054103.
     DOI: 10.1063/1.4959605
   
   in the mass-spec context:
   * V. Asgeirsson, C. Bauer and S. Grimme, Chem. Sci., 2017, 8, 4879.
     DOI: 10.1039/c7sc00601b
   
   for metadynamics refer to:
   * S. Grimme, J. Chem. Theory Comput., 2019, 155, 2847-2862
     DOI: 10.1021/acs.jctc.9b00143
   
   with help from (in alphabetical order)
   C. Bannwarth, F. Bohle, G. Brandenburg, E. Caldeweyher, M. Checinski,
   S. Dohm, S. Ehlert, S. Ehrlich, F. März, H. Neugebauer, J. Pisarek,
   P. Pracht, P. Shushkov, and S. Spicher.
   
 * started run on 2021/05/21 at 23:42:39.532     

           -------------------------------------------------
          |                Calculation Setup                |
           -------------------------------------------------

          program call               : /ihome/ghutchison/geoffh/xtb/xtb /ihome/ghutchison/blp62/GA/running_GA/more_units/generations/51/62_210_103_210_62.xyz -opt
          hostname                   : smp-n176
          coordinate file            : /ihome/ghutchison/blp62/GA/running_GA/more_units/generations/51/62_210_103_210_62.xyz
          omp threads                :                    12
          number of atoms            :                   124
          number of electrons        :                   430
          charge                     :                     0
          spin                       :                   0.0
          first test random number   :      0.07774311239280


########################################################################
# WARNING! Please study the warnings concerning your input carefully
#  - XTBPATH is not set, using XTBHOME instead
#  - the use of '-opt' is discouraged, please use '--opt' next time
########################################################################

           ------------------------------------------------- 
          |                 G F N 2 - x T B                 |
          | Geometry, Frequencies, Noncovalent interactions |
          |            JCTC 2019 parametrisation            |
           ------------------------------------------------- 
             KAB for C  - Si     :                1.0500
             KAB for H  - Pd     :                0.9500
             k(s)              :                1.8500
             k(p)              :                2.2300
             k(d)              :                2.2300
             k(f)              :                2.0000
             kEN (H0ij)        :               -2.0000
             D4 a1             :                0.5200
             D4 a2             :                5.0000
             D4 s6             :                1.0000
             D4 s8             :                2.7000
             D4 s9             :                5.0000
             alphaj            :                2.0000

  Z AO/shell   Hii/eV     exponent
  1     Wed Apr 25 08:07:45 CEST 2018   EN: 2.200 GM2: 0.406  GM3: 0.0800  RAES: 1.40
     1s    -10.707211    1.230000
  6     Wed Apr 25 08:07:45 CEST 2018   EN: 2.550 GM2: 0.538  GM3: 0.1500  RAES: 3.00
     2s    -13.970922    2.096432
     2p    -10.063292    1.800000
  7     Wed Apr 25 08:07:45 CEST 2018   EN: 3.040 GM2: 0.461  GM3:-0.0640  RAES: 1.90
     2s    -16.686243    2.339881
     2p    -12.523956    2.014332
  8     Wed Apr 25 08:07:45 CEST 2018   EN: 3.440 GM2: 0.452  GM3:-0.0517  RAES: 1.80
     2s    -20.229985    2.439742
     2p    -15.503117    2.137023
  9     Mon Apr 23 13:58:50 CEST 2018   EN: 3.980 GM2: 0.532  GM3: 0.1426  RAES: 2.40
     2s    -23.458179    2.416361
     2p    -15.746583    2.308399
 16     Tue Apr 24 11:44:34 CEST 2018   EN: 2.580 GM2: 0.340  GM3:-0.0502  RAES: 3.10
     3s    -20.029654    1.981333
     3p    -11.377694    2.025643
     3d     -0.420282    1.702555

           ------------------------------------------------- 
          |        Self-Consistent Charge Iterations        |
           ------------------------------------------------- 

          ...................................................
          :                      SETUP                      :
          :.................................................:
          :  # basis functions                 406          :
          :  # atomic orbitals                 404          :
          :  # shells                          216          :
          :  # electrons                       430          :
          :  max. iterations                   250          :
          :  Hamiltonian                  GFN2-xTB          :
          :  restarted?                      false          :
          :  GBSA solvation                  false          :
          :  PC potential                    false          :
          :  electronic temp.          300.0000000     K    :
          :  accuracy                    1.0000000          :
          :  -> integral cutoff          0.2500000E+02      :
          :  -> integral neglect         0.1000000E-07      :
          :  -> SCF convergence          0.1000000E-05 Eh   :
          :  -> wf. convergence          0.1000000E-03 e    :
          :  Broyden damping             0.4000000          :
          ...................................................

 iter      E             dE          RMSdq      gap      omega  full diag
   1   -242.0281147 -0.242028E+03  0.563E+00    1.19       0.0  T
   2   -242.1015689 -0.734542E-01  0.368E+00    0.52       1.0  T
   3   -241.7952009  0.306368E+00  0.281E+00    0.53       1.0  T
   4   -242.4369404 -0.641740E+00  0.755E-01    0.20       1.0  T
   5   -242.4837705 -0.468301E-01  0.355E-01    0.25       1.0  T
   6   -242.4950345 -0.112640E-01  0.164E-01    0.22       1.0  T
   7   -242.4968747 -0.184023E-02  0.945E-02    0.34       1.0  T
   8   -242.4980598 -0.118510E-02  0.361E-02    0.26       1.0  T
   9   -242.4981771 -0.117278E-03  0.168E-02    0.27       1.0  T
  10   -242.4981758  0.134227E-05  0.128E-02    0.26       1.0  T
  11   -242.4981966 -0.208221E-04  0.596E-03    0.27       1.5  T
  12   -242.4982006 -0.397800E-05  0.214E-03    0.27       4.2  T
  13   -242.4982009 -0.307785E-06  0.110E-03    0.27       8.1  T
  14   -242.4982009 -0.408210E-07  0.628E-04    0.27      14.3  T
  15   -242.4982009 -0.260898E-07  0.327E-04    0.27      27.5  T

   *** convergence criteria satisfied after 15 iterations ***

         #    Occupation            Energy/Eh            Energy/eV
      -------------------------------------------------------------
         1        2.0000           -0.8969406             -24.4070
       ...           ...                  ...                  ...
       209        2.0000           -0.4206842             -11.4474
       210        2.0000           -0.4127847             -11.2324
       211        2.0000           -0.3926631             -10.6849
       212        2.0000           -0.3844489             -10.4614
       213        2.0000           -0.3842086             -10.4548
       214        2.0000           -0.3774515             -10.2710
       215        1.9847           -0.3596826              -9.7875 (HOMO)
       216        0.0090           -0.3499261              -9.5220 (LUMO)
       217        0.0063           -0.3495803              -9.5126
       218        0.0000           -0.3438586              -9.3569
       219        0.0000           -0.3399798              -9.2513
       220                         -0.3367315              -9.1629
       ...                                ...                  ...
       404                          1.0746662              29.2432
      -------------------------------------------------------------
                  HL-Gap            0.0097565 Eh            0.2655 eV
             Fermi-level           -0.3550573 Eh           -9.6616 eV

 SCC (total)                   0 d,  0 h,  0 min,  2.028 sec
 SCC setup                      ...        0 min,  0.003 sec (  0.158%)
 Dispersion                     ...        0 min,  0.005 sec (  0.267%)
 integral evaluation            ...        0 min,  0.084 sec (  4.144%)
 zeroth order Hamiltonian       ...        0 min,  0.002 sec (  0.079%)
 iterations                     ...        0 min,  1.849 sec ( 91.192%)
 molecular gradient             ...        0 min,  0.069 sec (  3.418%)
 printout                       ...        0 min,  0.015 sec (  0.735%)

         :::::::::::::::::::::::::::::::::::::::::::::::::::::
         ::                     SUMMARY                     ::
         :::::::::::::::::::::::::::::::::::::::::::::::::::::
         :: total energy            -238.849824244830 Eh    ::
         :: gradient norm              0.241911767754 Eh/a0 ::
         :: HOMO-LUMO gap              0.265488325826 eV    ::
         ::.................................................::
         :: SCC energy              -242.498200947868 Eh    ::
         :: -> isotropic ES            0.214080255411 Eh    ::
         :: -> anisotropic ES          0.019527285055 Eh    ::
         :: -> anisotropic XC          0.182735605507 Eh    ::
         :: -> dispersion             -0.190839778187 Eh    ::
         :: repulsion energy           3.644099987404 Eh    ::
         :: add. restraining           0.000000000000 Eh    ::
         :::::::::::::::::::::::::::::::::::::::::::::::::::::

      ----------------------------------------------------------- 
     |                   =====================                   |
     |                        A N C O P T                        |
     |                   =====================                   |
     |               Approximate Normal Coordinate               |
     |                Rational Function Optimizer                |
      ----------------------------------------------------------- 

          ...................................................
          :                      SETUP                      :
          :.................................................:
          :   optimization level            normal          :
          :   max. optcycles                   372          :
          :   ANC micro-cycles                  20          :
          :   degrees of freedom               366          :
          :.................................................:
          :   RF solver                   davidson          :
          :   input Hessian                  false          :
          :   write xtbopt.log                true          :
          :   linear?                        false          :
          :   energy convergence         0.5000000E-05 Eh   :
          :   grad. convergence          0.1000000E-02 Eh/α :
          :   maximium RF displ.         2.0000000          :
          :   Hlow (freq-cutoff)         0.5000000E-02      :
          :   Hmax (freq-cutoff)         5.0000000          :
          :   S6 in model hess.         20.0000000          :
          ...................................................

generating ANC from model Hessian ...
Using Lindh-Hessian (1995)
 Shifting diagonal of input Hessian by   5.012788276343240E-003
 Lowest  eigenvalues of input Hessian
    0.005000    0.005012   -0.000000   -0.000000    0.000000    0.000000
    0.000000    0.000000    0.005029    0.005048    0.005059    0.005072
    0.005133    0.005184    0.005241    0.005305    0.005360    0.005397
 Highest eigenvalues
    2.502896    2.504022    2.553066    2.569193    2.571098    2.573026
 

........................................................................
.............................. CYCLE    1 ..............................
........................................................................
   1   -242.4982010 -0.242498E+03  0.165E-04    0.27       0.0  T
   2   -242.4982009  0.237060E-08  0.185E-04    0.27      48.5  T
   3   -242.4982010 -0.499776E-08  0.742E-05    0.27     121.1  T
     SCC iter.                  ...        0 min,  0.302 sec
     gradient                   ...        0 min,  0.073 sec
 * total energy  :  -238.8498241 Eh     change        0.1085352E-06 Eh
   gradient norm :     0.2419123 Eh/α   predicted     0.0000000E+00 (-100.00%)
   displ. norm   :     0.4949920 α      lambda       -0.7078695E-01
   maximum displ.:     0.1024352 α      in ANC's #121, #87, #224, ...

........................................................................
.............................. CYCLE    2 ..............................
........................................................................
   1   -242.7092893 -0.242709E+03  0.298E-01    0.20       0.0  T
   2   -242.7086949  0.594396E-03  0.186E-01    0.28       1.0  T
   3   -242.7026034  0.609147E-02  0.216E-01    0.16       1.0  T
   4   -242.7095225 -0.691914E-02  0.673E-02    0.34       1.0  T
   5   -242.7102354 -0.712831E-03  0.317E-02    0.24       1.0  T
   6   -242.7103116 -0.761982E-04  0.179E-02    0.24       1.0  T
   7   -242.7103269 -0.153294E-04  0.104E-02    0.23       1.0  T
   8   -242.7103431 -0.162297E-04  0.350E-03    0.24       2.6  T
   9   -242.7103442 -0.102224E-05  0.163E-03    0.23       5.5  T
  10   -242.7103444 -0.267291E-06  0.812E-04    0.24      11.1  T
     SCC iter.                  ...        0 min,  0.728 sec
     gradient                   ...        0 min,  0.047 sec
 * total energy  :  -238.8995849 Eh     change       -0.4976079E-01 Eh
   gradient norm :     0.1014332 Eh/α   predicted    -0.4406652E-01 ( -11.44%)
   displ. norm   :     0.5356554 α      lambda       -0.2961271E-01
   maximum displ.:     0.1241176 α      in ANC's #87, #85, #106, ...

........................................................................
.............................. CYCLE    3 ..............................
........................................................................
   1   -242.7813399 -0.242781E+03  0.291E-01    0.13       0.0  T
   2   -242.7798813  0.145864E-02  0.197E-01    0.54       1.0  T
   3   -242.7572479  0.226334E-01  0.297E-01    0.09       1.0  T
   4   -242.7811118 -0.238639E-01  0.117E-01    0.55       1.0  T
   5   -242.7829650 -0.185322E-02  0.677E-02    0.45       1.0  T
   6   -242.7832928 -0.327816E-03  0.537E-02    0.36       1.0  T
   7   -242.7835830 -0.290243E-03  0.381E-02    0.30       1.0  T
   8   -242.7839074 -0.324362E-03  0.148E-02    0.20       1.0  T
   9   -242.7839376 -0.301633E-04  0.614E-03    0.21       1.5  T
  10   -242.7839300  0.753762E-05  0.607E-03    0.20       1.5  T
  11   -242.7839396 -0.956469E-05  0.285E-03    0.21       3.2  T
  12   -242.7839414 -0.178471E-05  0.616E-04    0.20      14.6  T
  13   -242.7839414 -0.170764E-07  0.370E-04    0.20      24.3  T
     SCC iter.                  ...        0 min,  0.779 sec
     gradient                   ...        0 min,  0.036 sec
 * total energy  :  -238.9190749 Eh     change       -0.1948997E-01 Eh
   gradient norm :     0.0323312 Eh/α   predicted    -0.1905470E-01 (  -2.23%)
   displ. norm   :     0.6178154 α      lambda       -0.1049072E-01
   maximum displ.:     0.2107603 α      in ANC's #36, #39, #31, ...

........................................................................
.............................. CYCLE    4 ..............................
........................................................................
   1   -242.8029366 -0.242803E+03  0.255E-01    0.15       0.0  T
   2   -242.8020372  0.899486E-03  0.155E-01    0.36       1.0  T
   3   -242.2490802  0.552957E+00  0.119E+00    0.09       1.0  T
   4   -242.8019115 -0.552831E+00  0.103E-01    0.47       1.0  T
   5   -242.8022981 -0.386607E-03  0.754E-02    0.46       1.0  T
   6   -242.8024899 -0.191801E-03  0.660E-02    0.44       1.0  T
   7   -242.8026419 -0.151972E-03  0.612E-02    0.41       1.0  T
   8   -242.8027312 -0.892367E-04  0.578E-02    0.39       1.0  T
   9   -242.8027919 -0.607626E-04  0.546E-02    0.37       1.0  T
  10   -242.8028820 -0.900617E-04  0.507E-02    0.34       1.0  T
  11   -242.8030375 -0.155501E-03  0.438E-02    0.31       1.0  T
  12   -242.8032032 -0.165721E-03  0.358E-02    0.27       1.0  T
  13   -242.8035773 -0.374113E-03  0.932E-03    0.21       1.0  T
  14   -242.8035964 -0.191036E-04  0.480E-03    0.19       1.9  T
  15   -242.8035703  0.260662E-04  0.101E-02    0.21       1.0  T
  16   -242.8035985 -0.281342E-04  0.409E-03    0.19       2.2  T
  17   -242.8036018 -0.333868E-05  0.271E-03    0.20       3.3  T
  18   -242.8036042 -0.242277E-05  0.513E-04    0.19      17.5  T
     SCC iter.                  ...        0 min,  1.480 sec
     gradient                   ...        0 min,  0.068 sec
 * total energy  :  -238.9252280 Eh     change       -0.6153096E-02 Eh
   gradient norm :     0.0376164 Eh/α   predicted    -0.7247495E-02 (  17.79%)
   displ. norm   :     0.7370978 α      lambda       -0.1176482E-01
   maximum displ.:     0.1861691 α      in ANC's #36, #43, #34, ...

........................................................................
.............................. CYCLE    5 ..............................
........................................................................
   1   -242.8333580 -0.242833E+03  0.335E-01    0.15       0.0  T
   2   -242.8320792  0.127882E-02  0.201E-01    0.37       1.0  T
   3   -242.1467244  0.685355E+00  0.132E+00    0.13       1.0  T
   4   -242.8314637 -0.684739E+00  0.134E-01    0.47       1.0  T
   5   -242.8325227 -0.105899E-02  0.880E-02    0.48       1.0  T
   6   -242.8327747 -0.251998E-03  0.762E-02    0.46       1.0  T
   7   -242.8329918 -0.217049E-03  0.695E-02    0.42       1.0  T
   8   -242.8331201 -0.128268E-03  0.656E-02    0.40       1.0  T
   9   -242.8332039 -0.838186E-04  0.614E-02    0.37       1.0  T
  10   -242.8333546 -0.150757E-03  0.558E-02    0.34       1.0  T
  11   -242.8336230 -0.268375E-03  0.453E-02    0.28       1.0  T
  12   -242.8339799 -0.356866E-03  0.289E-02    0.23       1.0  T
  13   -242.8342422 -0.262324E-03  0.719E-03    0.19       1.2  T
  14   -242.8342493 -0.708339E-05  0.495E-03    0.18       1.8  T
  15   -242.8342239  0.253303E-04  0.986E-03    0.20       1.0  T
  16   -242.8342493 -0.253986E-04  0.472E-03    0.18       1.9  T
  17   -242.8342568 -0.743551E-05  0.134E-03    0.19       6.7  T
  18   -242.8342574 -0.580972E-06  0.416E-04    0.18      21.6  T
  19   -242.8342574 -0.548504E-07  0.107E-04    0.18      84.1  T
     SCC iter.                  ...        0 min,  1.488 sec
     gradient                   ...        0 min,  0.040 sec
 * total energy  :  -238.9287499 Eh     change       -0.3521919E-02 Eh
   gradient norm :     0.0366381 Eh/α   predicted    -0.9078414E-02 ( 157.77%)
   displ. norm   :     0.4596095 α      lambda       -0.6204225E-02
   maximum displ.:     0.1270614 α      in ANC's #39, #36, #27, ...

........................................................................
.............................. CYCLE    6 ..............................
........................................................................
   1   -242.8320614 -0.242832E+03  0.169E-01    0.19       0.0  T
   2   -242.8320659 -0.452595E-05  0.951E-02    0.17       1.0  T
   3   -242.8309582  0.110777E-02  0.737E-02    0.26       1.0  T
   4   -242.8319814 -0.102321E-02  0.241E-02    0.17       1.0  T
   5   -242.8320337 -0.523463E-04  0.181E-02    0.20       1.0  T
   6   -242.8321313 -0.975954E-04  0.670E-03    0.18       1.3  T
   7   -242.8321330 -0.169714E-05  0.379E-03    0.18       2.4  T
   8   -242.8321371 -0.411661E-05  0.175E-03    0.18       5.1  T
     SCC iter.                  ...        0 min,  0.584 sec
     gradient                   ...        0 min,  0.062 sec
 * total energy  :  -238.9332423 Eh     change       -0.4492390E-02 Eh
   gradient norm :     0.0311735 Eh/α   predicted    -0.3757416E-02 ( -16.36%)
   displ. norm   :     0.6891858 α      lambda       -0.7352283E-02
   maximum displ.:     0.2502179 α      in ANC's #36, #39, #27, ...

........................................................................
.............................. CYCLE    7 ..............................
........................................................................
   1   -242.8151651 -0.242815E+03  0.291E-01    0.20       0.0  T
   2   -242.8146900  0.475119E-03  0.167E-01    0.15       1.0  T
   3   -242.8085396  0.615037E-02  0.180E-01    0.54       1.0  T
   4   -242.8144726 -0.593296E-02  0.619E-02    0.34       1.0  T
   5   -242.8150668 -0.594224E-03  0.359E-02    0.25       1.0  T
   6   -242.8153621 -0.295344E-03  0.192E-02    0.20       1.0  T
   7   -242.8154099 -0.478234E-04  0.935E-03    0.19       1.0  T
   8   -242.8153988  0.111075E-04  0.827E-03    0.18       1.1  T
   9   -242.8154117 -0.129096E-04  0.479E-03    0.19       1.9  T
  10   -242.8154163 -0.453291E-05  0.297E-03    0.18       3.0  T
  11   -242.8154191 -0.286595E-05  0.109E-03    0.19       8.2  T
     SCC iter.                  ...        0 min,  0.917 sec
     gradient                   ...        0 min,  0.099 sec
 * total energy  :  -238.9352940 Eh     change       -0.2051724E-02 Eh
   gradient norm :     0.0386393 Eh/α   predicted    -0.5422226E-02 ( 164.28%)
   displ. norm   :     0.4971798 α      lambda       -0.6451243E-02
   maximum displ.:     0.1540655 α      in ANC's #14, #21, #40, ...

........................................................................
.............................. CYCLE    8 ..............................
........................................................................
   1   -242.8310092 -0.242831E+03  0.203E-01    0.17       0.0  T
   2   -242.8307187  0.290501E-03  0.118E-01    0.23       1.0  T
   3   -242.3161630  0.514556E+00  0.111E+00    0.08       1.0  T
   4   -242.8303987 -0.514236E+00  0.596E-02    0.28       1.0  T
   5   -242.8305656 -0.166915E-03  0.436E-02    0.27       1.0  T
   6   -242.8306712 -0.105511E-03  0.381E-02    0.26       1.0  T
   7   -242.8307617 -0.905382E-04  0.342E-02    0.25       1.0  T
   8   -242.8308323 -0.706112E-04  0.309E-02    0.24       1.0  T
   9   -242.8308979 -0.656324E-04  0.275E-02    0.23       1.0  T
  10   -242.8309724 -0.744402E-04  0.233E-02    0.22       1.0  T
  11   -242.8310676 -0.952520E-04  0.165E-02    0.21       1.0  T
  12   -242.8311368 -0.691740E-04  0.881E-03    0.20       1.0  T
  13   -242.8311625 -0.257020E-04  0.291E-03    0.19       3.1  T
  14   -242.8311652 -0.270312E-05  0.917E-04    0.18       9.8  T
  15   -242.8311655 -0.262222E-06  0.305E-04    0.18      29.4  T
     SCC iter.                  ...        0 min,  0.758 sec
     gradient                   ...        0 min,  0.047 sec
 * total energy  :  -238.9392112 Eh     change       -0.3917147E-02 Eh
   gradient norm :     0.0368476 Eh/α   predicted    -0.4022964E-02 (   2.70%)
   displ. norm   :     0.6031794 α      lambda       -0.4574263E-02
   maximum displ.:     0.1803700 α      in ANC's #14, #21, #16, ...

........................................................................
.............................. CYCLE    9 ..............................
........................................................................
   1   -242.8347985 -0.242835E+03  0.203E-01    0.14       0.0  T
   2   -242.8331251  0.167344E-02  0.142E-01    0.37       1.0  T
   3   -242.4839488  0.349176E+00  0.928E-01    0.04       1.0  T
   4   -242.8333516 -0.349403E+00  0.116E-01    0.43       1.0  T
   5   -242.8336726 -0.320999E-03  0.857E-02    0.44       1.0  T
   6   -242.8338687 -0.196080E-03  0.777E-02    0.43       1.0  T
   7   -242.8340732 -0.204529E-03  0.730E-02    0.41       1.0  T
   8   -242.8341762 -0.102903E-03  0.694E-02    0.39       1.0  T
   9   -242.8342662 -0.900487E-04  0.659E-02    0.37       1.0  T
  10   -242.8343740 -0.107759E-03  0.622E-02    0.34       1.0  T
  11   -242.8346656 -0.291593E-03  0.521E-02    0.29       1.0  T
  12   -242.8350389 -0.373336E-03  0.382E-02    0.24       1.0  T
  13   -242.8355094 -0.470559E-03  0.925E-03    0.19       1.0  T
  14   -242.8355238 -0.143248E-04  0.656E-03    0.18       1.4  T
  15   -242.8355343 -0.105126E-04  0.364E-03    0.17       2.5  T
  16   -242.8355204  0.138790E-04  0.718E-03    0.19       1.3  T
  17   -242.8355377 -0.173140E-04  0.192E-03    0.17       4.7  T
  18   -242.8355389 -0.115084E-05  0.708E-04    0.18      12.7  T
  19   -242.8355389 -0.791907E-07  0.543E-04    0.18      16.6  T
     SCC iter.                  ...        0 min,  1.596 sec
     gradient                   ...        0 min,  0.068 sec
 * total energy  :  -238.9420721 Eh     change       -0.2860932E-02 Eh
   gradient norm :     0.0280982 Eh/α   predicted    -0.3119249E-02 (   9.03%)
   displ. norm   :     0.7030316 α      lambda       -0.3932193E-02
   maximum displ.:     0.2173690 α      in ANC's #14, #21, #29, ...

........................................................................
.............................. CYCLE   10 ..............................
........................................................................
   1   -242.8448783 -0.242845E+03  0.179E-01    0.16       0.0  T
   2   -242.8441197  0.758667E-03  0.112E-01    0.25       1.0  T
   3   -242.2638357  0.580284E+00  0.119E+00    0.09       1.0  T
   4   -242.8438081 -0.579972E+00  0.708E-02    0.31       1.0  T
   5   -242.8438994 -0.913429E-04  0.611E-02    0.30       1.0  T
   6   -242.8440772 -0.177806E-03  0.546E-02    0.29       1.0  T
   7   -242.8442128 -0.135575E-03  0.501E-02    0.27       1.0  T
   8   -242.8443471 -0.134264E-03  0.456E-02    0.26       1.0  T
   9   -242.8444514 -0.104377E-03  0.417E-02    0.24       1.0  T
  10   -242.8446646 -0.213130E-03  0.334E-02    0.22       1.0  T
  11   -242.8449075 -0.242921E-03  0.205E-02    0.20       1.0  T
  12   -242.8450352 -0.127701E-03  0.845E-03    0.18       1.1  T
  13   -242.8450600 -0.248349E-04  0.212E-03    0.18       4.2  T
  14   -242.8450612 -0.120763E-05  0.954E-04    0.17       9.4  T
  15   -242.8450615 -0.229966E-06  0.433E-04    0.17      20.7  T
     SCC iter.                  ...        0 min,  1.213 sec
     gradient                   ...        0 min,  0.064 sec
 * total energy  :  -238.9454554 Eh     change       -0.3383279E-02 Eh
   gradient norm :     0.0267842 Eh/α   predicted    -0.2937846E-02 ( -13.17%)
   displ. norm   :     0.8080651 α      lambda       -0.4608355E-02
   maximum displ.:     0.2509158 α      in ANC's #14, #18, #21, ...

........................................................................
.............................. CYCLE   11 ..............................
........................................................................
   1   -242.8491042 -0.242849E+03  0.218E-01    0.16       0.0  T
   2   -242.8488026  0.301564E-03  0.125E-01    0.22       1.0  T
   3   -242.2931187  0.555684E+00  0.116E+00    0.09       1.0  T
   4   -242.8482546 -0.555136E+00  0.627E-02    0.26       1.0  T
   5   -242.8485784 -0.323778E-03  0.466E-02    0.24       1.0  T
   6   -242.8487285 -0.150046E-03  0.393E-02    0.23       1.0  T
   7   -242.8488513 -0.122805E-03  0.331E-02    0.22       1.0  T
   8   -242.8489616 -0.110373E-03  0.279E-02    0.21       1.0  T
   9   -242.8490230 -0.613254E-04  0.244E-02    0.20       1.0  T
  10   -242.8491106 -0.876020E-04  0.188E-02    0.20       1.0  T
  11   -242.8491878 -0.772226E-04  0.120E-02    0.19       1.0  T
  12   -242.8492209 -0.330666E-04  0.728E-03    0.18       1.2  T
  13   -242.8492383 -0.174936E-04  0.247E-03    0.18       3.6  T
  14   -242.8492406 -0.222448E-05  0.187E-04    0.17      47.9  T
  15   -242.8492406  0.180782E-07  0.255E-04    0.17      35.3  T
     SCC iter.                  ...        0 min,  1.089 sec
     gradient                   ...        0 min,  0.074 sec
 * total energy  :  -238.9492325 Eh     change       -0.3777087E-02 Eh
   gradient norm :     0.0204947 Eh/α   predicted    -0.3808734E-02 (   0.84%)
   displ. norm   :     0.8526016 α      lambda       -0.4155341E-02
   maximum displ.:     0.2665368 α      in ANC's #14, #18, #21, ...

........................................................................
.............................. CYCLE   12 ..............................
........................................................................
   1   -242.8474662 -0.242847E+03  0.236E-01    0.15       0.0  T
   2   -242.8460215  0.144473E-02  0.150E-01    0.30       1.0  T
   3   -242.2070393  0.638982E+00  0.124E+00    0.09       1.0  T
   4   -242.8455669 -0.638528E+00  0.115E-01    0.38       1.0  T
   5   -242.8462151 -0.648216E-03  0.778E-02    0.37       1.0  T
   6   -242.8464023 -0.187276E-03  0.689E-02    0.35       1.0  T
   7   -242.8466533 -0.250997E-03  0.630E-02    0.32       1.0  T
   8   -242.8467568 -0.103448E-03  0.590E-02    0.30       1.0  T
   9   -242.8468964 -0.139561E-03  0.544E-02    0.28       1.0  T
  10   -242.8471059 -0.209535E-03  0.477E-02    0.26       1.0  T
  11   -242.8474836 -0.377720E-03  0.336E-02    0.22       1.0  T
  12   -242.8478296 -0.345950E-03  0.126E-02    0.19       1.0  T
  13   -242.8478733 -0.436941E-04  0.615E-03    0.18       1.5  T
  14   -242.8478866 -0.133386E-04  0.786E-04    0.17      11.4  T
  15   -242.8478866 -0.290172E-07  0.450E-04    0.17      19.9  T
  16   -242.8478866 -0.217390E-07  0.250E-04    0.17      35.9  T
     SCC iter.                  ...        0 min,  1.331 sec
     gradient                   ...        0 min,  0.069 sec
 * total energy  :  -238.9527217 Eh     change       -0.3489230E-02 Eh
   gradient norm :     0.0311115 Eh/α   predicted    -0.3587996E-02 (   2.83%)
   displ. norm   :     0.8405500 α      lambda       -0.4255879E-02
   maximum displ.:     0.2833332 α      in ANC's #18, #14, #29, ...

........................................................................
.............................. CYCLE   13 ..............................
........................................................................
   1   -242.8526785 -0.242853E+03  0.220E-01    0.14       0.0  T
   2   -242.8509851  0.169340E-02  0.146E-01    0.32       1.0  T
   3   -242.2754443  0.575541E+00  0.118E+00    0.09       1.0  T
   4   -242.8506075 -0.575163E+00  0.122E-01    0.41       1.0  T
   5   -242.8513054 -0.697943E-03  0.848E-02    0.40       1.0  T
   6   -242.8515363 -0.230868E-03  0.749E-02    0.39       1.0  T
   7   -242.8517739 -0.237554E-03  0.693E-02    0.36       1.0  T
   8   -242.8518693 -0.954311E-04  0.657E-02    0.33       1.0  T
   9   -242.8519869 -0.117626E-03  0.618E-02    0.31       1.0  T
  10   -242.8521675 -0.180623E-03  0.562E-02    0.29       1.0  T
  11   -242.8524984 -0.330892E-03  0.454E-02    0.25       1.0  T
  12   -242.8529888 -0.490391E-03  0.248E-02    0.20       1.0  T
  13   -242.8531868 -0.197931E-03  0.852E-03    0.18       1.1  T
  14   -242.8532083 -0.215327E-04  0.343E-03    0.17       2.6  T
  15   -242.8532119 -0.363513E-05  0.126E-03    0.17       7.1  T
  16   -242.8532101  0.177095E-05  0.248E-03    0.17       3.6  T
     SCC iter.                  ...        0 min,  1.265 sec
     gradient                   ...        0 min,  0.061 sec
 * total energy  :  -238.9564956 Eh     change       -0.3773938E-02 Eh
   gradient norm :     0.0217785 Eh/α   predicted    -0.3631386E-02 (  -3.78%)
   displ. norm   :     0.8492411 α      lambda       -0.4509940E-02
   maximum displ.:     0.3075977 α      in ANC's #18, #14, #29, ...

........................................................................
.............................. CYCLE   14 ..............................
........................................................................
   1   -242.8526942 -0.242853E+03  0.245E-01    0.14       0.0  T
   2   -242.8508239  0.187031E-02  0.160E-01    0.34       1.0  T
   3   -242.2425820  0.608242E+00  0.122E+00    0.09       1.0  T
   4   -242.8507689 -0.608187E+00  0.129E-01    0.43       1.0  T
   5   -242.8513102 -0.541277E-03  0.901E-02    0.42       1.0  T
   6   -242.8516482 -0.338038E-03  0.775E-02    0.41       1.0  T
   7   -242.8518992 -0.251003E-03  0.723E-02    0.37       1.0  T
   8   -242.8520031 -0.103840E-03  0.683E-02    0.35       1.0  T
   9   -242.8521091 -0.106057E-03  0.643E-02    0.33       1.0  T
  10   -242.8523035 -0.194422E-03  0.586E-02    0.30       1.0  T
  11   -242.8525837 -0.280141E-03  0.492E-02    0.26       1.0  T
  12   -242.8531371 -0.553470E-03  0.274E-02    0.21       1.0  T
  13   -242.8533673 -0.230159E-03  0.981E-03    0.18       1.0  T
  14   -242.8533710 -0.373424E-05  0.915E-03    0.18       1.0  T
  15   -242.8533959 -0.248166E-04  0.386E-03    0.17       2.3  T
  16   -242.8533948  0.102100E-05  0.419E-03    0.18       2.1  T
  17   -242.8534010 -0.618558E-05  0.776E-04    0.17      11.6  T
  18   -242.8534012 -0.205669E-06  0.684E-05    0.17     131.2  T
     SCC iter.                  ...        0 min,  1.234 sec
     gradient                   ...        0 min,  0.058 sec
 * total energy  :  -238.9599233 Eh     change       -0.3427707E-02 Eh
   gradient norm :     0.0458079 Eh/α   predicted    -0.3881282E-02 (  13.23%)
   displ. norm   :     0.7888061 α      lambda       -0.4882612E-02
   maximum displ.:     0.2982613 α      in ANC's #18, #29, #14, ...

........................................................................
.............................. CYCLE   15 ..............................
........................................................................
   1   -242.8705143 -0.242871E+03  0.227E-01    0.16       0.0  T
   2   -242.8693799  0.113437E-02  0.140E-01    0.28       1.0  T
   3   -242.2799572  0.589423E+00  0.121E+00    0.10       1.0  T
   4   -242.8686142 -0.588657E+00  0.116E-01    0.34       1.0  T
   5   -242.8695002 -0.886082E-03  0.747E-02    0.33       1.0  T
   6   -242.8697846 -0.284404E-03  0.612E-02    0.32       1.0  T
   7   -242.8699695 -0.184879E-03  0.553E-02    0.30       1.0  T
   8   -242.8700972 -0.127685E-03  0.507E-02    0.28       1.0  T
   9   -242.8702189 -0.121734E-03  0.464E-02    0.26       1.0  T
  10   -242.8703877 -0.168752E-03  0.401E-02    0.24       1.0  T
  11   -242.8706380 -0.250354E-03  0.292E-02    0.22       1.0  T
  12   -242.8708699 -0.231870E-03  0.136E-02    0.19       1.0  T
  13   -242.8709312 -0.612622E-04  0.363E-03    0.18       2.5  T
  14   -242.8709355 -0.429271E-05  0.620E-04    0.18      14.5  T
  15   -242.8709352  0.250511E-06  0.944E-04    0.18       9.5  T
     SCC iter.                  ...        0 min,  1.088 sec
     gradient                   ...        0 min,  0.048 sec
 * total energy  :  -238.9634247 Eh     change       -0.3501410E-02 Eh
   gradient norm :     0.0413661 Eh/α   predicted    -0.3960323E-02 (  13.11%)
   displ. norm   :     0.7901052 α      lambda       -0.4785748E-02
   maximum displ.:     0.3015108 α      in ANC's #18, #14, #29, ...

........................................................................
.............................. CYCLE   16 ..............................
........................................................................
   1   -242.8538705 -0.242854E+03  0.246E-01    0.17       0.0  T
   2   -242.8526670  0.120354E-02  0.153E-01    0.29       1.0  T
   3   -242.3071607  0.545506E+00  0.115E+00    0.07       1.0  T
   4   -242.8501021 -0.542941E+00  0.158E-01    0.38       1.0  T
   5   -242.8531795 -0.307747E-02  0.692E-02    0.35       1.0  T
   6   -242.8532907 -0.111155E-03  0.589E-02    0.34       1.0  T
   7   -242.8534614 -0.170670E-03  0.532E-02    0.32       1.0  T
   8   -242.8535840 -0.122651E-03  0.486E-02    0.30       1.0  T
   9   -242.8536868 -0.102772E-03  0.445E-02    0.28       1.0  T
  10   -242.8538202 -0.133398E-03  0.394E-02    0.26       1.0  T
  11   -242.8540379 -0.217678E-03  0.296E-02    0.23       1.0  T
  12   -242.8542338 -0.195947E-03  0.177E-02    0.21       1.0  T
  13   -242.8543414 -0.107561E-03  0.394E-03    0.19       2.3  T
  14   -242.8543459 -0.452419E-05  0.123E-03    0.18       7.3  T
  15   -242.8543463 -0.426798E-06  0.395E-04    0.18      22.7  T
     SCC iter.                  ...        0 min,  1.288 sec
     gradient                   ...        0 min,  0.067 sec
 * total energy  :  -238.9667052 Eh     change       -0.3280446E-02 Eh
   gradient norm :     0.0358349 Eh/α   predicted    -0.3886662E-02 (  18.48%)
   displ. norm   :     0.7620408 α      lambda       -0.4269572E-02
   maximum displ.:     0.3063225 α      in ANC's #18, #14, #29, ...

........................................................................
.............................. CYCLE   17 ..............................
........................................................................
   1   -242.8601888 -0.242860E+03  0.219E-01    0.17       0.0  T
   2   -242.8594202  0.768550E-03  0.128E-01    0.29       1.0  T
   3   -242.3918767  0.467543E+00  0.107E+00    0.05       1.0  T
   4   -242.8590956 -0.467219E+00  0.989E-02    0.33       1.0  T
   5   -242.8595837 -0.488122E-03  0.619E-02    0.32       1.0  T
   6   -242.8598407 -0.256965E-03  0.502E-02    0.32       1.0  T
   7   -242.8599965 -0.155880E-03  0.452E-02    0.29       1.0  T
   8   -242.8600803 -0.837271E-04  0.406E-02    0.28       1.0  T
   9   -242.8601527 -0.724842E-04  0.371E-02    0.27       1.0  T
  10   -242.8602545 -0.101744E-03  0.327E-02    0.26       1.0  T
  11   -242.8603614 -0.106910E-03  0.267E-02    0.24       1.0  T
  12   -242.8605196 -0.158209E-03  0.158E-02    0.22       1.0  T
  13   -242.8605948 -0.751718E-04  0.562E-03    0.20       1.6  T
  14   -242.8606055 -0.106737E-04  0.584E-04    0.19      15.4  T
  15   -242.8606050  0.411715E-06  0.121E-03    0.20       7.4  T
  16   -242.8606055 -0.467599E-06  0.166E-04    0.19      54.0  T
     SCC iter.                  ...        0 min,  0.880 sec
     gradient                   ...        0 min,  0.048 sec
 * total energy  :  -238.9700327 Eh     change       -0.3327477E-02 Eh
   gradient norm :     0.0275577 Eh/α   predicted    -0.3374470E-02 (   1.41%)
   displ. norm   :     0.7858158 α      lambda       -0.4369935E-02
   maximum displ.:     0.3425203 α      in ANC's #18, #14, #6, ...

........................................................................
.............................. CYCLE   18 ..............................
........................................................................
   1   -242.8512151 -0.242851E+03  0.228E-01    0.16       0.0  T
   2   -242.8486494  0.256573E-02  0.168E-01    0.43       1.0  T
   3   -242.7777912  0.708582E-01  0.448E-01    0.06       1.0  T
   4   -242.8498915 -0.721003E-01  0.122E-01    0.53       1.0  T
   5   -242.8508990 -0.100749E-02  0.827E-02    0.46       1.0  T
   6   -242.8511797 -0.280666E-03  0.703E-02    0.42       1.0  T
   7   -242.8515628 -0.383097E-03  0.613E-02    0.37       1.0  T
   8   -242.8517767 -0.213896E-03  0.525E-02    0.33       1.0  T
   9   -242.8520885 -0.311779E-03  0.388E-02    0.28       1.0  T
  10   -242.8525003 -0.411859E-03  0.132E-02    0.22       1.0  T
  11   -242.8525379 -0.375566E-04  0.443E-03    0.20       2.0  T
  12   -242.8525426 -0.475651E-05  0.232E-03    0.20       3.9  T
  13   -242.8525424  0.242622E-06  0.216E-03    0.20       4.2  T
     SCC iter.                  ...        0 min,  0.899 sec
     gradient                   ...        0 min,  0.033 sec
 * total energy  :  -238.9721771 Eh     change       -0.2144416E-02 Eh
   gradient norm :     0.0500989 Eh/α   predicted    -0.3534200E-02 (  64.81%)
   displ. norm   :     0.6133771 α      lambda       -0.5291256E-02
   maximum displ.:     0.2604013 α      in ANC's #18, #10, #6, ...

........................................................................
.............................. CYCLE   19 ..............................
........................................................................
   1   -242.8772939 -0.242877E+03  0.179E-01    0.19       0.0  T
   2   -242.8770323  0.261675E-03  0.102E-01    0.26       1.0  T
   3   -242.7309977  0.146035E+00  0.617E-01    0.04       1.0  T
   4   -242.8765815 -0.145584E+00  0.773E-02    0.28       1.0  T
   5   -242.8770608 -0.479287E-03  0.426E-02    0.28       1.0  T
   6   -242.8771511 -0.903240E-04  0.375E-02    0.27       1.0  T
   7   -242.8773451 -0.193972E-03  0.280E-02    0.25       1.0  T
   8   -242.8773815 -0.364191E-04  0.244E-02    0.24       1.0  T
   9   -242.8774427 -0.611985E-04  0.199E-02    0.24       1.0  T
  10   -242.8774925 -0.497951E-04  0.153E-02    0.23       1.0  T
  11   -242.8775300 -0.375218E-04  0.103E-02    0.22       1.0  T
  12   -242.8775559 -0.258547E-04  0.509E-03    0.21       1.8  T
  13   -242.8775628 -0.687846E-05  0.182E-03    0.21       4.9  T
  14   -242.8775638 -0.977738E-06  0.466E-04    0.20      19.3  T
  15   -242.8775638 -0.503609E-07  0.175E-04    0.20      51.3  T
     SCC iter.                  ...        0 min,  0.937 sec
     gradient                   ...        0 min,  0.067 sec
 * total energy  :  -238.9748937 Eh     change       -0.2716648E-02 Eh
   gradient norm :     0.0365253 Eh/α   predicted    -0.3640998E-02 (  34.03%)
   displ. norm   :     0.6734195 α      lambda       -0.4689189E-02
   maximum displ.:     0.2626238 α      in ANC's #18, #14, #6, ...

........................................................................
.............................. CYCLE   20 ..............................
........................................................................
   1   -242.8667021 -0.242867E+03  0.200E-01    0.18       0.0  T
   2   -242.8657237  0.978388E-03  0.130E-01    0.30       1.0  T
   3   -242.7717128  0.940110E-01  0.513E-01    0.06       1.0  T
   4   -242.8652360 -0.935232E-01  0.109E-01    0.38       1.0  T
   5   -242.8662488 -0.101278E-02  0.642E-02    0.33       1.0  T
   6   -242.8665068 -0.258006E-03  0.505E-02    0.32       1.0  T
   7   -242.8667328 -0.225988E-03  0.430E-02    0.29       1.0  T
   8   -242.8668586 -0.125876E-03  0.364E-02    0.28       1.0  T
   9   -242.8670203 -0.161642E-03  0.274E-02    0.25       1.0  T
  10   -242.8671559 -0.135639E-03  0.171E-02    0.23       1.0  T
  11   -242.8672343 -0.783709E-04  0.491E-03    0.21       1.8  T
  12   -242.8672410 -0.671302E-05  0.897E-04    0.21      10.0  T
  13   -242.8672410 -0.213702E-07  0.546E-04    0.21      16.4  T
  14   -242.8672410  0.279641E-08  0.455E-04    0.21      19.7  T
     SCC iter.                  ...        0 min,  1.091 sec
     gradient                   ...        0 min,  0.062 sec
 * total energy  :  -238.9769086 Eh     change       -0.2014843E-02 Eh
   gradient norm :     0.0444259 Eh/α   predicted    -0.3407859E-02 (  69.14%)
   displ. norm   :     0.5636546 α      lambda       -0.4246555E-02
   maximum displ.:     0.2385572 α      in ANC's #18, #6, #14, ...
 * RMSD in coord.:     1.0071690 α      energy gain  -0.1270843E+00 Eh

generating ANC from model Hessian ...
Using Lindh-Hessian (1995)
 Shifting diagonal of input Hessian by   5.062667807330301E-003
 Lowest  eigenvalues of input Hessian
    0.005000    0.005028   -0.000000   -0.000000   -0.000000    0.000000
    0.000000    0.000000    0.005071    0.005085    0.005095    0.005150
    0.005192    0.005253    0.005278    0.005379    0.005402    0.005449
 Highest eigenvalues
    2.604585    2.616295    2.638939    2.640438    2.645949    2.665781
 

........................................................................
.............................. CYCLE   21 ..............................
........................................................................
   1   -242.8706324 -0.242871E+03  0.161E-01    0.18       0.0  T
   2   -242.8691448  0.148758E-02  0.119E-01    0.32       1.0  T
   3   -242.8349373  0.342076E-01  0.321E-01    0.08       1.0  T
   4   -242.8697223 -0.347850E-01  0.895E-02    0.37       1.0  T
   5   -242.8703601 -0.637781E-03  0.549E-02    0.32       1.0  T
   6   -242.8706165 -0.256365E-03  0.441E-02    0.30       1.0  T
   7   -242.8708505 -0.234065E-03  0.353E-02    0.27       1.0  T
   8   -242.8709998 -0.149245E-03  0.251E-02    0.25       1.0  T
   9   -242.8711311 -0.131320E-03  0.128E-02    0.22       1.0  T
  10   -242.8711726 -0.415305E-04  0.450E-03    0.21       2.0  T
  11   -242.8711764 -0.380090E-05  0.105E-03    0.21       8.6  T
  12   -242.8711766 -0.134884E-06  0.439E-04    0.21      20.5  T
  13   -242.8711766 -0.292161E-07  0.254E-04    0.21      35.3  T
     SCC iter.                  ...        0 min,  0.746 sec
     gradient                   ...        0 min,  0.040 sec
 * total energy  :  -238.9791954 Eh     change       -0.2286823E-02 Eh
   gradient norm :     0.0348618 Eh/α   predicted     0.0000000E+00 (-100.00%)
   displ. norm   :     0.4279727 α      lambda       -0.2937347E-02
   maximum displ.:     0.1638727 α      in ANC's #8, #12, #13, ...

........................................................................
.............................. CYCLE   22 ..............................
........................................................................
   1   -242.8702396 -0.242870E+03  0.143E-01    0.19       0.0  T
   2   -242.8698424  0.397121E-03  0.883E-02    0.26       1.0  T
   3   -242.7729397  0.969028E-01  0.517E-01    0.06       1.0  T
   4   -242.8696840 -0.967443E-01  0.636E-02    0.28       1.0  T
   5   -242.8699106 -0.226645E-03  0.409E-02    0.27       1.0  T
   6   -242.8700478 -0.137127E-03  0.333E-02    0.26       1.0  T
   7   -242.8701723 -0.124567E-03  0.275E-02    0.25       1.0  T
   8   -242.8702404 -0.680099E-04  0.223E-02    0.24       1.0  T
   9   -242.8702991 -0.587218E-04  0.170E-02    0.23       1.0  T
  10   -242.8703508 -0.517215E-04  0.110E-02    0.22       1.0  T
  11   -242.8703804 -0.296098E-04  0.431E-03    0.21       2.1  T
  12   -242.8703848 -0.441072E-05  0.199E-03    0.21       4.5  T
  13   -242.8703858 -0.102119E-05  0.557E-04    0.21      16.1  T
     SCC iter.                  ...        0 min,  0.970 sec
     gradient                   ...        0 min,  0.048 sec
 * total energy  :  -238.9812013 Eh     change       -0.2005895E-02 Eh
   gradient norm :     0.0135308 Eh/α   predicted    -0.1737679E-02 ( -13.37%)
   displ. norm   :     0.5183557 α      lambda       -0.3054848E-02
   maximum displ.:     0.1752786 α      in ANC's #12, #15, #38, ...

........................................................................
.............................. CYCLE   23 ..............................
........................................................................
   1   -242.8704042 -0.242870E+03  0.211E-01    0.19       0.0  T
   2   -242.8701086  0.295685E-03  0.123E-01    0.25       1.0  T
   3   -242.6438423  0.226266E+00  0.790E-01    0.07       1.0  T
   4   -242.8697355 -0.225893E+00  0.681E-02    0.29       1.0  T
   5   -242.8700321 -0.296523E-03  0.447E-02    0.28       1.0  T
   6   -242.8702391 -0.207025E-03  0.368E-02    0.27       1.0  T
   7   -242.8703358 -0.966636E-04  0.320E-02    0.25       1.0  T
   8   -242.8704095 -0.736967E-04  0.273E-02    0.24       1.0  T
   9   -242.8704749 -0.654958E-04  0.227E-02    0.24       1.0  T
  10   -242.8705394 -0.644977E-04  0.174E-02    0.23       1.0  T
  11   -242.8706001 -0.606699E-04  0.995E-03    0.22       1.0  T
  12   -242.8706215 -0.213429E-04  0.522E-03    0.21       1.7  T
  13   -242.8706285 -0.701710E-05  0.200E-03    0.21       4.5  T
  14   -242.8706297 -0.119338E-05  0.271E-04    0.20      33.1  T
  15   -242.8706297 -0.125844E-07  0.974E-05    0.20      92.2  T
     SCC iter.                  ...        0 min,  1.049 sec
     gradient                   ...        0 min,  0.047 sec
 * total energy  :  -238.9817271 Eh     change       -0.5258397E-03 Eh
   gradient norm :     0.0403046 Eh/α   predicted    -0.1937848E-02 ( 268.52%)
   displ. norm   :     0.3666740 α      lambda       -0.3358630E-02
   maximum displ.:     0.1472384 α      in ANC's #8, #12, #13, ...

........................................................................
.............................. CYCLE   24 ..............................
........................................................................
   1   -242.8770836 -0.242877E+03  0.159E-01    0.19       0.0  T
   2   -242.8768496  0.233997E-03  0.933E-02    0.24       1.0  T
   3   -242.7633182  0.113531E+00  0.560E-01    0.06       1.0  T
   4   -242.8765786 -0.113260E+00  0.569E-02    0.26       1.0  T
   5   -242.8768523 -0.273740E-03  0.335E-02    0.25       1.0  T
   6   -242.8769814 -0.129143E-03  0.273E-02    0.24       1.0  T
   7   -242.8770619 -0.804939E-04  0.221E-02    0.23       1.0  T
   8   -242.8771115 -0.495461E-04  0.177E-02    0.23       1.0  T
   9   -242.8771596 -0.481223E-04  0.125E-02    0.22       1.0  T
  10   -242.8771819 -0.222962E-04  0.909E-03    0.21       1.0  T
  11   -242.8772005 -0.186105E-04  0.444E-03    0.21       2.0  T
  12   -242.8772050 -0.451767E-05  0.219E-03    0.21       4.1  T
  13   -242.8772062 -0.116097E-05  0.910E-04    0.20       9.9  T
     SCC iter.                  ...        0 min,  1.025 sec
     gradient                   ...        0 min,  0.039 sec
 * total energy  :  -238.9836027 Eh     change       -0.1875582E-02 Eh
   gradient norm :     0.0254630 Eh/α   predicted    -0.1905105E-02 (   1.57%)
   displ. norm   :     0.5019245 α      lambda       -0.3509431E-02
   maximum displ.:     0.1640697 α      in ANC's #8, #12, #13, ...

........................................................................
.............................. CYCLE   25 ..............................
........................................................................
   1   -242.8674718 -0.242867E+03  0.255E-01    0.18       0.0  T
   2   -242.8664434  0.102833E-02  0.155E-01    0.29       1.0  T
   3   -242.4798594  0.386584E+00  0.104E+00    0.12       1.0  T
   4   -242.8652766 -0.385417E+00  0.128E-01    0.34       1.0  T
   5   -242.8667709 -0.149426E-02  0.635E-02    0.32       1.0  T
   6   -242.8669945 -0.223666E-03  0.551E-02    0.31       1.0  T
   7   -242.8671831 -0.188572E-03  0.497E-02    0.29       1.0  T
   8   -242.8673045 -0.121364E-03  0.446E-02    0.28       1.0  T
   9   -242.8674324 -0.127903E-03  0.389E-02    0.26       1.0  T
  10   -242.8675894 -0.157093E-03  0.312E-02    0.25       1.0  T
  11   -242.8677753 -0.185821E-03  0.178E-02    0.23       1.0  T
  12   -242.8678497 -0.744342E-04  0.841E-03    0.21       1.1  T
  13   -242.8678678 -0.180907E-04  0.256E-03    0.21       3.5  T
  14   -242.8678695 -0.174285E-05  0.776E-04    0.20      11.6  T
  15   -242.8678697 -0.132803E-06  0.173E-04    0.20      52.0  T
     SCC iter.                  ...        0 min,  0.970 sec
     gradient                   ...        0 min,  0.037 sec
 * total energy  :  -238.9838782 Eh     change       -0.2755222E-03 Eh
   gradient norm :     0.0407497 Eh/α   predicted    -0.2196777E-02 ( 697.31%)
   displ. norm   :     0.3881598 α      lambda       -0.4162645E-02
   maximum displ.:     0.1553594 α      in ANC's #12, #8, #23, ...

........................................................................
.............................. CYCLE   26 ..............................
........................................................................
   1   -242.8725955 -0.242873E+03  0.196E-01    0.18       0.0  T
   2   -242.8717940  0.801482E-03  0.122E-01    0.27       1.0  T
   3   -242.6016978  0.270096E+00  0.868E-01    0.09       1.0  T
   4   -242.8709959 -0.269298E+00  0.102E-01    0.30       1.0  T
   5   -242.8719941 -0.998272E-03  0.540E-02    0.29       1.0  T
   6   -242.8721856 -0.191459E-03  0.474E-02    0.28       1.0  T
   7   -242.8723135 -0.127873E-03  0.430E-02    0.27       1.0  T
   8   -242.8724297 -0.116231E-03  0.378E-02    0.26       1.0  T
   9   -242.8725348 -0.105072E-03  0.325E-02    0.25       1.0  T
  10   -242.8726694 -0.134610E-03  0.246E-02    0.23       1.0  T
  11   -242.8728066 -0.137252E-03  0.117E-02    0.21       1.0  T
  12   -242.8728371 -0.304945E-04  0.613E-03    0.21       1.5  T
  13   -242.8728473 -0.101644E-04  0.160E-03    0.20       5.6  T
  14   -242.8728480 -0.749573E-06  0.340E-04    0.20      26.4  T
  15   -242.8728481 -0.178401E-07  0.134E-04    0.20      67.1  T
     SCC iter.                  ...        0 min,  1.101 sec
     gradient                   ...        0 min,  0.070 sec
 * total energy  :  -238.9859258 Eh     change       -0.2047537E-02 Eh
   gradient norm :     0.0233874 Eh/α   predicted    -0.2394911E-02 (  16.97%)
   displ. norm   :     0.5265709 α      lambda       -0.3062632E-02
   maximum displ.:     0.1877132 α      in ANC's #8, #12, #13, ...

........................................................................
.............................. CYCLE   27 ..............................
........................................................................
   1   -242.8758250 -0.242876E+03  0.192E-01    0.18       0.0  T
   2   -242.8753460  0.478982E-03  0.116E-01    0.25       1.0  T
   3   -242.6499629  0.225383E+00  0.794E-01    0.08       1.0  T
   4   -242.8747748 -0.224812E+00  0.835E-02    0.28       1.0  T
   5   -242.8752547 -0.479938E-03  0.506E-02    0.28       1.0  T
   6   -242.8755429 -0.288251E-03  0.424E-02    0.26       1.0  T
   7   -242.8756844 -0.141506E-03  0.359E-02    0.25       1.0  T
   8   -242.8757848 -0.100366E-03  0.303E-02    0.24       1.0  T
   9   -242.8758872 -0.102414E-03  0.242E-02    0.23       1.0  T
  10   -242.8759682 -0.809442E-04  0.175E-02    0.22       1.0  T
  11   -242.8760261 -0.578842E-04  0.105E-02    0.21       1.0  T
  12   -242.8760541 -0.280592E-04  0.425E-03    0.20       2.1  T
  13   -242.8760589 -0.475764E-05  0.121E-03    0.20       7.4  T
  14   -242.8760593 -0.412394E-06  0.352E-04    0.20      25.5  T
     SCC iter.                  ...        0 min,  1.243 sec
     gradient                   ...        0 min,  0.042 sec
 * total energy  :  -238.9869199 Eh     change       -0.9940996E-03 Eh
   gradient norm :     0.0276139 Eh/α   predicted    -0.1955914E-02 (  96.75%)
   displ. norm   :     0.5079809 α      lambda       -0.2324307E-02
   maximum displ.:     0.2156652 α      in ANC's #12, #8, #13, ...

........................................................................
.............................. CYCLE   28 ..............................
........................................................................
   1   -242.8716037 -0.242872E+03  0.157E-01    0.18       0.0  T
   2   -242.8704375  0.116624E-02  0.109E-01    0.27       1.0  T
   3   -242.7492845  0.121153E+00  0.587E-01    0.07       1.0  T
   4   -242.8699056 -0.120621E+00  0.103E-01    0.31       1.0  T
   5   -242.8708381 -0.932544E-03  0.596E-02    0.29       1.0  T
   6   -242.8710891 -0.251050E-03  0.514E-02    0.28       1.0  T
   7   -242.8712690 -0.179864E-03  0.457E-02    0.26       1.0  T
   8   -242.8714176 -0.148608E-03  0.392E-02    0.25       1.0  T
   9   -242.8715773 -0.159668E-03  0.314E-02    0.24       1.0  T
  10   -242.8717395 -0.162203E-03  0.212E-02    0.22       1.0  T
  11   -242.8718626 -0.123079E-03  0.566E-03    0.20       1.6  T
  12   -242.8718707 -0.814475E-05  0.224E-03    0.20       4.0  T
  13   -242.8718719 -0.114421E-05  0.694E-04    0.20      12.9  T
  14   -242.8718720 -0.125931E-06  0.174E-04    0.20      51.5  T
     SCC iter.                  ...        0 min,  0.990 sec
     gradient                   ...        0 min,  0.042 sec
 * total energy  :  -238.9886079 Eh     change       -0.1687979E-02 Eh
   gradient norm :     0.0158351 Eh/α   predicted    -0.1462049E-02 ( -13.38%)
   displ. norm   :     0.6690216 α      lambda       -0.2709740E-02
   maximum displ.:     0.2854528 α      in ANC's #8, #12, #6, ...

........................................................................
.............................. CYCLE   29 ..............................
........................................................................
   1   -242.8732955 -0.242873E+03  0.217E-01    0.17       0.0  T
   2   -242.8714821  0.181341E-02  0.146E-01    0.30       1.0  T
   3   -242.5870833  0.284399E+00  0.898E-01    0.10       1.0  T
   4   -242.8701194 -0.283036E+00  0.144E-01    0.34       1.0  T
   5   -242.8722042 -0.208481E-02  0.753E-02    0.33       1.0  T
   6   -242.8724845 -0.280330E-03  0.673E-02    0.31       1.0  T
   7   -242.8727190 -0.234446E-03  0.617E-02    0.29       1.0  T
   8   -242.8729360 -0.217053E-03  0.543E-02    0.28       1.0  T
   9   -242.8731284 -0.192398E-03  0.472E-02    0.26       1.0  T
  10   -242.8734001 -0.271658E-03  0.361E-02    0.24       1.0  T
  11   -242.8736871 -0.287009E-03  0.172E-02    0.21       1.0  T
  12   -242.8737606 -0.735715E-04  0.692E-03    0.20       1.3  T
  13   -242.8737719 -0.112277E-04  0.262E-03    0.20       3.4  T
  14   -242.8737737 -0.179030E-05  0.526E-04    0.20      17.1  T
  15   -242.8737737 -0.568739E-07  0.203E-04    0.20      44.2  T
     SCC iter.                  ...        0 min,  1.321 sec
     gradient                   ...        0 min,  0.039 sec
 * total energy  :  -238.9890109 Eh     change       -0.4030217E-03 Eh
   gradient norm :     0.0374666 Eh/α   predicted    -0.1961302E-02 ( 386.65%)
   displ. norm   :     0.4352227 α      lambda       -0.2969291E-02
   maximum displ.:     0.1906120 α      in ANC's #8, #12, #13, ...

........................................................................
.............................. CYCLE   30 ..............................
........................................................................
   1   -242.8704598 -0.242870E+03  0.164E-01    0.18       0.0  T
   2   -242.8695761  0.883737E-03  0.107E-01    0.26       1.0  T
   3   -242.6824863  0.187090E+00  0.730E-01    0.08       1.0  T
   4   -242.8688182 -0.186332E+00  0.102E-01    0.28       1.0  T
   5   -242.8697707 -0.952506E-03  0.551E-02    0.27       1.0  T
   6   -242.8699933 -0.222579E-03  0.471E-02    0.26       1.0  T
   7   -242.8701625 -0.169160E-03  0.414E-02    0.25       1.0  T
   8   -242.8702712 -0.108751E-03  0.362E-02    0.24       1.0  T
   9   -242.8704100 -0.138755E-03  0.289E-02    0.23       1.0  T
  10   -242.8705393 -0.129354E-03  0.203E-02    0.22       1.0  T
  11   -242.8706383 -0.989798E-04  0.855E-03    0.20       1.1  T
  12   -242.8706572 -0.188992E-04  0.327E-03    0.20       2.7  T
  13   -242.8706598 -0.261075E-05  0.123E-03    0.20       7.3  T
  14   -242.8706602 -0.415554E-06  0.170E-04    0.20      52.7  T
     SCC iter.                  ...        0 min,  0.813 sec
     gradient                   ...        0 min,  0.059 sec
 * total energy  :  -238.9908451 Eh     change       -0.1834272E-02 Eh
   gradient norm :     0.0225255 Eh/α   predicted    -0.1765869E-02 (  -3.73%)
   displ. norm   :     0.5837097 α      lambda       -0.1958865E-02
   maximum displ.:     0.2645779 α      in ANC's #8, #12, #6, ...

........................................................................
.............................. CYCLE   31 ..............................
........................................................................
   1   -242.8771452 -0.242877E+03  0.160E-01    0.19       0.0  T
   2   -242.8770026  0.142608E-03  0.937E-02    0.22       1.0  T
   3   -242.8180630  0.589396E-01  0.410E-01    0.08       1.0  T
   4   -242.8761417 -0.580787E-01  0.724E-02    0.26       1.0  T
   5   -242.8769299 -0.788155E-03  0.328E-02    0.23       1.0  T
   6   -242.8770992 -0.169313E-03  0.247E-02    0.22       1.0  T
   7   -242.8771836 -0.843770E-04  0.175E-02    0.21       1.0  T
   8   -242.8772324 -0.487951E-04  0.121E-02    0.21       1.0  T
   9   -242.8772607 -0.283120E-04  0.727E-03    0.20       1.2  T
  10   -242.8772724 -0.117491E-04  0.346E-03    0.20       2.6  T
  11   -242.8772749 -0.249499E-05  0.164E-03    0.20       5.5  T
  12   -242.8772755 -0.603681E-06  0.721E-04    0.20      12.4  T
     SCC iter.                  ...        0 min,  0.743 sec
     gradient                   ...        0 min,  0.044 sec
 * total energy  :  -238.9914227 Eh     change       -0.5775317E-03 Eh
   gradient norm :     0.0340395 Eh/α   predicted    -0.1313144E-02 ( 127.37%)
   displ. norm   :     0.5149867 α      lambda       -0.1926861E-02
   maximum displ.:     0.2457942 α      in ANC's #8, #12, #6, ...

........................................................................
.............................. CYCLE   32 ..............................
........................................................................
   1   -242.8762971 -0.242876E+03  0.140E-01    0.18       0.0  T
   2   -242.8753271  0.969904E-03  0.974E-02    0.25       1.0  T
   3   -242.7795622  0.957649E-01  0.527E-01    0.08       1.0  T
   4   -242.8746165 -0.950543E-01  0.988E-02    0.28       1.0  T
   5   -242.8756677 -0.105118E-02  0.524E-02    0.27       1.0  T
   6   -242.8758780 -0.210278E-03  0.442E-02    0.25       1.0  T
   7   -242.8760574 -0.179425E-03  0.375E-02    0.24       1.0  T
   8   -242.8761836 -0.126182E-03  0.308E-02    0.23       1.0  T
   9   -242.8763122 -0.128617E-03  0.228E-02    0.22       1.0  T
  10   -242.8764092 -0.970535E-04  0.142E-02    0.21       1.0  T
  11   -242.8764636 -0.543859E-04  0.411E-03    0.20       2.2  T
  12   -242.8764682 -0.455704E-05  0.114E-03    0.20       7.9  T
  13   -242.8764684 -0.266687E-06  0.503E-04    0.20      17.9  T
     SCC iter.                  ...        0 min,  0.685 sec
     gradient                   ...        0 min,  0.037 sec
 * total energy  :  -238.9928347 Eh     change       -0.1411971E-02 Eh
   gradient norm :     0.0171394 Eh/α   predicted    -0.1218944E-02 ( -13.67%)
   displ. norm   :     0.6326511 α      lambda       -0.1731586E-02
   maximum displ.:     0.3197854 α      in ANC's #8, #6, #12, ...

........................................................................
.............................. CYCLE   33 ..............................
........................................................................
   1   -242.8797356 -0.242880E+03  0.180E-01    0.18       0.0  T
   2   -242.8783553  0.138023E-02  0.123E-01    0.27       1.0  T
   3   -242.6758921  0.202463E+00  0.762E-01    0.09       1.0  T
   4   -242.8772137 -0.201322E+00  0.126E-01    0.29       1.0  T
   5   -242.8788816 -0.166788E-02  0.642E-02    0.29       1.0  T
   6   -242.8791082 -0.226629E-03  0.559E-02    0.27       1.0  T
   7   -242.8793363 -0.228076E-03  0.492E-02    0.26       1.0  T
   8   -242.8795008 -0.164508E-03  0.424E-02    0.25       1.0  T
   9   -242.8796614 -0.160613E-03  0.352E-02    0.24       1.0  T
  10   -242.8798475 -0.186099E-03  0.249E-02    0.22       1.0  T
  11   -242.8799852 -0.137754E-03  0.119E-02    0.21       1.0  T
  12   -242.8800225 -0.372891E-04  0.398E-03    0.20       2.3  T
  13   -242.8800268 -0.430128E-05  0.959E-04    0.20       9.4  T
  14   -242.8800270 -0.174300E-06  0.297E-04    0.20      30.2  T
  15   -242.8800270 -0.103192E-07  0.230E-04    0.20      39.0  T
     SCC iter.                  ...        0 min,  1.011 sec
     gradient                   ...        0 min,  0.037 sec
 * total energy  :  -238.9934449 Eh     change       -0.6102596E-03 Eh
   gradient norm :     0.0428188 Eh/α   predicted    -0.1212330E-02 (  98.66%)
   displ. norm   :     0.4890035 α      lambda       -0.1967757E-02
   maximum displ.:     0.2386054 α      in ANC's #8, #6, #12, ...

........................................................................
.............................. CYCLE   34 ..............................
........................................................................
   1   -242.8864893 -0.242886E+03  0.124E-01    0.20       0.0  T
   2   -242.8864726  0.167401E-04  0.719E-02    0.20       1.0  T
   3   -242.8840903  0.238232E-02  0.983E-02    0.16       1.0  T
   4   -242.8856995 -0.160923E-02  0.536E-02    0.25       1.0  T
   5   -242.8865526 -0.853063E-03  0.689E-03    0.20       1.3  T
   6   -242.8865579 -0.536995E-05  0.391E-03    0.20       2.3  T
   7   -242.8865596 -0.167012E-05  0.205E-03    0.20       4.4  T
     SCC iter.                  ...        0 min,  0.500 sec
     gradient                   ...        0 min,  0.052 sec
 * total energy  :  -238.9946500 Eh     change       -0.1205127E-02 Eh
   gradient norm :     0.0175906 Eh/α   predicted    -0.1219154E-02 (   1.16%)
   displ. norm   :     0.6398322 α      lambda       -0.1552135E-02
   maximum displ.:     0.3250323 α      in ANC's #8, #6, #12, ...

........................................................................
.............................. CYCLE   35 ..............................
........................................................................
   1   -242.8692826 -0.242869E+03  0.197E-01    0.19       0.0  T
   2   -242.8689387  0.343859E-03  0.118E-01    0.23       1.0  T
   3   -242.6951183  0.173820E+00  0.709E-01    0.08       1.0  T
   4   -242.8675807 -0.172462E+00  0.968E-02    0.27       1.0  T
   5   -242.8689079 -0.132719E-02  0.438E-02    0.25       1.0  T
   6   -242.8691223 -0.214367E-03  0.344E-02    0.24       1.0  T
   7   -242.8692487 -0.126399E-03  0.278E-02    0.23       1.0  T
   8   -242.8693210 -0.723449E-04  0.224E-02    0.22       1.0  T
   9   -242.8694050 -0.839620E-04  0.153E-02    0.21       1.0  T
  10   -242.8694453 -0.403038E-04  0.976E-03    0.21       1.0  T
  11   -242.8694676 -0.222812E-04  0.455E-03    0.20       2.0  T
  12   -242.8694722 -0.466332E-05  0.208E-03    0.20       4.3  T
  13   -242.8694732 -0.100779E-05  0.872E-04    0.20      10.3  T
  14   -242.8694734 -0.205921E-06  0.310E-04    0.20      29.0  T
     SCC iter.                  ...        0 min,  0.909 sec
     gradient                   ...        0 min,  0.235 sec
 * total energy  :  -238.9939556 Eh     change        0.6944378E-03 Eh
   gradient norm :     0.0686403 Eh/α   predicted    -0.1093777E-02 (-257.51%)
   displ. norm   :     0.2751016 α      lambda       -0.4137175E-02
   maximum displ.:     0.1099629 α      in ANC's #8, #6, #18, ...

........................................................................
.............................. CYCLE   36 ..............................
........................................................................
   1   -242.8864723 -0.242886E+03  0.139E-01    0.20       0.0  T
   2   -242.8865135 -0.412674E-04  0.777E-02    0.20       1.0  T
   3   -242.8849847  0.152884E-02  0.660E-02    0.16       1.0  T
   4   -242.8862619 -0.127717E-02  0.316E-02    0.22       1.0  T
   5   -242.8865243 -0.262494E-03  0.856E-03    0.20       1.0  T
   6   -242.8865385 -0.141508E-04  0.471E-03    0.20       1.9  T
   7   -242.8865411 -0.257691E-05  0.222E-03    0.20       4.0  T
   8   -242.8865420 -0.899568E-06  0.871E-04    0.20      10.3  T
     SCC iter.                  ...        0 min,  0.433 sec
     gradient                   ...        0 min,  0.043 sec
 * total energy  :  -238.9957348 Eh     change       -0.1779160E-02 Eh
   gradient norm :     0.0235702 Eh/α   predicted    -0.2225143E-02 (  25.07%)
   displ. norm   :     0.4843241 α      lambda       -0.1555481E-02
   maximum displ.:     0.2496430 α      in ANC's #8, #6, #11, ...

........................................................................
.............................. CYCLE   37 ..............................
........................................................................
   1   -242.8831694 -0.242883E+03  0.149E-01    0.19       0.0  T
   2   -242.8824532  0.716226E-03  0.982E-02    0.24       1.0  T
   3   -242.7653959  0.117057E+00  0.583E-01    0.08       1.0  T
   4   -242.8814921 -0.116096E+00  0.995E-02    0.27       1.0  T
   5   -242.8827182 -0.122605E-02  0.467E-02    0.25       1.0  T
   6   -242.8828701 -0.151917E-03  0.391E-02    0.24       1.0  T
   7   -242.8830253 -0.155230E-03  0.323E-02    0.23       1.0  T
   8   -242.8831274 -0.102013E-03  0.260E-02    0.22       1.0  T
   9   -242.8832240 -0.966951E-04  0.189E-02    0.22       1.0  T
  10   -242.8832918 -0.678013E-04  0.113E-02    0.21       1.0  T
  11   -242.8833243 -0.324170E-04  0.395E-03    0.20       2.3  T
  12   -242.8833282 -0.391961E-05  0.150E-03    0.20       6.0  T
  13   -242.8833287 -0.515543E-06  0.608E-04    0.20      14.8  T
     SCC iter.                  ...        0 min,  0.761 sec
     gradient                   ...        0 min,  0.035 sec
 * total energy  :  -238.9957255 Eh     change        0.9231759E-05 Eh
   gradient norm :     0.0424125 Eh/α   predicted    -0.9601792E-03 (*******%)
   displ. norm   :     0.3939250 α      lambda       -0.1865817E-02
   maximum displ.:     0.2007272 α      in ANC's #8, #6, #12, ...

........................................................................
.............................. CYCLE   38 ..............................
........................................................................
   1   -242.8884591 -0.242888E+03  0.108E-01    0.20       0.0  T
   2   -242.8884757 -0.166333E-04  0.610E-02    0.20       1.0  T
   3   -242.8881536  0.322090E-03  0.398E-02    0.19       1.0  T
   4   -242.8883710 -0.217407E-03  0.208E-02    0.21       1.0  T
   5   -242.8884759 -0.104897E-03  0.930E-03    0.19       1.0  T
   6   -242.8884963 -0.204085E-04  0.385E-03    0.20       2.3  T
   7   -242.8884984 -0.205261E-05  0.202E-03    0.20       4.5  T
   8   -242.8884989 -0.495645E-06  0.110E-03    0.20       8.2  T
     SCC iter.                  ...        0 min,  0.740 sec
     gradient                   ...        0 min,  0.052 sec
 * total energy  :  -238.9969065 Eh     change       -0.1180960E-02 Eh
   gradient norm :     0.0063898 Eh/α   predicted    -0.1077680E-02 (  -8.75%)
   displ. norm   :     0.6924922 α      lambda       -0.8627271E-03
   maximum displ.:     0.3787356 α      in ANC's #8, #6, #12, ...

........................................................................
.............................. CYCLE   39 ..............................
........................................................................
   1   -242.8803903 -0.242880E+03  0.134E-01    0.19       0.0  T
   2   -242.8798426  0.547713E-03  0.880E-02    0.23       1.0  T
   3   -242.7872080  0.926346E-01  0.519E-01    0.08       1.0  T
   4   -242.8789899 -0.917820E-01  0.869E-02    0.26       1.0  T
   5   -242.8800009 -0.101099E-02  0.409E-02    0.24       1.0  T
   6   -242.8801458 -0.144865E-03  0.335E-02    0.24       1.0  T
   7   -242.8802715 -0.125726E-03  0.271E-02    0.23       1.0  T
   8   -242.8803550 -0.834752E-04  0.210E-02    0.22       1.0  T
   9   -242.8804297 -0.747247E-04  0.139E-02    0.21       1.0  T
  10   -242.8804674 -0.377028E-04  0.825E-03    0.20       1.1  T
  11   -242.8804847 -0.172933E-04  0.295E-03    0.20       3.0  T
  12   -242.8804868 -0.208029E-05  0.116E-03    0.20       7.7  T
  13   -242.8804871 -0.321980E-06  0.473E-04    0.20      19.0  T
     SCC iter.                  ...        0 min,  0.876 sec
     gradient                   ...        0 min,  0.051 sec
 * total energy  :  -238.9975167 Eh     change       -0.6101696E-03 Eh
   gradient norm :     0.0206585 Eh/α   predicted    -0.6382244E-03 (   4.60%)
   displ. norm   :     0.6805738 α      lambda       -0.1077244E-02
   maximum displ.:     0.3734592 α      in ANC's #8, #6, #2, ...

........................................................................
.............................. CYCLE   40 ..............................
........................................................................
   1   -242.8967445 -0.242897E+03  0.124E-01    0.20       0.0  T
   2   -242.8967448 -0.350642E-06  0.722E-02    0.20       1.0  T
   3   -242.8953234  0.142146E-02  0.745E-02    0.17       1.0  T
   4   -242.8961670 -0.843674E-03  0.459E-02    0.24       1.0  T
   5   -242.8967890 -0.622001E-03  0.660E-03    0.20       1.4  T
   6   -242.8967926 -0.358098E-05  0.371E-03    0.20       2.4  T
   7   -242.8967934 -0.749929E-06  0.217E-03    0.20       4.1  T
     SCC iter.                  ...        0 min,  0.516 sec
     gradient                   ...        0 min,  0.040 sec
 * total energy  :  -238.9981873 Eh     change       -0.6706480E-03 Eh
   gradient norm :     0.0199118 Eh/α   predicted    -0.7881037E-03 (  17.51%)
   displ. norm   :     0.6567846 α      lambda       -0.8868891E-03
   maximum displ.:     0.3694053 α      in ANC's #8, #6, #2, ...

........................................................................
.............................. CYCLE   41 ..............................
........................................................................
   1   -242.8876150 -0.242888E+03  0.119E-01    0.18       0.0  T
   2   -242.8868328  0.782168E-03  0.862E-02    0.25       1.0  T
   3   -242.8299490  0.568838E-01  0.409E-01    0.08       1.0  T
   4   -242.8862760 -0.563270E-01  0.860E-02    0.27       1.0  T
   5   -242.8871436 -0.867540E-03  0.453E-02    0.25       1.0  T
   6   -242.8873224 -0.178885E-03  0.373E-02    0.24       1.0  T
   7   -242.8874910 -0.168553E-03  0.291E-02    0.23       1.0  T
   8   -242.8876201 -0.129139E-03  0.200E-02    0.22       1.0  T
   9   -242.8876886 -0.684514E-04  0.133E-02    0.21       1.0  T
  10   -242.8877284 -0.398183E-04  0.636E-03    0.20       1.4  T
  11   -242.8877394 -0.109532E-04  0.162E-03    0.20       5.6  T
  12   -242.8877400 -0.626001E-06  0.619E-04    0.20      14.5  T
  13   -242.8877401 -0.709094E-07  0.250E-04    0.20      35.9  T
     SCC iter.                  ...        0 min,  0.874 sec
     gradient                   ...        0 min,  0.067 sec
 * total energy  :  -238.9987379 Eh     change       -0.5505669E-03 Eh
   gradient norm :     0.0180114 Eh/α   predicted    -0.6347342E-03 (  15.29%)
   displ. norm   :     0.5748769 α      lambda       -0.9233381E-03
   maximum displ.:     0.3188729 α      in ANC's #8, #6, #2, ...

........................................................................
.............................. CYCLE   42 ..............................
........................................................................
   1   -242.8947328 -0.242895E+03  0.114E-01    0.19       0.0  T
   2   -242.8946439  0.888561E-04  0.676E-02    0.21       1.0  T
   3   -242.8593329  0.353110E-01  0.320E-01    0.09       1.0  T
   4   -242.8945342 -0.352013E-01  0.337E-02    0.22       1.0  T
   5   -242.8946821 -0.147848E-03  0.172E-02    0.21       1.0  T
   6   -242.8947262 -0.441114E-04  0.122E-02    0.21       1.0  T
   7   -242.8947557 -0.295521E-04  0.647E-03    0.20       1.4  T
   8   -242.8947657 -0.100051E-04  0.284E-03    0.20       3.2  T
   9   -242.8947671 -0.140229E-05  0.144E-03    0.20       6.2  T
  10   -242.8947675 -0.310108E-06  0.932E-04    0.20       9.6  T
     SCC iter.                  ...        0 min,  0.616 sec
     gradient                   ...        0 min,  0.076 sec
 * total energy  :  -238.9993241 Eh     change       -0.5862058E-03 Eh
   gradient norm :     0.0118285 Eh/α   predicted    -0.6142429E-03 (   4.78%)
   displ. norm   :     0.6854995 α      lambda       -0.6549215E-03
   maximum displ.:     0.3822728 α      in ANC's #8, #6, #2, ...
 * RMSD in coord.:     0.9283413 α      energy gain  -0.2241550E-01 Eh

generating ANC from model Hessian ...
Using Lindh-Hessian (1995)
 Shifting diagonal of input Hessian by   5.085353559957261E-003
 Lowest  eigenvalues of input Hessian
    0.005000    0.005048    0.005083   -0.000000   -0.000000   -0.000000
   -0.000000    0.000000    0.000000    0.005104    0.005117    0.005179
    0.005221    0.005261    0.005297    0.005330    0.005421    0.005455
 Highest eigenvalues
    2.605697    2.607657    2.635353    2.643532    2.646430    2.647216
 

........................................................................
.............................. CYCLE   43 ..............................
........................................................................
   1   -242.8884513 -0.242888E+03  0.114E-01    0.19       0.0  T
   2   -242.8881127  0.338641E-03  0.738E-02    0.22       1.0  T
   3   -242.8116038  0.765089E-01  0.472E-01    0.08       1.0  T
   4   -242.8877590 -0.761553E-01  0.599E-02    0.24       1.0  T
   5   -242.8881723 -0.413295E-03  0.336E-02    0.23       1.0  T
   6   -242.8882944 -0.122023E-03  0.265E-02    0.22       1.0  T
   7   -242.8883917 -0.973780E-04  0.198E-02    0.21       1.0  T
   8   -242.8884465 -0.547717E-04  0.143E-02    0.21       1.0  T
   9   -242.8884836 -0.370716E-04  0.903E-03    0.20       1.0  T
  10   -242.8885008 -0.171992E-04  0.478E-03    0.20       1.9  T
  11   -242.8885062 -0.541666E-05  0.202E-03    0.20       4.4  T
  12   -242.8885071 -0.875914E-06  0.102E-03    0.20       8.8  T
  13   -242.8885073 -0.236039E-06  0.446E-04    0.20      20.1  T
  14   -242.8885074 -0.557484E-07  0.131E-04    0.20      68.6  T
     SCC iter.                  ...        0 min,  1.139 sec
     gradient                   ...        0 min,  0.039 sec
 * total energy  :  -238.9998327 Eh     change       -0.5085802E-03 Eh
   gradient norm :     0.0087449 Eh/α   predicted     0.0000000E+00 (-100.00%)
   displ. norm   :     0.2030046 α      lambda       -0.4360377E-03
   maximum displ.:     0.0728561 α      in ANC's #9, #2, #6, ...

........................................................................
.............................. CYCLE   44 ..............................
........................................................................
   1   -242.8926921 -0.242893E+03  0.969E-02    0.19       0.0  T
   2   -242.8927018 -0.969620E-05  0.539E-02    0.19       1.0  T
   3   -242.8924058  0.295978E-03  0.370E-02    0.21       1.0  T
   4   -242.8925497 -0.143866E-03  0.233E-02    0.18       1.0  T
   5   -242.8927096 -0.159942E-03  0.508E-03    0.20       1.8  T
   6   -242.8927157 -0.601093E-05  0.222E-03    0.19       4.0  T
   7   -242.8927161 -0.426558E-06  0.104E-03    0.20       8.7  T
   8   -242.8927161 -0.583538E-07  0.570E-04    0.19      15.7  T
     SCC iter.                  ...        0 min,  0.514 sec
     gradient                   ...        0 min,  0.034 sec
 * total energy  :  -238.9999026 Eh     change       -0.6990328E-04 Eh
   gradient norm :     0.0093335 Eh/α   predicted    -0.2272419E-03 ( 225.08%)
   displ. norm   :     0.1629652 α      lambda       -0.5779654E-03
[...]
    73   6 C      3.029     0.028    27.345     8.577
    74   6 C      2.946     0.003    27.959     8.672
    75   6 C      1.941     0.122    28.085     8.558
    76   7 N      0.911    -0.243    26.333     7.422
    77   6 C      1.942     0.123    28.065     8.555
    78   7 N      0.911    -0.232    26.087     7.387
    79   6 C      3.052     0.006    27.833     8.652
    80   6 C      3.048     0.006    27.838     8.653
    81   6 C      2.912    -0.026    28.662     8.779
    82   6 C      2.921    -0.020    28.502     8.755
    83   6 C      2.920    -0.020    28.506     8.755
    84   6 C      2.913    -0.026    28.660     8.779
    85   6 C      3.035     0.029    27.318     8.573
    86   6 C      2.948     0.002    27.971     8.674
    87   6 C      1.932     0.121    28.113     8.563
    88   7 N      0.911    -0.240    26.257     7.411
    89   6 C      1.938     0.120    28.134     8.566
    90   7 N      0.911    -0.242    26.311     7.419
    91   1 H      0.926     0.058     2.221     2.330
    92   1 H      0.926     0.052     2.299     2.371
    93   1 H      0.926     0.052     2.292     2.368
    94   1 H      0.926     0.060     2.199     2.319
    95   1 H      0.925     0.072     2.059     2.244
    96   1 H      0.926     0.065     2.137     2.286
    97   1 H      0.926     0.054     2.273     2.357
    98   1 H      0.926     0.076     2.016     2.220
    99   1 H      0.926     0.050     2.321     2.383
   100   1 H      0.924     0.050     2.319     2.381
   101   1 H      0.922     0.008     2.930     2.677
   102   1 H      0.924     0.030     2.586     2.515
   103   1 H      0.860     0.142     1.453     1.889
   104   1 H      0.860     0.147     1.423     1.868
   105   1 H      0.924     0.037     2.495     2.470
   106   1 H      0.923     0.014     2.823     2.628
   107   1 H      0.860     0.141     1.460     1.893
   108   1 H      0.860     0.144     1.443     1.882
   109   1 H      0.926     0.064     2.151     2.293
   110   1 H      0.923     0.088     1.901     2.156
   111   1 H      0.926     0.039     2.459     2.452
   112   1 H      0.926     0.049     2.335     2.389
   113   1 H      0.926     0.046     2.367     2.406
   114   1 H      0.926     0.049     2.328     2.386
   115   1 H      0.925     0.056     2.247     2.344
   116   1 H      0.925     0.052     2.294     2.368
   117   1 H      0.926     0.065     2.142     2.289
   118   1 H      0.926     0.065     2.140     2.288
   119   1 H      0.926     0.066     2.133     2.284
   120   1 H      0.925     0.072     2.063     2.246
   121   1 H      0.926     0.053     2.279     2.361
   122   1 H      0.926     0.050     2.317     2.380
   123   1 H      0.926     0.051     2.306     2.375
   124   1 H      0.926     0.057     2.234     2.337

 Mol. C6AA /au·bohr⁶  :     268460.653607
 Mol. C8AA /au·bohr⁸  :    7088219.142949
 Mol. α(0) /au        :        821.995083


Wiberg/Mayer (AO) data.
largest (>0.10) Wiberg bond orders for each atom
          total WBO             WBO to atom ...
     1  C   3.976        C    2 1.430    C    6 1.401    H   91 0.961
     2  C   3.967        C    1 1.430    C    3 1.428    H   92 0.970
     3  C   3.968        C    4 1.429    C    2 1.428    H   93 0.969
     4  C   3.974        C    3 1.429    C    5 1.401    H   94 0.961
     5  C   3.976        C    4 1.401    C    6 1.269    C   14 1.097
     6  C   3.974        C    1 1.401    C    5 1.269    C    7 1.097
     7  C   3.973        C    8 1.500    C   13 1.102    C    6 1.097
     8  C   3.945        C    7 1.500    C   11 1.096    C    9 1.092
     9  C   3.945        N   10 2.769    C    8 1.092
    10  N   2.972        C    9 2.769
    11  C   3.946        N   12 2.759    C    8 1.096
    12  N   2.968        C   11 2.759
    13  C   3.957        C   20 1.521    C   14 1.115    C    7 1.102
    14  C   3.968        C   15 1.478    C   13 1.115    C    5 1.097
    15  C   3.964        C   14 1.478    C   16 1.102    C   18 1.096
    16  C   3.945        N   17 2.756    C   15 1.102
    17  N   2.972        C   16 2.756
    18  C   3.946        N   19 2.766    C   15 1.096
    19  N   2.973        C   18 2.766
    20  C   3.945        C   13 1.521    C   21 1.252    H   95 0.940
    21  C   3.923        C   25 1.318    C   20 1.252    S   22 1.123
    22  S   2.684        C   23 1.231    C   21 1.123
    23  C   3.915        C   24 1.291    S   22 1.231    C   36 1.151
    24  C   3.974        C   23 1.291    C   35 1.290    C   25 1.198
    25  C   3.972        C   21 1.318    C   26 1.212    C   24 1.198
    26  C   3.972        C   33 1.426    C   25 1.212    C   27 1.069
    27  C   3.931        O   28 1.835    C   26 1.069    C   29 0.864
    28  O   2.098        C   27 1.835
    29  C   3.817        F   31 0.959    F   32 0.955    F   30 0.953    C   27 0.864
    30  F   1.078        C   29 0.953
    31  F   1.090        C   29 0.959
    32  F   1.083        C   29 0.955
    33  C   3.972        C   26 1.426    C   34 1.354    H   96 0.965
    34  C   3.977        C   35 1.512    C   33 1.354    H   97 0.966
    35  C   3.972        C   34 1.512    C   24 1.290    H   98 0.955
    36  C   3.949        C   37 1.465    C   53 1.184    C   23 1.151
    37  C   3.942        C   36 1.465    C   38 1.275    H   99 0.958
    38  C   3.971        C   39 1.404    C   37 1.275    C   51 1.104
    39  C   3.875        C   38 1.404    C   45 1.149    C   40 1.023
    40  C   3.990        C   39 1.023    C   41 0.980    C   43 0.958    H  100 0.957
    41  C   3.984        N   42 1.031    C   40 0.980    H  102 0.970    H  101 0.967
    42  N   3.004        C   41 1.031    H  103 0.966    H  104 0.964
    43  C   3.974        N   44 1.029    H  105 0.977    H  106 0.965    C   40 0.958
    44  N   3.013        C   43 1.029    H  107 0.966    H  108 0.965
    45  C   3.983        C   46 1.660    C   39 1.149    C   50 1.047
    46  C   3.916        C   45 1.660    C   47 1.009    H  109 0.958
    47  C   3.989        C   48 1.027    C   46 1.009    C   54 0.976    H  110 0.896
    48  C   3.915        C   49 1.705    C   47 1.027    H  111 0.969
    49  C   3.981        C   48 1.705    C   50 1.221    H  112 0.963
    50  C   3.931        C   51 1.414    C   49 1.221    C   45 1.047
    51  C   3.964        C   50 1.414    C   52 1.229    C   38 1.104
    52  C   3.974        C   53 1.632    C   51 1.229    H  113 0.965
    53  C   3.925        C   52 1.632    C   36 1.184    H  114 0.963
    54  C   3.902        C   55 1.745    C   47 0.976    H  115 0.960
    55  C   3.983        C   54 1.745    C   56 1.185    H  116 0.940
    56  C   3.901        C   60 1.313    S   57 1.185    C   55 1.185
    57  S   2.655        C   56 1.185    C   58 1.128
    58  C   3.927        C   71 1.309    C   59 1.259    S   57 1.128
    59  C   3.966        C   70 1.292    C   58 1.259    C   60 1.210
    60  C   3.976        C   56 1.313    C   61 1.222    C   59 1.210
    61  C   3.965        C   68 1.465    C   60 1.222    C   62 1.031    C   70 0.101
    62  C   3.925        O   63 1.875    C   61 1.031    C   64 0.860
    63  O   2.113        C   62 1.875
    64  C   3.822        F   66 0.965    F   65 0.957    F   67 0.950    C   62 0.860
    65  F   1.084        C   64 0.957
    66  F   1.095        C   64 0.965
    67  F   1.084        C   64 0.950
    68  C   3.968        C   61 1.465    C   69 1.333    H  117 0.966
    69  C   3.959        C   70 1.526    C   68 1.333    H  118 0.966
    70  C   3.976        C   69 1.526    C   59 1.292    H  119 0.962    C   61 0.101
    71  C   3.934        C   72 1.473    C   58 1.309    H  120 0.931
    72  C   3.934        C   71 1.473    C   73 1.126    C   85 1.121
    73  C   3.967        C   74 1.478    C   72 1.126    C   79 1.092
    74  C   3.930        C   73 1.478    C   75 1.101    C   77 1.096
    75  C   3.944        N   76 2.750    C   74 1.101
    76  N   2.961        C   75 2.750
    77  C   3.945        N   78 2.764    C   74 1.096
    78  N   2.966        C   77 2.764
    79  C   3.973        C   84 1.404    C   80 1.271    C   73 1.092
    80  C   3.974        C   81 1.405    C   79 1.271    C   85 1.093
    81  C   3.975        C   82 1.428    C   80 1.405    H  121 0.963
    82  C   3.969        C   83 1.431    C   81 1.428    H  122 0.970
    83  C   3.968        C   82 1.431    C   84 1.428    H  123 0.970
    84  C   3.975        C   83 1.428    C   79 1.404    H  124 0.961
    85  C   3.961        C   86 1.473    C   72 1.121    C   80 1.093
    86  C   3.950        C   85 1.473    C   87 1.103    C   89 1.098
    87  C   3.945        N   88 2.761    C   86 1.103
    88  N   2.964        C   87 2.761
    89  C   3.945        N   90 2.762    C   86 1.098
    90  N   2.973        C   89 2.762
    91  H   0.996        C    1 0.961
    92  H   0.997        C    2 0.970
    93  H   0.997        C    3 0.969
    94  H   0.996        C    4 0.961
    95  H   0.991        C   20 0.940
    96  H   0.994        C   33 0.965
    97  H   0.996        C   34 0.966
    98  H   0.993        C   35 0.955
    99  H   0.997        C   37 0.958
   100  H   0.995        C   40 0.957
   101  H   0.999        C   41 0.967
   102  H   0.999        C   41 0.970
   103  H   0.980        N   42 0.966
   104  H   0.978        N   42 0.964
   105  H   0.999        C   43 0.977
   106  H   0.996        C   43 0.965
   107  H   0.980        N   44 0.966
   108  H   0.978        N   44 0.965
   109  H   0.995        C   46 0.958
   110  H   0.976        C   47 0.896
   111  H   0.997        C   48 0.969
   112  H   0.997        C   49 0.963
   113  H   0.996        C   52 0.965
   114  H   0.997        C   53 0.963
   115  H   0.996        C   54 0.960
   116  H   0.996        C   55 0.940
   117  H   0.995        C   68 0.966
   118  H   0.994        C   69 0.966
   119  H   0.995        C   70 0.962
   120  H   0.992        C   71 0.931
   121  H   0.997        C   81 0.963
   122  H   0.997        C   82 0.970
   123  H   0.997        C   83 0.970
   124  H   0.996        C   84 0.961

molecular dipole:
                 x           y           z       tot (Debye)
 q only:        0.543      -0.204      -4.695
   full:        0.299      -1.413      -4.578      12.202
molecular quadrupole (traceless):
                xx          xy          yy          xz          yz          zz
 q only:      -55.222       4.600      53.555      62.148      58.299       1.667
  q+dip:      -69.926      41.692      73.172      63.602      55.733      -3.246
   full:      -58.390      53.533      72.069      58.088      52.301     -13.679

           -------------------------------------------------
          |                Geometry Summary                 |
           -------------------------------------------------

      molecular mass/u    :     1225.2148000
   center of mass at/Å    :      -10.5310079      -4.4169545      -1.3395677
  moments of inertia/u·Å² :        0.8428514E+04   0.8691252E+05   0.9068392E+05
rotational constants/cm⁻¹ :        0.2000072E-02   0.1939609E-03   0.1858944E-03

 * 106 selected distances

     #   Z        #   Z                                     value/Å
     1   6 C      2   6 C                                 1.3871652
     2   6 C      3   6 C                                 1.3875367
     3   6 C      4   6 C                                 1.3865905
     4   6 C      5   6 C                                 1.3841167
     1   6 C      6   6 C                                 1.3854306
     5   6 C      6   6 C                                 1.4128993
     7   6 C      8   6 C                                 1.3677884
     9   6 C     10   7 N                                 1.1477720
    11   6 C     12   7 N                                 1.1485401
    14   6 C     15   6 C                                 1.3711399
    16   6 C     17   7 N                                 1.1485420
    18   6 C     19   7 N                                 1.1478620
    13   6 C     20   6 C                                 1.3695939
    20   6 C     21   6 C                                 1.4125428
    21   6 C     22  16 S                                 1.7409284 (max)
    22  16 S     23   6 C                                 1.7143677
    23   6 C     24   6 C                                 1.4072946
    21   6 C     25   6 C                                 1.4011588
    24   6 C     25   6 C                                 1.4314748
    25   6 C     26   6 C                                 1.4220517
    27   6 C     28   8 O                                 1.2065122
    29   6 C     30   9 F                                 1.3394554
    29   6 C     31   9 F                                 1.3390984
    29   6 C     32   9 F                                 1.3392883
    26   6 C     33   6 C                                 1.3867158
    33   6 C     34   6 C                                 1.3956809
    24   6 C     35   6 C                                 1.4058290
    34   6 C     35   6 C                                 1.3730698
    23   6 C     36   6 C                                 1.4358079
    36   6 C     37   6 C                                 1.3799374
    37   6 C     38   6 C                                 1.4044311
    38   6 C     39   6 C                                 1.3912055
    41   6 C     42   7 N                                 1.4493118
    43   6 C     44   7 N                                 1.4530462
    39   6 C     45   6 C                                 1.4418833
    45   6 C     46   6 C                                 1.3453865
    48   6 C     49   6 C                                 1.3464573
    49   6 C     50   6 C                                 1.4134360
    50   6 C     51   6 C                                 1.3808148
    51   6 C     52   6 C                                 1.4137001
    36   6 C     53   6 C                                 1.4338808
    52   6 C     53   6 C                                 1.3567379
    54   6 C     55   6 C                                 1.3388417
    55   6 C     56   6 C                                 1.4242015
    56   6 C     57  16 S                                 1.7217946
    57  16 S     58   6 C                                 1.7399813
    58   6 C     59   6 C                                 1.4125621
    56   6 C     60   6 C                                 1.4008391
    59   6 C     60   6 C                                 1.4265336
    60   6 C     61   6 C                                 1.4174390
    62   6 C     63   8 O                                 1.2018388
    64   6 C     65   9 F                                 1.3369704
    64   6 C     66   9 F                                 1.3341005
    64   6 C     67   9 F                                 1.3434645
    61   6 C     68   6 C                                 1.3805215
    68   6 C     69   6 C                                 1.4007383
    59   6 C     70   6 C                                 1.4041707
    69   6 C     70   6 C                                 1.3713484
    58   6 C     71   6 C                                 1.3995354
    71   6 C     72   6 C                                 1.3757242
    73   6 C     74   6 C                                 1.3717214
    75   6 C     76   7 N                                 1.1491712
    77   6 C     78   7 N                                 1.1479494
    79   6 C     80   6 C                                 1.4133481
    80   6 C     81   6 C                                 1.3841154
    81   6 C     82   6 C                                 1.3871895
    82   6 C     83   6 C                                 1.3871480
    79   6 C     84   6 C                                 1.3853098
    83   6 C     84   6 C                                 1.3877070
    85   6 C     86   6 C                                 1.3721283
    87   6 C     88   7 N                                 1.1484040
    89   6 C     90   7 N                                 1.1481790
     1   6 C     91   1 H                                 1.0773890
     2   6 C     92   1 H                                 1.0793996
     3   6 C     93   1 H                                 1.0792608
     4   6 C     94   1 H                                 1.0773632
    20   6 C     95   1 H                                 1.0827231
    33   6 C     96   1 H                                 1.0796200
    34   6 C     97   1 H                                 1.0785335
    35   6 C     98   1 H                                 1.0787819
    37   6 C     99   1 H                                 1.0775030
    40   6 C    100   1 H                                 1.0955503
    41   6 C    101   1 H                                 1.1049646
    41   6 C    102   1 H                                 1.0936216
    42   7 N    103   1 H                                 1.0141528
    42   7 N    104   1 H                                 1.0135320
    43   6 C    105   1 H                                 1.0923891
    43   6 C    106   1 H                                 1.1022815
    44   7 N    107   1 H                                 1.0152198
    44   7 N    108   1 H                                 1.0133969 (min)
    46   6 C    109   1 H                                 1.0776854
    47   6 C    110   1 H                                 1.1021726
    48   6 C    111   1 H                                 1.0796812
    49   6 C    112   1 H                                 1.0798765
    52   6 C    113   1 H                                 1.0793104
    53   6 C    114   1 H                                 1.0797816
    54   6 C    115   1 H                                 1.0819442
    55   6 C    116   1 H                                 1.0834120
    68   6 C    117   1 H                                 1.0792172
    69   6 C    118   1 H                                 1.0785390
    70   6 C    119   1 H                                 1.0785550
    71   6 C    120   1 H                                 1.0812808
    81   6 C    121   1 H                                 1.0781466
    82   6 C    122   1 H                                 1.0792741
    83   6 C    123   1 H                                 1.0792250
    84   6 C    124   1 H                                 1.0774477

 * 7 distinct bonds (by element types)

   Z      Z             #   av. dist./Å        max./Å        min./Å
   1 H    6 C          30     1.0831643     1.1049646     1.0773632
   6 C    6 C          50     1.3934576     1.4418833     1.3388417
   1 H    7 N           4     1.0140754     1.0152198     1.0133969
   6 C    7 N          10     1.2088778     1.4530462     1.1477720
   6 C    8 O           2     1.2041755     1.2065122     1.2018388
   6 C    9 F           6     1.3387296     1.3434645     1.3341005
   6 C   16 S           4     1.7292680     1.7409284     1.7143677


optimized geometry written to: xtbopt.xyz


           -------------------------------------------------
          | TOTAL ENERGY             -239.013750318484 Eh   |
          | GRADIENT NORM               0.000569502568 Eh/α |
          | HOMO-LUMO GAP               0.196926526262 eV   |
           -------------------------------------------------

------------------------------------------------------------------------
 * finished run on 2021/05/21 at 23:45:51.405     
------------------------------------------------------------------------
 total:
 * wall-time:     0 d,  0 h,  3 min, 11.873 sec
 *  cpu-time:     0 d,  0 h, 29 min, 49.785 sec
 * ratio c/w:     9.328 speedup
 SCF:
 * wall-time:     0 d,  0 h,  0 min,  2.029 sec
 *  cpu-time:     0 d,  0 h,  0 min, 17.032 sec
 * ratio c/w:     8.396 speedup
 ANC optimizer:
 * wall-time:     0 d,  0 h,  3 min,  9.680 sec
 *  cpu-time:     0 d,  0 h, 29 min, 31.889 sec
 * ratio c/w:     9.341 speedup

