      -----------------------------------------------------------      
     |                   =====================                   |     
     |                           x T B                           |     
     |                   =====================                   |     
     |                         S. Grimme                         |     
     |          Mulliken Center for Theoretical Chemistry        |     
     |                    University of Bonn                     |     
     |                Version 6.2 RC2 (SAW190805)                |     
      -----------------------------------------------------------      

   This program is distributed in the hope that it will be useful,
   but WITHOUT ANY WARRANTY; without even the implied warranty of
   MERCHANTABILITY or FITNESS FOR A PARTICULAR PURPOSE.
   
   FOR NON-COMMERCIAL, ACADEMIA USE ONLY.
   
   Cite this work as:
   * S. Grimme, C. Bannwarth, P. Shushkov, J. Chem. Theory Comput., 2017,
     13, 1989-2009. DOI: 10.1021/acs.jctc.7b00118
   * C. Bannwarth, S. Ehlert and S. Grimme., J. Chem. Theory Comput., 2019,
     15, 1652-1671. DOI: 10.1021/acs.jctc.8b01176
   * P. Pracht, E. Caldeweyher, S. Ehlert, S. Grimme, ChemRxiv, 2019, preprint.
     DOI: 10.26434/chemrxiv.8326202.v1
   
   for DFT-D4:
   * E. Caldeweyher, C. Bannwarth and S. Grimme, J. Chem. Phys., 2017,
     147, 034112. DOI: 10.1063/1.4993215
   * E. Caldeweyher, S. Ehlert, A. Hansen, H. Neugebauer, S. Spicher,
     C. Bannwarth and S. Grimme, J. Chem. Phys., 2019, 150, 154122.
     DOI: 10.1063/1.5090222
   
   for sTDA-xTB:
   * S. Grimme and C. Bannwarth, J. Chem. Phys., 2016, 145, 054103.
     DOI: 10.1063/1.4959605
   
   in the mass-spec context:
   * V. Asgeirsson, C. Bauer and S. Grimme, Chem. Sci., 2017, 8, 4879.
     DOI: 10.1039/c7sc00601b
   
   for metadynamics refer to:
   * S. Grimme, J. Chem. Theory Comput., 2019, 155, 2847-2862
     DOI: 10.1021/acs.jctc.9b00143
   
   with help from (in alphabetical order)
   C. Bannwarth, F. Bohle, G. Brandenburg, E. Caldeweyher, M. Checinski,
   S. Dohm, S. Ehlert, S. Ehrlich, F. März, H. Neugebauer, J. Pisarek,
   P. Pracht, P. Shushkov, and S. Spicher.
   
 * started run on 2021/05/24 at 13:04:05.940     

           -------------------------------------------------
          |                Calculation Setup                |
           -------------------------------------------------

          program call               : /ihome/ghutchison/geoffh/xtb/xtb /ihome/ghutchison/blp62/GA/running_GA/more_units/generations/56/90_485_228_485_90.xyz -opt
          hostname                   : smp-n197
          coordinate file            : /ihome/ghutchison/blp62/GA/running_GA/more_units/generations/56/90_485_228_485_90.xyz
          omp threads                :                    12
          number of atoms            :                   107
          number of electrons        :                   366
          charge                     :                     0
          spin                       :                   0.0
          first test random number   :      0.18330707847192


########################################################################
# WARNING! Please study the warnings concerning your input carefully
#  - XTBPATH is not set, using XTBHOME instead
#  - the use of '-opt' is discouraged, please use '--opt' next time
########################################################################

           ------------------------------------------------- 
          |                 G F N 2 - x T B                 |
          | Geometry, Frequencies, Noncovalent interactions |
          |            JCTC 2019 parametrisation            |
           ------------------------------------------------- 
             KAB for C  - Si     :                1.0500
             KAB for H  - Pd     :                0.9500
             k(s)              :                1.8500
             k(p)              :                2.2300
             k(d)              :                2.2300
             k(f)              :                2.0000
             kEN (H0ij)        :               -2.0000
             D4 a1             :                0.5200
             D4 a2             :                5.0000
             D4 s6             :                1.0000
             D4 s8             :                2.7000
             D4 s9             :                5.0000
             alphaj            :                2.0000

  Z AO/shell   Hii/eV     exponent
  1     Wed Apr 25 08:07:45 CEST 2018   EN: 2.200 GM2: 0.406  GM3: 0.0800  RAES: 1.40
     1s    -10.707211    1.230000
  6     Wed Apr 25 08:07:45 CEST 2018   EN: 2.550 GM2: 0.538  GM3: 0.1500  RAES: 3.00
     2s    -13.970922    2.096432
     2p    -10.063292    1.800000
  7     Wed Apr 25 08:07:45 CEST 2018   EN: 3.040 GM2: 0.461  GM3:-0.0640  RAES: 1.90
     2s    -16.686243    2.339881
     2p    -12.523956    2.014332
  8     Wed Apr 25 08:07:45 CEST 2018   EN: 3.440 GM2: 0.452  GM3:-0.0517  RAES: 1.80
     2s    -20.229985    2.439742
     2p    -15.503117    2.137023
 16     Tue Apr 24 11:44:34 CEST 2018   EN: 2.580 GM2: 0.340  GM3:-0.0502  RAES: 3.10
     3s    -20.029654    1.981333
     3p    -11.377694    2.025643
     3d     -0.420282    1.702555

           ------------------------------------------------- 
          |        Self-Consistent Charge Iterations        |
           ------------------------------------------------- 

          ...................................................
          :                      SETUP                      :
          :.................................................:
          :  # basis functions                 353          :
          :  # atomic orbitals                 352          :
          :  # shells                          188          :
          :  # electrons                       366          :
          :  max. iterations                   250          :
          :  Hamiltonian                  GFN2-xTB          :
          :  restarted?                      false          :
          :  GBSA solvation                  false          :
          :  PC potential                    false          :
          :  electronic temp.          300.0000000     K    :
          :  accuracy                    1.0000000          :
          :  -> integral cutoff          0.2500000E+02      :
          :  -> integral neglect         0.1000000E-07      :
          :  -> SCF convergence          0.1000000E-05 Eh   :
          :  -> wf. convergence          0.1000000E-03 e    :
          :  Broyden damping             0.4000000          :
          ...................................................

 iter      E             dE          RMSdq      gap      omega  full diag
   1   -203.3626087 -0.203363E+03  0.586E+00    1.05       0.0  T
   2   -203.4883450 -0.125736E+00  0.375E+00    1.03       1.0  T
   3   -203.3100783  0.178267E+00  0.269E+00    0.83       1.0  T
   4   -203.7701808 -0.460102E+00  0.724E-01    0.76       1.0  T
   5   -203.7976577 -0.274769E-01  0.269E-01    0.74       1.0  T
   6   -203.8035686 -0.591087E-02  0.116E-01    0.73       1.0  T
   7   -203.8042107 -0.642151E-03  0.643E-02    0.75       1.0  T
   8   -203.8044099 -0.199122E-03  0.290E-02    0.74       1.0  T
   9   -203.8044840 -0.741715E-04  0.118E-02    0.74       1.0  T
  10   -203.8044874 -0.335411E-05  0.714E-03    0.75       1.4  T
  11   -203.8044918 -0.444031E-05  0.187E-03    0.75       5.2  T
  12   -203.8044919 -0.105961E-06  0.118E-03    0.75       8.2  T
  13   -203.8044920 -0.596104E-07  0.660E-04    0.75      14.6  T
  14   -203.8044920 -0.118370E-07  0.411E-04    0.75      23.5  T

   *** convergence criteria satisfied after 14 iterations ***

         #    Occupation            Energy/Eh            Energy/eV
      -------------------------------------------------------------
         1        2.0000           -0.7865518             -21.4032
       ...           ...                  ...                  ...
       177        2.0000           -0.4241771             -11.5424
       178        2.0000           -0.4209907             -11.4557
       179        2.0000           -0.4151940             -11.2980
       180        2.0000           -0.4145239             -11.2798
       181        2.0000           -0.4137730             -11.2593
       182        2.0000           -0.4075836             -11.0909
       183        2.0000           -0.4057763             -11.0417 (HOMO)
       184        0.0000           -0.3783936             -10.2966 (LUMO)
       185        0.0000           -0.3767128             -10.2509
       186                         -0.3412028              -9.2846
       187                         -0.3382394              -9.2040
       188                         -0.3370529              -9.1717
       ...                                ...                  ...
       352                          1.0953107              29.8049
      -------------------------------------------------------------
                  HL-Gap            0.0273827 Eh            0.7451 eV
             Fermi-level           -0.3920935 Eh          -10.6694 eV

 SCC (total)                   0 d,  0 h,  0 min,  0.583 sec
 SCC setup                      ...        0 min,  0.002 sec (  0.397%)
 Dispersion                     ...        0 min,  0.005 sec (  0.810%)
 integral evaluation            ...        0 min,  0.045 sec (  7.682%)
 zeroth order Hamiltonian       ...        0 min,  0.001 sec (  0.189%)
 iterations                     ...        0 min,  0.500 sec ( 85.670%)
 molecular gradient             ...        0 min,  0.028 sec (  4.763%)
 printout                       ...        0 min,  0.003 sec (  0.471%)

         :::::::::::::::::::::::::::::::::::::::::::::::::::::
         ::                     SUMMARY                     ::
         :::::::::::::::::::::::::::::::::::::::::::::::::::::
         :: total energy            -200.210851283627 Eh    ::
         :: gradient norm              0.198300014711 Eh/a0 ::
         :: HOMO-LUMO gap              0.745121903778 eV    ::
         ::.................................................::
         :: SCC energy              -203.804492006258 Eh    ::
         :: -> isotropic ES            0.163738056610 Eh    ::
         :: -> anisotropic ES          0.013786375416 Eh    ::
         :: -> anisotropic XC          0.204896646656 Eh    ::
         :: -> dispersion             -0.154526024673 Eh    ::
         :: repulsion energy           3.593482601055 Eh    ::
         :: add. restraining           0.000000000000 Eh    ::
         :::::::::::::::::::::::::::::::::::::::::::::::::::::

      ----------------------------------------------------------- 
     |                   =====================                   |
     |                        A N C O P T                        |
     |                   =====================                   |
     |               Approximate Normal Coordinate               |
     |                Rational Function Optimizer                |
      ----------------------------------------------------------- 

          ...................................................
          :                      SETUP                      :
          :.................................................:
          :   optimization level            normal          :
          :   max. optcycles                   321          :
          :   ANC micro-cycles                  20          :
          :   degrees of freedom               315          :
          :.................................................:
          :   RF solver                   davidson          :
          :   input Hessian                  false          :
          :   write xtbopt.log                true          :
          :   linear?                        false          :
          :   energy convergence         0.5000000E-05 Eh   :
          :   grad. convergence          0.1000000E-02 Eh/α :
          :   maximium RF displ.         2.0000000          :
          :   Hlow (freq-cutoff)         0.5000000E-02      :
          :   Hmax (freq-cutoff)         5.0000000          :
          :   S6 in model hess.         20.0000000          :
          ...................................................

generating ANC from model Hessian ...
Using Lindh-Hessian (1995)
 Shifting diagonal of input Hessian by   4.990051867800634E-003
 Lowest  eigenvalues of input Hessian
   -0.000000   -0.000000    0.000000    0.000000    0.000000    0.000000
    0.005000    0.005013    0.005019    0.005031    0.005061    0.005077
    0.005137    0.005178    0.005297    0.005363    0.005615    0.005674
 Highest eigenvalues
    2.559559    2.569200    2.574083    2.577834    2.578393    2.584508
 

........................................................................
.............................. CYCLE    1 ..............................
........................................................................
   1   -203.8044920 -0.203804E+03  0.154E-04    0.75       0.0  T
   2   -203.8044920  0.769802E-09  0.152E-04    0.75      63.5  T
   3   -203.8044920 -0.218563E-08  0.657E-05    0.75     147.1  T
     SCC iter.                  ...        0 min,  0.115 sec
     gradient                   ...        0 min,  0.035 sec
 * total energy  :  -200.2108512 Eh     change        0.1132302E-06 Eh
   gradient norm :     0.1983006 Eh/α   predicted     0.0000000E+00 (-100.00%)
   displ. norm   :     0.4003483 α      lambda       -0.3836599E-01
   maximum displ.:     0.0973060 α      in ANC's #56, #74, #41, ...

........................................................................
.............................. CYCLE    2 ..............................
........................................................................
   1   -203.9379606 -0.203938E+03  0.247E-01    0.72       0.0  T
   2   -203.9382643 -0.303700E-03  0.136E-01    0.75       1.0  T
   3   -203.9376505  0.613830E-03  0.948E-02    0.73       1.0  T
   4   -203.9383982 -0.747677E-03  0.311E-02    0.75       1.0  T
   5   -203.9384538 -0.556650E-04  0.183E-02    0.74       1.0  T
   6   -203.9384821 -0.282902E-04  0.706E-03    0.74       1.4  T
   7   -203.9384850 -0.285234E-05  0.380E-03    0.74       2.5  T
   8   -203.9384864 -0.140993E-05  0.131E-03    0.74       7.4  T
     SCC iter.                  ...        0 min,  0.468 sec
     gradient                   ...        0 min,  0.023 sec
 * total energy  :  -200.2354001 Eh     change       -0.2454893E-01 Eh
   gradient norm :     0.0707692 Eh/α   predicted    -0.2225771E-01 (  -9.33%)
   displ. norm   :     0.5168194 α      lambda       -0.1333031E-01
   maximum displ.:     0.1785859 α      in ANC's #56, #41, #54, ...

........................................................................
.............................. CYCLE    3 ..............................
........................................................................
   1   -203.9593248 -0.203959E+03  0.214E-01    0.72       0.0  T
   2   -203.9594219 -0.970357E-04  0.121E-01    0.73       1.0  T
   3   -203.9587492  0.672662E-03  0.842E-02    0.72       1.0  T
   4   -203.9595052 -0.755942E-03  0.238E-02    0.73       1.0  T
   5   -203.9595405 -0.352935E-04  0.136E-02    0.73       1.0  T
   6   -203.9595538 -0.133309E-04  0.573E-03    0.73       1.7  T
   7   -203.9595564 -0.257791E-05  0.288E-03    0.73       3.4  T
   8   -203.9595571 -0.721561E-06  0.116E-03    0.73       8.3  T
     SCC iter.                  ...        0 min,  0.235 sec
     gradient                   ...        0 min,  0.022 sec
 * total energy  :  -200.2438204 Eh     change       -0.8420289E-02 Eh
   gradient norm :     0.0282090 Eh/α   predicted    -0.8445679E-02 (   0.30%)
   displ. norm   :     0.6128185 α      lambda       -0.7967760E-02
   maximum displ.:     0.1808159 α      in ANC's #37, #33, #56, ...

........................................................................
.............................. CYCLE    4 ..............................
........................................................................
   1   -203.9548413 -0.203955E+03  0.245E-01    0.69       0.0  T
   2   -203.9550633 -0.221999E-03  0.141E-01    0.69       1.0  T
   3   -203.9547923  0.270926E-03  0.753E-02    0.69       1.0  T
   4   -203.9550825 -0.290220E-03  0.289E-02    0.69       1.0  T
   5   -203.9551752 -0.926349E-04  0.784E-03    0.69       1.2  T
   6   -203.9551758 -0.629764E-06  0.570E-03    0.69       1.7  T
   7   -203.9551782 -0.243002E-05  0.227E-03    0.69       4.3  T
     SCC iter.                  ...        0 min,  0.231 sec
     gradient                   ...        0 min,  0.023 sec
 * total energy  :  -200.2480288 Eh     change       -0.4208396E-02 Eh
   gradient norm :     0.0422570 Eh/α   predicted    -0.5480018E-02 (  30.22%)
   displ. norm   :     0.5327225 α      lambda       -0.5333631E-02
   maximum displ.:     0.1782750 α      in ANC's #37, #20, #17, ...

........................................................................
.............................. CYCLE    5 ..............................
........................................................................
   1   -203.9646737 -0.203965E+03  0.177E-01    0.69       0.0  T
   2   -203.9647343 -0.605668E-04  0.102E-01    0.69       1.0  T
   3   -203.9643156  0.418638E-03  0.641E-02    0.70       1.0  T
   4   -203.9647056 -0.389935E-03  0.264E-02    0.69       1.0  T
   5   -203.9647950 -0.893983E-04  0.711E-03    0.69       1.4  T
   6   -203.9647965 -0.152317E-05  0.436E-03    0.69       2.2  T
   7   -203.9647978 -0.128965E-05  0.163E-03    0.69       5.9  T
     SCC iter.                  ...        0 min,  0.227 sec
     gradient                   ...        0 min,  0.021 sec
 * total energy  :  -200.2521806 Eh     change       -0.4151805E-02 Eh
   gradient norm :     0.0258031 Eh/α   predicted    -0.3423700E-02 ( -17.54%)
   displ. norm   :     0.6617809 α      lambda       -0.4379992E-02
   maximum displ.:     0.1844211 α      in ANC's #17, #20, #37, ...

........................................................................
.............................. CYCLE    6 ..............................
........................................................................
   1   -203.9727906 -0.203973E+03  0.207E-01    0.70       0.0  T
   2   -203.9728165 -0.258765E-04  0.119E-01    0.69       1.0  T
   3   -203.9720262  0.790266E-03  0.825E-02    0.70       1.0  T
   4   -203.9728661 -0.839905E-03  0.183E-02    0.69       1.0  T
   5   -203.9728960 -0.298606E-04  0.873E-03    0.69       1.1  T
   6   -203.9728999 -0.394018E-05  0.455E-03    0.69       2.1  T
   7   -203.9729019 -0.193704E-05  0.167E-03    0.69       5.8  T
     SCC iter.                  ...        0 min,  0.226 sec
     gradient                   ...        0 min,  0.027 sec
 * total energy  :  -200.2556514 Eh     change       -0.3470837E-02 Eh
   gradient norm :     0.0200463 Eh/α   predicted    -0.3149113E-02 (  -9.27%)
   displ. norm   :     0.7305605 α      lambda       -0.3919904E-02
   maximum displ.:     0.2402884 α      in ANC's #37, #17, #20, ...

........................................................................
.............................. CYCLE    7 ..............................
........................................................................
   1   -203.9805675 -0.203981E+03  0.242E-01    0.69       0.0  T
   2   -203.9806224 -0.548975E-04  0.137E-01    0.69       1.0  T
   3   -203.9801007  0.521685E-03  0.690E-02    0.70       1.0  T
   4   -203.9806632 -0.562512E-03  0.152E-02    0.69       1.0  T
   5   -203.9806803 -0.170606E-04  0.861E-03    0.69       1.1  T
   6   -203.9806852 -0.489044E-05  0.426E-03    0.69       2.3  T
   7   -203.9806869 -0.170381E-05  0.161E-03    0.69       6.0  T
     SCC iter.                  ...        0 min,  0.207 sec
     gradient                   ...        0 min,  0.021 sec
 * total energy  :  -200.2584624 Eh     change       -0.2810992E-02 Eh
   gradient norm :     0.0238167 Eh/α   predicted    -0.3006029E-02 (   6.94%)
   displ. norm   :     0.7042900 α      lambda       -0.3548038E-02
   maximum displ.:     0.2098982 α      in ANC's #17, #7, #20, ...

........................................................................
.............................. CYCLE    8 ..............................
........................................................................
   1   -203.9824157 -0.203982E+03  0.233E-01    0.69       0.0  T
   2   -203.9824682 -0.524793E-04  0.133E-01    0.69       1.0  T
   3   -203.9819589  0.509297E-03  0.696E-02    0.70       1.0  T
   4   -203.9825139 -0.554982E-03  0.141E-02    0.69       1.0  T
   5   -203.9825296 -0.157190E-04  0.670E-03    0.69       1.4  T
   6   -203.9825311 -0.150247E-05  0.435E-03    0.69       2.2  T
   7   -203.9825327 -0.165894E-05  0.145E-03    0.69       6.7  T
     SCC iter.                  ...        0 min,  0.414 sec
     gradient                   ...        0 min,  0.024 sec
 * total energy  :  -200.2611156 Eh     change       -0.2653152E-02 Eh
   gradient norm :     0.0221641 Eh/α   predicted    -0.2653984E-02 (   0.03%)
   displ. norm   :     0.6893103 α      lambda       -0.3016958E-02
   maximum displ.:     0.2878477 α      in ANC's #17, #7, #15, ...

........................................................................
.............................. CYCLE    9 ..............................
........................................................................
   1   -203.9828161 -0.203983E+03  0.253E-01    0.69       0.0  T
   2   -203.9828742 -0.580907E-04  0.143E-01    0.68       1.0  T
   3   -203.9823223  0.551859E-03  0.723E-02    0.70       1.0  T
   4   -203.9829308 -0.608539E-03  0.133E-02    0.69       1.0  T
   5   -203.9829393 -0.851144E-05  0.753E-03    0.69       1.3  T
   6   -203.9829413 -0.197266E-05  0.462E-03    0.69       2.1  T
   7   -203.9829433 -0.203068E-05  0.156E-03    0.69       6.2  T
     SCC iter.                  ...        0 min,  0.232 sec
     gradient                   ...        0 min,  0.019 sec
 * total energy  :  -200.2630122 Eh     change       -0.1896583E-02 Eh
   gradient norm :     0.0305854 Eh/α   predicted    -0.2225232E-02 (  17.33%)
   displ. norm   :     0.6518069 α      lambda       -0.3393813E-02
   maximum displ.:     0.2189542 α      in ANC's #7, #17, #14, ...

........................................................................
.............................. CYCLE   10 ..............................
........................................................................
   1   -203.9968725 -0.203997E+03  0.236E-01    0.70       0.0  T
   2   -203.9969375 -0.650423E-04  0.133E-01    0.70       1.0  T
   3   -203.9963821  0.555452E-03  0.747E-02    0.70       1.0  T
   4   -203.9969908 -0.608692E-03  0.180E-02    0.70       1.0  T
   5   -203.9970151 -0.243038E-04  0.790E-03    0.70       1.2  T
   6   -203.9970156 -0.505534E-06  0.540E-03    0.70       1.8  T
   7   -203.9970186 -0.299618E-05  0.160E-03    0.70       6.0  T
     SCC iter.                  ...        0 min,  0.186 sec
     gradient                   ...        0 min,  0.020 sec
 * total energy  :  -200.2649230 Eh     change       -0.1910881E-02 Eh
   gradient norm :     0.0274392 Eh/α   predicted    -0.2417839E-02 (  26.53%)
   displ. norm   :     0.6212594 α      lambda       -0.2876119E-02
   maximum displ.:     0.2190202 α      in ANC's #17, #7, #14, ...

........................................................................
.............................. CYCLE   11 ..............................
........................................................................
   1   -203.9822751 -0.203982E+03  0.256E-01    0.70       0.0  T
   2   -203.9824623 -0.187175E-03  0.144E-01    0.69       1.0  T
   3   -203.9819869  0.475379E-03  0.729E-02    0.70       1.0  T
   4   -203.9825034 -0.516518E-03  0.215E-02    0.69       1.0  T
   5   -203.9825458 -0.423905E-04  0.991E-03    0.69       1.0  T
   6   -203.9825530 -0.718825E-05  0.512E-03    0.69       1.9  T
   7   -203.9825548 -0.183712E-05  0.249E-03    0.69       3.9  T
   8   -203.9825550 -0.201989E-06  0.142E-03    0.69       6.8  T
     SCC iter.                  ...        0 min,  0.268 sec
     gradient                   ...        0 min,  0.025 sec
 * total energy  :  -200.2659479 Eh     change       -0.1024860E-02 Eh
   gradient norm :     0.0429810 Eh/α   predicted    -0.1993098E-02 (  94.48%)
   displ. norm   :     0.4307976 α      lambda       -0.3306874E-02
   maximum displ.:     0.1647627 α      in ANC's #7, #17, #14, ...

........................................................................
.............................. CYCLE   12 ..............................
........................................................................
   1   -203.9937284 -0.203994E+03  0.171E-01    0.70       0.0  T
   2   -203.9940524 -0.323988E-03  0.909E-02    0.70       1.0  T
   3   -203.9938754  0.176974E-03  0.508E-02    0.70       1.0  T
   4   -203.9939468 -0.714264E-04  0.351E-02    0.70       1.0  T
   5   -203.9940836 -0.136785E-03  0.107E-02    0.70       1.0  T
   6   -203.9940960 -0.123618E-04  0.359E-03    0.70       2.7  T
   7   -203.9940961 -0.996069E-07  0.241E-03    0.70       4.0  T
   8   -203.9940964 -0.372940E-06  0.956E-04    0.70      10.1  T
     SCC iter.                  ...        0 min,  0.239 sec
     gradient                   ...        0 min,  0.020 sec
 * total energy  :  -200.2665331 Eh     change       -0.5852381E-03 Eh
   gradient norm :     0.0415490 Eh/α   predicted    -0.1960300E-02 ( 234.96%)
   displ. norm   :     0.4393014 α      lambda       -0.4596573E-02
   maximum displ.:     0.1394713 α      in ANC's #7, #17, #52, ...

........................................................................
.............................. CYCLE   13 ..............................
........................................................................
   1   -203.9969871 -0.203997E+03  0.267E-01    0.71       0.0  T
   2   -203.9972630 -0.275930E-03  0.148E-01    0.69       1.0  T
   3   -203.9967956  0.467403E-03  0.725E-02    0.71       1.0  T
   4   -203.9972697 -0.474081E-03  0.279E-02    0.69       1.0  T
   5   -203.9973556 -0.858659E-04  0.982E-03    0.70       1.0  T
   6   -203.9973638 -0.825492E-05  0.490E-03    0.69       2.0  T
   7   -203.9973656 -0.183828E-05  0.245E-03    0.70       4.0  T
   8   -203.9973657 -0.900830E-07  0.133E-03    0.70       7.3  T
     SCC iter.                  ...        0 min,  0.211 sec
     gradient                   ...        0 min,  0.027 sec
 * total energy  :  -200.2677186 Eh     change       -0.1185447E-02 Eh
   gradient norm :     0.0377990 Eh/α   predicted    -0.2741824E-02 ( 131.29%)
   displ. norm   :     0.3951551 α      lambda       -0.2973675E-02
   maximum displ.:     0.1653871 α      in ANC's #17, #7, #14, ...

........................................................................
.............................. CYCLE   14 ..............................
........................................................................
   1   -203.9866097 -0.203987E+03  0.198E-01    0.71       0.0  T
   2   -203.9868425 -0.232792E-03  0.113E-01    0.71       1.0  T
   3   -203.9866780  0.164536E-03  0.629E-02    0.72       1.0  T
   4   -203.9868505 -0.172544E-03  0.312E-02    0.71       1.0  T
   5   -203.9869677 -0.117198E-03  0.707E-03    0.71       1.4  T
   6   -203.9869675  0.182261E-06  0.521E-03    0.71       1.9  T
   7   -203.9869697 -0.221233E-05  0.200E-03    0.71       4.8  T
     SCC iter.                  ...        0 min,  0.183 sec
     gradient                   ...        0 min,  0.019 sec
 * total energy  :  -200.2686409 Eh     change       -0.9222730E-03 Eh
   gradient norm :     0.0461948 Eh/α   predicted    -0.1719013E-02 (  86.39%)
   displ. norm   :     0.4081355 α      lambda       -0.3253384E-02
   maximum displ.:     0.1489592 α      in ANC's #7, #31, #10, ...

........................................................................
.............................. CYCLE   15 ..............................
........................................................................
   1   -204.0051927 -0.204005E+03  0.199E-01    0.70       0.0  T
   2   -204.0052473 -0.546428E-04  0.111E-01    0.71       1.0  T
   3   -204.0047865  0.460882E-03  0.673E-02    0.70       1.0  T
   4   -204.0052874 -0.500987E-03  0.154E-02    0.70       1.0  T
   5   -204.0053093 -0.218461E-04  0.806E-03    0.70       1.2  T
   6   -204.0053146 -0.528953E-05  0.329E-03    0.70       2.9  T
   7   -204.0053153 -0.701386E-06  0.163E-03    0.70       5.9  T
     SCC iter.                  ...        0 min,  0.383 sec
     gradient                   ...        0 min,  0.021 sec
 * total energy  :  -200.2686309 Eh     change        0.9910062E-05 Eh
   gradient norm :     0.0605767 Eh/α   predicted    -0.1897659E-02 (*******%)
   displ. norm   :     0.3420696 α      lambda       -0.4124149E-02
   maximum displ.:     0.1289856 α      in ANC's #14, #7, #17, ...

........................................................................
.............................. CYCLE   16 ..............................
........................................................................
   1   -203.9949138 -0.203995E+03  0.191E-01    0.70       0.0  T
   2   -203.9952642 -0.350432E-03  0.110E-01    0.70       1.0  T
   3   -203.9951328  0.131479E-03  0.680E-02    0.70       1.0  T
   4   -203.9951758 -0.430477E-04  0.447E-02    0.70       1.0  T
   5   -203.9954414 -0.265604E-03  0.844E-03    0.70       1.1  T
   6   -203.9954464 -0.500169E-05  0.471E-03    0.70       2.1  T
   7   -203.9954477 -0.124041E-05  0.247E-03    0.70       3.9  T
     SCC iter.                  ...        0 min,  0.203 sec
     gradient                   ...        0 min,  0.033 sec
 * total energy  :  -200.2699913 Eh     change       -0.1360395E-02 Eh
   gradient norm :     0.0357564 Eh/α   predicted    -0.2303361E-02 (  69.32%)
   displ. norm   :     0.3532958 α      lambda       -0.2433070E-02
   maximum displ.:     0.1504826 α      in ANC's #7, #17, #31, ...

........................................................................
.............................. CYCLE   17 ..............................
........................................................................
   1   -203.9912257 -0.203991E+03  0.172E-01    0.72       0.0  T
   2   -203.9914117 -0.186012E-03  0.100E-01    0.71       1.0  T
   3   -203.9911804  0.231273E-03  0.658E-02    0.72       1.0  T
   4   -203.9913854 -0.205029E-03  0.370E-02    0.71       1.0  T
   5   -203.9915635 -0.178088E-03  0.737E-03    0.72       1.3  T
   6   -203.9915666 -0.305916E-05  0.447E-03    0.72       2.2  T
   7   -203.9915677 -0.115115E-05  0.217E-03    0.72       4.5  T
     SCC iter.                  ...        0 min,  0.205 sec
     gradient                   ...        0 min,  0.030 sec
 * total energy  :  -200.2709925 Eh     change       -0.1001200E-02 Eh
   gradient norm :     0.0214046 Eh/α   predicted    -0.1368381E-02 (  36.67%)
   displ. norm   :     0.4620571 α      lambda       -0.1317207E-02
   maximum displ.:     0.2189344 α      in ANC's #7, #14, #17, ...

........................................................................
.............................. CYCLE   18 ..............................
........................................................................
   1   -203.9925689 -0.203993E+03  0.150E-01    0.71       0.0  T
   2   -203.9925876 -0.186337E-04  0.837E-02    0.71       1.0  T
   3   -203.9922941  0.293525E-03  0.496E-02    0.71       1.0  T
   4   -203.9926089 -0.314878E-03  0.108E-02    0.71       1.0  T
   5   -203.9926138 -0.487935E-05  0.707E-03    0.71       1.4  T
   6   -203.9926183 -0.443674E-05  0.260E-03    0.71       3.7  T
   7   -203.9926189 -0.605403E-06  0.951E-04    0.71      10.2  T
     SCC iter.                  ...        0 min,  0.219 sec
     gradient                   ...        0 min,  0.031 sec
 * total energy  :  -200.2718941 Eh     change       -0.9015860E-03 Eh
   gradient norm :     0.0151728 Eh/α   predicted    -0.7992135E-03 ( -11.35%)
   displ. norm   :     0.5540043 α      lambda       -0.1437480E-02
   maximum displ.:     0.2808189 α      in ANC's #7, #14, #10, ...

........................................................................
.............................. CYCLE   19 ..............................
........................................................................
   1   -204.0092861 -0.204009E+03  0.174E-01    0.72       0.0  T
   2   -204.0093250 -0.388770E-04  0.964E-02    0.72       1.0  T
   3   -204.0089836  0.341320E-03  0.546E-02    0.72       1.0  T
   4   -204.0093297 -0.346036E-03  0.176E-02    0.72       1.0  T
   5   -204.0093613 -0.315822E-04  0.707E-03    0.72       1.4  T
   6   -204.0093635 -0.227468E-05  0.360E-03    0.72       2.7  T
   7   -204.0093648 -0.125361E-05  0.112E-03    0.72       8.6  T
   8   -204.0093648 -0.521413E-07  0.716E-04    0.72      13.5  T
     SCC iter.                  ...        0 min,  0.243 sec
     gradient                   ...        0 min,  0.036 sec
 * total energy  :  -200.2726459 Eh     change       -0.7517884E-03 Eh
   gradient norm :     0.0247817 Eh/α   predicted    -0.9393353E-03 (  24.95%)
   displ. norm   :     0.5940913 α      lambda       -0.1420736E-02
   maximum displ.:     0.3072363 α      in ANC's #7, #14, #9, ...

........................................................................
.............................. CYCLE   20 ..............................
........................................................................
   1   -204.0032504 -0.204003E+03  0.183E-01    0.72       0.0  T
   2   -204.0032725 -0.220546E-04  0.102E-01    0.72       1.0  T
   3   -204.0029026  0.369901E-03  0.539E-02    0.72       1.0  T
   4   -204.0032989 -0.396282E-03  0.124E-02    0.72       1.0  T
   5   -204.0033052 -0.632395E-05  0.788E-03    0.72       1.2  T
   6   -204.0033102 -0.504523E-05  0.332E-03    0.72       2.9  T
   7   -204.0033114 -0.118798E-05  0.100E-03    0.72       9.6  T
     SCC iter.                  ...        0 min,  0.188 sec
     gradient                   ...        0 min,  0.031 sec
 * total energy  :  -200.2735165 Eh     change       -0.8705553E-03 Eh
   gradient norm :     0.0194198 Eh/α   predicted    -0.9610887E-03 (  10.40%)
   displ. norm   :     0.5971544 α      lambda       -0.1344995E-02
   maximum displ.:     0.3026541 α      in ANC's #7, #17, #14, ...
 * RMSD in coord.:     0.8286536 α      energy gain  -0.6266518E-01 Eh

generating ANC from model Hessian ...
Using Lindh-Hessian (1995)
 Shifting diagonal of input Hessian by   5.017362154616586E-003
 Lowest  eigenvalues of input Hessian
    0.005000    0.005016   -0.000000   -0.000000    0.000000    0.000000
    0.000000    0.000000    0.005033    0.005044    0.005065    0.005085
    0.005156    0.005186    0.005203    0.005218    0.005310    0.005353
 Highest eigenvalues
    2.640860    2.642706    2.647534    2.649040    2.649986    2.651372
 

........................................................................
.............................. CYCLE   21 ..............................
........................................................................
   1   -203.9902834 -0.203990E+03  0.188E-01    0.73       0.0  T
   2   -203.9903127 -0.292625E-04  0.106E-01    0.72       1.0  T
   3   -203.9898488  0.463907E-03  0.624E-02    0.73       1.0  T
   4   -203.9903465 -0.497768E-03  0.132E-02    0.72       1.0  T
   5   -203.9903579 -0.113539E-04  0.732E-03    0.72       1.3  T
   6   -203.9903610 -0.315546E-05  0.374E-03    0.72       2.6  T
   7   -203.9903625 -0.144413E-05  0.114E-03    0.72       8.5  T
   8   -203.9903625 -0.562190E-07  0.720E-04    0.72      13.4  T
   9   -203.9903626 -0.309811E-07  0.330E-04    0.72      29.3  T
     SCC iter.                  ...        0 min,  0.255 sec
     gradient                   ...        0 min,  0.021 sec
 * total energy  :  -200.2742135 Eh     change       -0.6970835E-03 Eh
   gradient norm :     0.0167070 Eh/α   predicted     0.0000000E+00 (-100.00%)
   displ. norm   :     0.2632922 α      lambda       -0.8712849E-03
   maximum displ.:     0.0913805 α      in ANC's #12, #8, #13, ...

........................................................................
.............................. CYCLE   22 ..............................
........................................................................
   1   -203.9995450 -0.204000E+03  0.147E-01    0.71       0.0  T
   2   -203.9995614 -0.164439E-04  0.821E-02    0.72       1.0  T
   3   -203.9992786  0.282854E-03  0.470E-02    0.71       1.0  T
   4   -203.9995860 -0.307368E-03  0.703E-03    0.71       1.4  T
   5   -203.9995893 -0.329407E-05  0.393E-03    0.72       2.5  T
   6   -203.9995902 -0.917295E-06  0.211E-03    0.71       4.6  T
   7   -203.9995905 -0.314671E-06  0.843E-04    0.71      11.5  T
     SCC iter.                  ...        0 min,  0.356 sec
     gradient                   ...        0 min,  0.020 sec
 * total energy  :  -200.2744446 Eh     change       -0.2310379E-03 Eh
   gradient norm :     0.0128668 Eh/α   predicted    -0.4658426E-03 ( 101.63%)
   displ. norm   :     0.3394292 α      lambda       -0.1519059E-02
   maximum displ.:     0.2005326 α      in ANC's #7, #11, #23, ...

........................................................................
.............................. CYCLE   23 ..............................
........................................................................
   1   -204.0199636 -0.204020E+03  0.200E-01    0.70       0.0  T
   2   -204.0199966 -0.330158E-04  0.112E-01    0.71       1.0  T
   3   -204.0194907  0.505892E-03  0.624E-02    0.69       1.0  T
   4   -204.0200393 -0.548587E-03  0.995E-03    0.70       1.0  T
   5   -204.0200471 -0.773163E-05  0.496E-03    0.70       1.9  T
   6   -204.0200482 -0.113191E-05  0.292E-03    0.70       3.3  T
   7   -204.0200488 -0.619190E-06  0.107E-03    0.70       9.0  T
     SCC iter.                  ...        0 min,  0.182 sec
     gradient                   ...        0 min,  0.020 sec
 * total energy  :  -200.2747575 Eh     change       -0.3128926E-03 Eh
   gradient norm :     0.0230132 Eh/α   predicted    -0.8470384E-03 ( 170.71%)
   displ. norm   :     0.1835423 α      lambda       -0.9958277E-03
   maximum displ.:     0.0535748 α      in ANC's #12, #8, #11, ...

........................................................................
.............................. CYCLE   24 ..............................
........................................................................
   1   -204.0124114 -0.204012E+03  0.115E-01    0.71       0.0  T
   2   -204.0124249 -0.135457E-04  0.649E-02    0.71       1.0  T
   3   -204.0123595  0.654396E-04  0.239E-02    0.71       1.0  T
   4   -204.0124305 -0.710444E-04  0.652E-03    0.71       1.5  T
   5   -204.0124347 -0.420317E-05  0.291E-03    0.71       3.3  T
   6   -204.0124349 -0.115760E-06  0.182E-03    0.71       5.3  T
     SCC iter.                  ...        0 min,  0.161 sec
     gradient                   ...        0 min,  0.020 sec
 * total energy  :  -200.2751242 Eh     change       -0.3666925E-03 Eh
   gradient norm :     0.0145883 Eh/α   predicted    -0.5146909E-03 (  40.36%)
   displ. norm   :     0.2535049 α      lambda       -0.1109936E-02
   maximum displ.:     0.1028626 α      in ANC's #7, #12, #15, ...

........................................................................
.............................. CYCLE   25 ..............................
........................................................................
   1   -203.9959585 -0.203996E+03  0.140E-01    0.71       0.0  T
   2   -203.9959829 -0.244298E-04  0.783E-02    0.71       1.0  T
   3   -203.9959017  0.811519E-04  0.282E-02    0.71       1.0  T
   4   -203.9959889 -0.871863E-04  0.841E-03    0.71       1.2  T
   5   -203.9959968 -0.784387E-05  0.339E-03    0.71       2.9  T
   6   -203.9959974 -0.591746E-06  0.194E-03    0.71       5.0  T
   7   -203.9959976 -0.239090E-06  0.700E-04    0.71      13.8  T
     SCC iter.                  ...        0 min,  0.205 sec
     gradient                   ...        0 min,  0.020 sec
 * total energy  :  -200.2753775 Eh     change       -0.2533412E-03 Eh
   gradient norm :     0.0182210 Eh/α   predicted    -0.5906358E-03 ( 133.14%)
   displ. norm   :     0.2473539 α      lambda       -0.8919736E-03
   maximum displ.:     0.0915704 α      in ANC's #7, #12, #11, ...

........................................................................
.............................. CYCLE   26 ..............................
........................................................................
   1   -203.9986032 -0.203999E+03  0.117E-01    0.70       0.0  T
   2   -203.9986157 -0.125718E-04  0.682E-02    0.70       1.0  T
   3   -203.9982594  0.356312E-03  0.524E-02    0.70       1.0  T
   4   -203.9986341 -0.374677E-03  0.126E-02    0.70       1.0  T
   5   -203.9986527 -0.185511E-04  0.360E-03    0.70       2.7  T
   6   -203.9986528 -0.163208E-06  0.251E-03    0.70       3.8  T
   7   -203.9986532 -0.427148E-06  0.841E-04    0.70      11.5  T
     SCC iter.                  ...        0 min,  0.267 sec
     gradient                   ...        0 min,  0.022 sec
 * total energy  :  -200.2757276 Eh     change       -0.3501271E-03 Eh
   gradient norm :     0.0160920 Eh/α   predicted    -0.4732807E-03 (  35.17%)
   displ. norm   :     0.3228559 α      lambda       -0.8511275E-03
   maximum displ.:     0.1530809 α      in ANC's #7, #13, #11, ...

........................................................................
.............................. CYCLE   27 ..............................
........................................................................
   1   -204.0089806 -0.204009E+03  0.118E-01    0.70       0.0  T
   2   -204.0090043 -0.236463E-04  0.660E-02    0.70       1.0  T
   3   -204.0089383  0.660219E-04  0.264E-02    0.70       1.0  T
   4   -204.0090094 -0.711583E-04  0.912E-03    0.70       1.1  T
   5   -204.0090177 -0.827872E-05  0.356E-03    0.70       2.7  T
   6   -204.0090178 -0.107512E-06  0.237E-03    0.70       4.1  T
   7   -204.0090184 -0.585180E-06  0.780E-04    0.70      12.4  T
     SCC iter.                  ...        0 min,  0.207 sec
     gradient                   ...        0 min,  0.020 sec
 * total energy  :  -200.2761057 Eh     change       -0.3780212E-03 Eh
   gradient norm :     0.0112250 Eh/α   predicted    -0.4699241E-03 (  24.31%)
   displ. norm   :     0.4344172 α      lambda       -0.8397232E-03
   maximum displ.:     0.1930005 α      in ANC's #7, #12, #11, ...

........................................................................
.............................. CYCLE   28 ..............................
........................................................................
   1   -204.0111589 -0.204011E+03  0.151E-01    0.70       0.0  T
   2   -204.0111962 -0.372706E-04  0.857E-02    0.70       1.0  T
   3   -204.0110756  0.120595E-03  0.348E-02    0.70       1.0  T
   4   -204.0111990 -0.123397E-03  0.128E-02    0.70       1.0  T
   5   -204.0112188 -0.197616E-04  0.424E-03    0.70       2.3  T
   6   -204.0112189 -0.107238E-06  0.317E-03    0.70       3.1  T
   7   -204.0112199 -0.985331E-06  0.912E-04    0.70      10.6  T
   8   -204.0112199 -0.401614E-07  0.522E-04    0.70      18.5  T
     SCC iter.                  ...        0 min,  0.248 sec
     gradient                   ...        0 min,  0.020 sec
 * total energy  :  -200.2761305 Eh     change       -0.2480688E-04 Eh
   gradient norm :     0.0215455 Eh/α   predicted    -0.4991008E-03 (1911.95%)
   displ. norm   :     0.3174543 α      lambda       -0.1224821E-02
   maximum displ.:     0.1469259 α      in ANC's #7, #13, #11, ...

........................................................................
.............................. CYCLE   29 ..............................
........................................................................
   1   -204.0038200 -0.204004E+03  0.103E-01    0.70       0.0  T
   2   -204.0038371 -0.171161E-04  0.593E-02    0.70       1.0  T
   3   -204.0036964  0.140776E-03  0.344E-02    0.70       1.0  T
   4   -204.0038350 -0.138671E-03  0.120E-02    0.70       1.0  T
   5   -204.0038541 -0.190886E-04  0.269E-03    0.70       3.6  T
   6   -204.0038543 -0.159085E-06  0.182E-03    0.70       5.3  T
   7   -204.0038545 -0.164097E-06  0.657E-04    0.70      14.7  T
     SCC iter.                  ...        0 min,  0.432 sec
     gradient                   ...        0 min,  0.025 sec
 * total energy  :  -200.2768423 Eh     change       -0.7118019E-03 Eh
   gradient norm :     0.0083882 Eh/α   predicted    -0.6741319E-03 (  -5.29%)
   displ. norm   :     0.4796656 α      lambda       -0.7822822E-03
   maximum displ.:     0.2100427 α      in ANC's #12, #7, #11, ...

........................................................................
.............................. CYCLE   30 ..............................
........................................................................
   1   -203.9981584 -0.203998E+03  0.153E-01    0.70       0.0  T
   2   -203.9981969 -0.385247E-04  0.879E-02    0.70       1.0  T
   3   -203.9978206  0.376351E-03  0.557E-02    0.70       1.0  T
   4   -203.9981927 -0.372091E-03  0.191E-02    0.70       1.0  T
   5   -203.9982416 -0.488989E-04  0.399E-03    0.70       2.4  T
   6   -203.9982417 -0.139040E-06  0.277E-03    0.70       3.5  T
   7   -203.9982422 -0.490208E-06  0.936E-04    0.70      10.3  T
     SCC iter.                  ...        0 min,  0.203 sec
     gradient                   ...        0 min,  0.030 sec
 * total energy  :  -200.2768311 Eh     change        0.1114777E-04 Eh
   gradient norm :     0.0167668 Eh/α   predicted    -0.4811373E-03 (*******%)
   displ. norm   :     0.3552837 α      lambda       -0.1137816E-02
   maximum displ.:     0.1646950 α      in ANC's #7, #11, #10, ...

........................................................................
.............................. CYCLE   31 ..............................
........................................................................
   1   -204.0028788 -0.204003E+03  0.118E-01    0.70       0.0  T
   2   -204.0028930 -0.141807E-04  0.660E-02    0.70       1.0  T
   3   -204.0027650  0.128030E-03  0.325E-02    0.70       1.0  T
   4   -204.0029026 -0.137607E-03  0.688E-03    0.70       1.4  T
   5   -204.0029068 -0.421056E-05  0.351E-03    0.70       2.8  T
   6   -204.0029076 -0.781621E-06  0.180E-03    0.70       5.4  T
   7   -204.0029078 -0.246602E-06  0.636E-04    0.70      15.2  T
     SCC iter.                  ...        0 min,  0.204 sec
     gradient                   ...        0 min,  0.020 sec
 * total energy  :  -200.2774442 Eh     change       -0.6130677E-03 Eh
   gradient norm :     0.0093212 Eh/α   predicted    -0.6407204E-03 (   4.51%)
   displ. norm   :     0.4509542 α      lambda       -0.9390881E-03
   maximum displ.:     0.2017152 α      in ANC's #7, #11, #12, ...

........................................................................
.............................. CYCLE   32 ..............................
........................................................................
   1   -204.0046481 -0.204005E+03  0.166E-01    0.70       0.0  T
   2   -204.0047252 -0.771296E-04  0.940E-02    0.70       1.0  T
   3   -204.0046292  0.960380E-04  0.365E-02    0.70       1.0  T
   4   -204.0047374 -0.108278E-03  0.140E-02    0.70       1.0  T
   5   -204.0047602 -0.227431E-04  0.412E-03    0.70       2.3  T
   6   -204.0047600  0.195692E-06  0.302E-03    0.70       3.2  T
   7   -204.0047607 -0.725157E-06  0.105E-03    0.70       9.2  T
   8   -204.0047608 -0.683110E-07  0.610E-04    0.70      15.8  T
     SCC iter.                  ...        0 min,  0.276 sec
     gradient                   ...        0 min,  0.021 sec
 * total energy  :  -200.2773192 Eh     change        0.1250195E-03 Eh
   gradient norm :     0.0174512 Eh/α   predicted    -0.5650326E-03 (-551.96%)
   displ. norm   :     0.3081938 α      lambda       -0.1183321E-02
   maximum displ.:     0.1374579 α      in ANC's #7, #12, #11, ...

........................................................................
.............................. CYCLE   33 ..............................
........................................................................
   1   -204.0045386 -0.204005E+03  0.110E-01    0.70       0.0  T
   2   -204.0045664 -0.278333E-04  0.632E-02    0.70       1.0  T
   3   -204.0043608  0.205586E-03  0.428E-02    0.70       1.0  T
   4   -204.0045585 -0.197715E-03  0.166E-02    0.70       1.0  T
   5   -204.0045968 -0.382286E-04  0.315E-03    0.70       3.1  T
   6   -204.0045971 -0.346494E-06  0.207E-03    0.70       4.7  T
   7   -204.0045973 -0.207870E-06  0.802E-04    0.70      12.1  T
     SCC iter.                  ...        0 min,  0.200 sec
     gradient                   ...        0 min,  0.020 sec
 * total energy  :  -200.2780318 Eh     change       -0.7125916E-03 Eh
   gradient norm :     0.0063575 Eh/α   predicted    -0.6478648E-03 (  -9.08%)
   displ. norm   :     0.5236717 α      lambda       -0.5103328E-03
   maximum displ.:     0.2465901 α      in ANC's #7, #11, #12, ...

........................................................................
.............................. CYCLE   34 ..............................
........................................................................
   1   -204.0029519 -0.204003E+03  0.119E-01    0.70       0.0  T
   2   -204.0029654 -0.135208E-04  0.678E-02    0.70       1.0  T
   3   -204.0027158  0.249600E-03  0.438E-02    0.70       1.0  T
   4   -204.0029770 -0.261116E-03  0.899E-03    0.70       1.1  T
   5   -204.0029852 -0.818586E-05  0.395E-03    0.70       2.4  T
   6   -204.0029863 -0.111372E-05  0.183E-03    0.70       5.3  T
   7   -204.0029864 -0.159436E-06  0.845E-04    0.70      11.4  T
     SCC iter.                  ...        0 min,  0.210 sec
     gradient                   ...        0 min,  0.020 sec
 * total energy  :  -200.2782634 Eh     change       -0.2316063E-03 Eh
   gradient norm :     0.0124441 Eh/α   predicted    -0.3251462E-03 (  40.39%)
   displ. norm   :     0.5776109 α      lambda       -0.6901256E-03
   maximum displ.:     0.2503633 α      in ANC's #7, #12, #11, ...

........................................................................
.............................. CYCLE   35 ..............................
........................................................................
   1   -204.0072534 -0.204007E+03  0.129E-01    0.70       0.0  T
   2   -204.0072575 -0.416891E-05  0.736E-02    0.70       1.0  T
   3   -204.0069810  0.276583E-03  0.449E-02    0.70       1.0  T
   4   -204.0072741 -0.293099E-03  0.609E-03    0.70       1.6  T
   5   -204.0072759 -0.182335E-05  0.377E-03    0.70       2.6  T
   6   -204.0072768 -0.937609E-06  0.136E-03    0.70       7.1  T
   7   -204.0072769 -0.819183E-07  0.751E-04    0.70      12.9  T
     SCC iter.                  ...        0 min,  0.207 sec
     gradient                   ...        0 min,  0.172 sec
 * total energy  :  -200.2786445 Eh     change       -0.3810900E-03 Eh
   gradient norm :     0.0144801 Eh/α   predicted    -0.4601917E-03 (  20.76%)
   displ. norm   :     0.5733568 α      lambda       -0.7166599E-03
   maximum displ.:     0.2817930 α      in ANC's #7, #11, #12, ...

........................................................................
.............................. CYCLE   36 ..............................
........................................................................
   1   -204.0025156 -0.204003E+03  0.158E-01    0.70       0.0  T
   2   -204.0025826 -0.670580E-04  0.901E-02    0.69       1.0  T
   3   -204.0021756  0.407003E-03  0.580E-02    0.69       1.0  T
   4   -204.0025885 -0.412847E-03  0.167E-02    0.69       1.0  T
   5   -204.0026167 -0.282270E-04  0.787E-03    0.69       1.2  T
   6   -204.0026233 -0.660246E-05  0.246E-03    0.69       3.9  T
   7   -204.0026234 -0.637800E-07  0.161E-03    0.69       6.0  T
   8   -204.0026235 -0.173277E-06  0.596E-04    0.69      16.2  T
     SCC iter.                  ...        0 min,  0.237 sec
     gradient                   ...        0 min,  0.020 sec
 * total energy  :  -200.2788499 Eh     change       -0.2054624E-03 Eh
   gradient norm :     0.0169265 Eh/α   predicted    -0.4761370E-03 ( 131.74%)
   displ. norm   :     0.3644709 α      lambda       -0.6551773E-03
   maximum displ.:     0.1601198 α      in ANC's #7, #11, #10, ...

........................................................................
.............................. CYCLE   37 ..............................
........................................................................
   1   -204.0070794 -0.204007E+03  0.880E-02    0.70       0.0  T
   2   -204.0071075 -0.281250E-04  0.499E-02    0.70       1.0  T
   3   -204.0070351  0.723713E-04  0.260E-02    0.70       1.0  T
   4   -204.0071005 -0.653620E-04  0.110E-02    0.70       1.0  T
   5   -204.0071151 -0.146127E-04  0.388E-03    0.70       2.5  T
   6   -204.0071166 -0.151791E-05  0.142E-03    0.70       6.8  T
   7   -204.0071167 -0.687313E-07  0.796E-04    0.70      12.1  T
     SCC iter.                  ...        0 min,  0.233 sec
     gradient                   ...        0 min,  0.025 sec
 * total energy  :  -200.2792763 Eh     change       -0.4264260E-03 Eh
   gradient norm :     0.0076231 Eh/α   predicted    -0.3711040E-03 ( -12.97%)
   displ. norm   :     0.5635116 α      lambda       -0.5395768E-03
   maximum displ.:     0.2510737 α      in ANC's #7, #11, #8, ...

........................................................................
.............................. CYCLE   38 ..............................
........................................................................
   1   -204.0093809 -0.204009E+03  0.131E-01    0.69       0.0  T
   2   -204.0094045 -0.235376E-04  0.750E-02    0.69       1.0  T
   3   -204.0091790  0.225520E-03  0.416E-02    0.69       1.0  T
   4   -204.0094153 -0.236298E-03  0.869E-03    0.69       1.1  T
   5   -204.0094222 -0.689180E-05  0.448E-03    0.69       2.2  T
   6   -204.0094241 -0.194152E-05  0.171E-03    0.69       5.7  T
   7   -204.0094241 -0.118468E-07  0.103E-03    0.69       9.4  T
     SCC iter.                  ...        0 min,  0.201 sec
     gradient                   ...        0 min,  0.020 sec
 * total energy  :  -200.2793443 Eh     change       -0.6798615E-04 Eh
   gradient norm :     0.0192702 Eh/α   predicted    -0.3554634E-03 ( 422.85%)
   displ. norm   :     0.4276042 α      lambda       -0.7274895E-03
   maximum displ.:     0.1881222 α      in ANC's #7, #10, #11, ...

........................................................................
.............................. CYCLE   39 ..............................
........................................................................
   1   -204.0082128 -0.204008E+03  0.111E-01    0.69       0.0  T
   2   -204.0082230 -0.102078E-04  0.633E-02    0.69       1.0  T
   3   -204.0080276  0.195487E-03  0.381E-02    0.69       1.0  T
   4   -204.0082347 -0.207104E-03  0.629E-03    0.69       1.5  T
   5   -204.0082380 -0.330841E-05  0.334E-03    0.69       2.9  T
   6   -204.0082388 -0.868184E-06  0.141E-03    0.69       6.9  T
   7   -204.0082389 -0.598642E-07  0.718E-04    0.69      13.5  T
     SCC iter.                  ...        0 min,  0.230 sec
     gradient                   ...        0 min,  0.020 sec
 * total energy  :  -200.2797710 Eh     change       -0.4266842E-03 Eh
   gradient norm :     0.0129255 Eh/α   predicted    -0.4302543E-03 (   0.84%)
   displ. norm   :     0.5376634 α      lambda       -0.4475858E-03
   maximum displ.:     0.2941817 α      in ANC's #7, #11, #12, ...

........................................................................
.............................. CYCLE   40 ..............................
........................................................................
   1   -204.0022884 -0.204002E+03  0.120E-01    0.69       0.0  T
   2   -204.0022964 -0.798537E-05  0.690E-02    0.69       1.0  T
   3   -204.0020929  0.203500E-03  0.418E-02    0.69       1.0  T
   4   -204.0023072 -0.214291E-03  0.820E-03    0.69       1.2  T
   5   -204.0023146 -0.735890E-05  0.318E-03    0.69       3.0  T
   6   -204.0023152 -0.602293E-06  0.153E-03    0.69       6.3  T
   7   -204.0023153 -0.129684E-06  0.610E-04    0.69      15.9  T
     SCC iter.                  ...        0 min,  0.231 sec
     gradient                   ...        0 min,  0.031 sec
 * total energy  :  -200.2798970 Eh     change       -0.1260058E-03 Eh
   gradient norm :     0.0243537 Eh/α   predicted    -0.2884866E-03 ( 128.95%)
   displ. norm   :     0.3948617 α      lambda       -0.4854084E-03
   maximum displ.:     0.1449158 α      in ANC's #7, #11, #10, ...

........................................................................
.............................. CYCLE   41 ..............................
........................................................................
   1   -204.0085525 -0.204009E+03  0.785E-02    0.69       0.0  T
   2   -204.0085530 -0.536802E-06  0.458E-02    0.69       1.0  T
   3   -204.0084199  0.133140E-03  0.314E-02    0.69       1.0  T
   4   -204.0085602 -0.140335E-03  0.449E-03    0.69       2.2  T
   5   -204.0085622 -0.198103E-05  0.209E-03    0.69       4.6  T
   6   -204.0085625 -0.304389E-06  0.889E-04    0.69      10.9  T
     SCC iter.                  ...        0 min,  0.179 sec
     gradient                   ...        0 min,  0.020 sec
 * total energy  :  -200.2802219 Eh     change       -0.3248462E-03 Eh
   gradient norm :     0.0059301 Eh/α   predicted    -0.2805502E-03 ( -13.64%)
   displ. norm   :     0.6776694 α      lambda       -0.3179184E-03
   maximum displ.:     0.3139888 α      in ANC's #7, #11, #12, ...

........................................................................
.............................. CYCLE   42 ..............................
........................................................................
   1   -204.0002247 -0.204000E+03  0.124E-01    0.69       0.0  T
   2   -204.0002258 -0.109403E-05  0.727E-02    0.69       1.0  T
   3   -203.9999166  0.309138E-03  0.478E-02    0.68       1.0  T
   4   -204.0002408 -0.324133E-03  0.668E-03    0.68       1.4  T
   5   -204.0002452 -0.443792E-05  0.292E-03    0.69       3.3  T
   6   -204.0002456 -0.411214E-06  0.156E-03    0.68       6.2  T
   7   -204.0002457 -0.121974E-06  0.641E-04    0.69      15.1  T
     SCC iter.                  ...        0 min,  0.393 sec
     gradient                   ...        0 min,  0.020 sec
 * total energy  :  -200.2804336 Eh     change       -0.2117090E-03 Eh
   gradient norm :     0.0094913 Eh/α   predicted    -0.2319606E-03 (   9.57%)
   displ. norm   :     0.5488754 α      lambda       -0.4887233E-03
   maximum displ.:     0.1960194 α      in ANC's #7, #23, #14, ...
 * RMSD in coord.:     0.8032595 α      energy gain  -0.6917113E-02 Eh

generating ANC from model Hessian ...
Using Lindh-Hessian (1995)
 Shifting diagonal of input Hessian by   5.034761060923978E-003
 Lowest  eigenvalues of input Hessian
    0.005000    0.005032   -0.000000    0.000000    0.000000    0.000000
    0.000000    0.000000    0.005048    0.005063    0.005077    0.005098
    0.005195    0.005207    0.005238    0.005312    0.005367    0.005397
 Highest eigenvalues
    2.648739    2.651530    2.652753    2.653486    2.653863    2.670496
 

........................................................................
.............................. CYCLE   43 ..............................
........................................................................
   1   -204.0167945 -0.204017E+03  0.143E-01    0.68       0.0  T
   2   -204.0167979 -0.332256E-05  0.824E-02    0.68       1.0  T
   3   -204.0164093  0.388608E-03  0.531E-02    0.68       1.0  T
   4   -204.0168223 -0.413061E-03  0.697E-03    0.68       1.4  T
   5   -204.0168248 -0.252430E-05  0.393E-03    0.68       2.5  T
   6   -204.0168256 -0.778384E-06  0.156E-03    0.68       6.2  T
   7   -204.0168258 -0.165551E-06  0.724E-04    0.68      13.4  T
   8   -204.0168258 -0.177031E-07  0.458E-04    0.68      21.1  T
     SCC iter.                  ...        0 min,  0.241 sec
     gradient                   ...        0 min,  0.022 sec
 * total energy  :  -200.2805912 Eh     change       -0.1576666E-03 Eh
   gradient norm :     0.0154801 Eh/α   predicted     0.0000000E+00 (-100.00%)
   displ. norm   :     0.1871169 α      lambda       -0.6017078E-03
   maximum displ.:     0.0751499 α      in ANC's #11, #25, #57, ...

........................................................................
.............................. CYCLE   44 ..............................
........................................................................
   1   -204.0066441 -0.204007E+03  0.146E-01    0.68       0.0  T
   2   -204.0066572 -0.130964E-04  0.815E-02    0.68       1.0  T
   3   -204.0062947  0.362538E-03  0.509E-02    0.68       1.0  T
   4   -204.0066860 -0.391350E-03  0.533E-03    0.68       1.8  T
   5   -204.0066880 -0.198751E-05  0.290E-03    0.68       3.3  T
   6   -204.0066883 -0.319279E-06  0.126E-03    0.68       7.7  T
     SCC iter.                  ...        0 min,  0.194 sec
     gradient                   ...        0 min,  0.020 sec
 * total energy  :  -200.2803964 Eh     change        0.1948394E-03 Eh
   gradient norm :     0.0132080 Eh/α   predicted    -0.3113885E-03 (-259.82%)
   displ. norm   :     0.1748025 α      lambda       -0.1138339E-02
   maximum displ.:     0.0708313 α      in ANC's #23, #1, #17, ...

........................................................................
.............................. CYCLE   45 ..............................
........................................................................
   1   -204.0049738 -0.204005E+03  0.139E-01    0.68       0.0  T
   2   -204.0049911 -0.172372E-04  0.776E-02    0.68       1.0  T
   3   -204.0047745  0.216535E-03  0.400E-02    0.68       1.0  T
   4   -204.0050110 -0.236441E-03  0.529E-03    0.68       1.8  T
   5   -204.0050130 -0.205391E-05  0.264E-03    0.68       3.7  T
   6   -204.0050132 -0.194760E-06  0.127E-03    0.68       7.6  T
     SCC iter.                  ...        0 min,  0.185 sec
     gradient                   ...        0 min,  0.022 sec
 * total energy  :  -200.2805636 Eh     change       -0.1672092E-03 Eh
   gradient norm :     0.0205624 Eh/α   predicted    -0.5865641E-03 ( 250.80%)
   displ. norm   :     0.1800254 α      lambda       -0.1176722E-02
   maximum displ.:     0.0792889 α      in ANC's #57, #56, #10, ...

........................................................................
.............................. CYCLE   46 ..............................
........................................................................
   1   -204.0074598 -0.204007E+03  0.157E-01    0.68       0.0  T
   2   -204.0074836 -0.238626E-04  0.878E-02    0.68       1.0  T
   3   -204.0072489  0.234743E-03  0.425E-02    0.68       1.0  T
   4   -204.0075075 -0.258621E-03  0.595E-03    0.68       1.6  T
   5   -204.0075095 -0.200465E-05  0.364E-03    0.68       2.7  T
   6   -204.0075100 -0.467140E-06  0.192E-03    0.68       5.0  T
     SCC iter.                  ...        0 min,  0.172 sec
     gradient                   ...        0 min,  0.020 sec
 * total energy  :  -200.2803199 Eh     change        0.2436923E-03 Eh
   gradient norm :     0.0136718 Eh/α   predicted    -0.6074352E-03 (-349.26%)
   displ. norm   :     0.1580455 α      lambda       -0.1371746E-02
   maximum displ.:     0.0577822 α      in ANC's #57, #15, #33, ...

........................................................................
.............................. CYCLE   47 ..............................
........................................................................
   1   -204.0121152 -0.204012E+03  0.137E-01    0.68       0.0  T
   2   -204.0121376 -0.223619E-04  0.758E-02    0.68       1.0  T
   3   -204.0121081  0.294580E-04  0.178E-02    0.68       1.0  T
   4   -204.0121488 -0.406597E-04  0.338E-03    0.68       2.9  T
   5   -204.0121494 -0.615651E-06  0.212E-03    0.68       4.6  T
   6   -204.0121496 -0.237846E-06  0.897E-04    0.68      10.8  T
     SCC iter.                  ...        0 min,  0.215 sec
     gradient                   ...        0 min,  0.025 sec
 * total energy  :  -200.2808362 Eh     change       -0.5162775E-03 Eh
   gradient norm :     0.0100922 Eh/α   predicted    -0.7030048E-03 (  36.17%)
   displ. norm   :     0.1719703 α      lambda       -0.6755789E-03
   maximum displ.:     0.0707563 α      in ANC's #57, #17, #32, ...

........................................................................
.............................. CYCLE   48 ..............................
........................................................................
   1   -204.0056974 -0.204006E+03  0.145E-01    0.69       0.0  T
   2   -204.0057048 -0.738786E-05  0.822E-02    0.68       1.0  T
   3   -204.0051462  0.558543E-03  0.631E-02    0.69       1.0  T
   4   -204.0057466 -0.600351E-03  0.716E-03    0.68       1.3  T
   5   -204.0057501 -0.350942E-05  0.370E-03    0.68       2.6  T
   6   -204.0057504 -0.339112E-06  0.234E-03    0.68       4.1  T
   7   -204.0057507 -0.292022E-06  0.827E-04    0.68      11.7  T
     SCC iter.                  ...        0 min,  0.233 sec
     gradient                   ...        0 min,  0.020 sec
 * total energy  :  -200.2805300 Eh     change        0.3062190E-03 Eh
   gradient norm :     0.0148829 Eh/α   predicted    -0.3477798E-03 (-213.57%)
   displ. norm   :     0.1158176 α      lambda       -0.9987736E-03
   maximum displ.:     0.0593010 α      in ANC's #57, #56, #11, ...

........................................................................
.............................. CYCLE   49 ..............................
........................................................................
   1   -204.0088734 -0.204009E+03  0.101E-01    0.68       0.0  T
   2   -204.0088845 -0.110726E-04  0.563E-02    0.68       1.0  T
   3   -204.0088145  0.699789E-04  0.233E-02    0.68       1.0  T
   4   -204.0088923 -0.777836E-04  0.408E-03    0.68       2.4  T
   5   -204.0088937 -0.134893E-05  0.200E-03    0.68       4.8  T
   6   -204.0088937 -0.719715E-07  0.127E-03    0.68       7.6  T
     SCC iter.                  ...        0 min,  0.177 sec
     gradient                   ...        0 min,  0.179 sec
 * total energy  :  -200.2810008 Eh     change       -0.4708490E-03 Eh
   gradient norm :     0.0070193 Eh/α   predicted    -0.5060865E-03 (   7.48%)
   displ. norm   :     0.0979264 α      lambda       -0.2342897E-03
   maximum displ.:     0.0329609 α      in ANC's #8, #15, #12, ...

........................................................................
.............................. CYCLE   50 ..............................
........................................................................
   1   -204.0090229 -0.204009E+03  0.790E-02    0.68       0.0  T
   2   -204.0090279 -0.500397E-05  0.447E-02    0.69       1.0  T
   3   -204.0089202  0.107647E-03  0.290E-02    0.68       1.0  T
   4   -204.0090354 -0.115205E-03  0.522E-03    0.68       1.9  T
   5   -204.0090380 -0.257703E-05  0.228E-03    0.68       4.2  T
   6   -204.0090381 -0.115308E-06  0.154E-03    0.68       6.3  T
     SCC iter.                  ...        0 min,  0.187 sec
     gradient                   ...        0 min,  0.030 sec
 * total energy  :  -200.2809074 Eh     change        0.9343667E-04 Eh
   gradient norm :     0.0090745 Eh/α   predicted    -0.1182689E-03 (-226.58%)
   displ. norm   :     0.0878796 α      lambda       -0.3640216E-03
   maximum displ.:     0.0356066 α      in ANC's #7, #17, #11, ...

........................................................................
.............................. CYCLE   51 ..............................
........................................................................
   1   -204.0096216 -0.204010E+03  0.684E-02    0.69       0.0  T
   2   -204.0096249 -0.329004E-05  0.382E-02    0.68       1.0  T
   3   -204.0095594  0.655118E-04  0.223E-02    0.69       1.0  T
   4   -204.0096303 -0.709561E-04  0.289E-03    0.68       3.3  T
   5   -204.0096310 -0.650570E-06  0.148E-03    0.68       6.5  T
   6   -204.0096311 -0.627798E-07  0.876E-04    0.68      11.0  T
     SCC iter.                  ...        0 min,  0.174 sec
     gradient                   ...        0 min,  0.020 sec
 * total energy  :  -200.2810748 Eh     change       -0.1674354E-03 Eh
   gradient norm :     0.0046983 Eh/α   predicted    -0.1834203E-03 (   9.55%)
   displ. norm   :     0.1264180 α      lambda       -0.2498950E-03
   maximum displ.:     0.0372486 α      in ANC's #11, #25, #9, ...

........................................................................
.............................. CYCLE   52 ..............................
........................................................................
   1   -204.0079734 -0.204008E+03  0.832E-02    0.69       0.0  T
   2   -204.0079752 -0.173614E-05  0.480E-02    0.68       1.0  T
   3   -204.0077470  0.228207E-03  0.421E-02    0.69       1.0  T
   4   -204.0079932 -0.246244E-03  0.746E-03    0.69       1.3  T
   5   -204.0079987 -0.551652E-05  0.276E-03    0.68       3.5  T
   6   -204.0079991 -0.336498E-06  0.177E-03    0.68       5.5  T
   7   -204.0079992 -0.135374E-06  0.668E-04    0.68      14.5  T
     SCC iter.                  ...        0 min,  0.233 sec
     gradient                   ...        0 min,  0.020 sec
 * total energy  :  -200.2809803 Eh     change        0.9453727E-04 Eh
   gradient norm :     0.0106097 Eh/α   predicted    -0.1269460E-03 (-234.28%)
   displ. norm   :     0.0825847 α      lambda       -0.3681350E-03
   maximum displ.:     0.0396976 α      in ANC's #14, #11, #57, ...

........................................................................
.............................. CYCLE   53 ..............................
........................................................................
   1   -204.0090597 -0.204009E+03  0.583E-02    0.69       0.0  T
   2   -204.0090634 -0.366489E-05  0.329E-02    0.69       1.0  T
   3   -204.0089999  0.634668E-04  0.222E-02    0.68       1.0  T
   4   -204.0090669 -0.669651E-04  0.505E-03    0.69       1.9  T
   5   -204.0090697 -0.288651E-05  0.163E-03    0.69       5.9  T
   6   -204.0090698 -0.241447E-07  0.122E-03    0.69       7.9  T
     SCC iter.                  ...        0 min,  0.185 sec
     gradient                   ...        0 min,  0.020 sec
 * total energy  :  -200.2811702 Eh     change       -0.1899479E-03 Eh
   gradient norm :     0.0043994 Eh/α   predicted    -0.1853237E-03 (  -2.43%)
   displ. norm   :     0.1744682 α      lambda       -0.3048849E-03
   maximum displ.:     0.0459138 α      in ANC's #11, #7, #24, ...

........................................................................
.............................. CYCLE   54 ..............................
........................................................................
   1   -204.0077540 -0.204008E+03  0.112E-01    0.69       0.0  T
   2   -204.0077717 -0.177162E-04  0.623E-02    0.69       1.0  T
   3   -204.0076787  0.929567E-04  0.285E-02    0.68       1.0  T
   4   -204.0077763 -0.976072E-04  0.882E-03    0.68       1.1  T
   5   -204.0077853 -0.898297E-05  0.282E-03    0.68       3.4  T
   6   -204.0077853  0.567173E-07  0.217E-03    0.68       4.5  T
   7   -204.0077857 -0.422840E-06  0.569E-04    0.68      17.0  T
     SCC iter.                  ...        0 min,  0.202 sec
     gradient                   ...        0 min,  0.020 sec
 * total energy  :  -200.2808784 Eh     change        0.2918500E-03 Eh
   gradient norm :     0.0163966 Eh/α   predicted    -0.1570946E-03 (-153.83%)
   displ. norm   :     0.1027400 α      lambda       -0.7739353E-03
   maximum displ.:     0.0457107 α      in ANC's #14, #24, #11, ...

........................................................................
.............................. CYCLE   55 ..............................
........................................................................
   1   -204.0098698 -0.204010E+03  0.824E-02    0.69       0.0  T
   2   -204.0098782 -0.839327E-05  0.461E-02    0.69       1.0  T
   3   -204.0097866  0.915897E-04  0.272E-02    0.69       1.0  T
   4   -204.0098845 -0.978834E-04  0.621E-03    0.69       1.6  T
   5   -204.0098888 -0.427996E-05  0.203E-03    0.69       4.8  T
   6   -204.0098889 -0.865821E-07  0.144E-03    0.69       6.7  T
   7   -204.0098890 -0.133440E-06  0.401E-04    0.69      24.1  T
     SCC iter.                  ...        0 min,  0.236 sec
     gradient                   ...        0 min,  0.020 sec
 * total energy  :  -200.2812872 Eh     change       -0.4087871E-03 Eh
   gradient norm :     0.0027694 Eh/α   predicted    -0.3910533E-03 (  -4.34%)
   displ. norm   :     0.1826787 α      lambda       -0.1603963E-03
   maximum displ.:     0.0597638 α      in ANC's #11, #5, #12, ...

........................................................................
.............................. CYCLE   56 ..............................
........................................................................
   1   -204.0081697 -0.204008E+03  0.838E-02    0.69       0.0  T
   2   -204.0081752 -0.548844E-05  0.470E-02    0.69       1.0  T
   3   -204.0081138  0.614370E-04  0.220E-02    0.69       1.0  T
   4   -204.0081806 -0.668521E-04  0.373E-03    0.69       2.6  T
   5   -204.0081815 -0.904356E-06  0.214E-03    0.69       4.5  T
   6   -204.0081817 -0.178774E-06  0.120E-03    0.69       8.0  T
   7   -204.0081818 -0.111267E-06  0.398E-04    0.69      24.3  T
   8   -204.0081818 -0.713680E-08  0.230E-04    0.69      42.1  T
     SCC iter.                  ...        0 min,  0.235 sec
     gradient                   ...        0 min,  0.030 sec
 * total energy  :  -200.2812750 Eh     change        0.1214259E-04 Eh
   gradient norm :     0.0062051 Eh/α   predicted    -0.8287592E-04 (-782.52%)
   displ. norm   :     0.2339809 α      lambda       -0.2804609E-03
   maximum displ.:     0.0948777 α      in ANC's #11, #5, #4, ...

........................................................................
.............................. CYCLE   57 ..............................
........................................................................
   1   -204.0081490 -0.204008E+03  0.788E-02    0.69       0.0  T
   2   -204.0081529 -0.391471E-05  0.446E-02    0.69       1.0  T
   3   -204.0081229  0.300095E-04  0.155E-02    0.69       1.0  T
   4   -204.0081558 -0.329287E-04  0.357E-03    0.69       2.7  T
   5   -204.0081563 -0.466838E-06  0.239E-03    0.69       4.1  T
   6   -204.0081567 -0.419756E-06  0.714E-04    0.69      13.5  T
     SCC iter.                  ...        0 min,  0.328 sec
     gradient                   ...        0 min,  0.020 sec
 * total energy  :  -200.2814763 Eh     change       -0.2012979E-03 Eh
   gradient norm :     0.0044957 Eh/α   predicted    -0.1479085E-03 ( -26.52%)
   displ. norm   :     0.4734677 α      lambda       -0.2954150E-03
   maximum displ.:     0.1927152 α      in ANC's #11, #5, #4, ...

........................................................................
.............................. CYCLE   58 ..............................
........................................................................
   1   -204.0082350 -0.204008E+03  0.133E-01    0.69       0.0  T
   2   -204.0082451 -0.100680E-04  0.758E-02    0.69       1.0  T
   3   -204.0082072  0.378210E-04  0.197E-02    0.69       1.0  T
   4   -204.0082496 -0.423101E-04  0.605E-03    0.69       1.6  T
   5   -204.0082505 -0.919917E-06  0.433E-03    0.69       2.2  T
   6   -204.0082522 -0.175179E-05  0.139E-03    0.69       7.0  T
   7   -204.0082524 -0.145253E-06  0.624E-04    0.69      15.5  T
     SCC iter.                  ...        0 min,  0.230 sec
     gradient                   ...        0 min,  0.020 sec
 * total energy  :  -200.2816665 Eh     change       -0.1902181E-03 Eh
   gradient norm :     0.0051139 Eh/α   predicted    -0.1808208E-03 (  -4.94%)
   displ. norm   :     0.6466342 α      lambda       -0.3843239E-03
   maximum displ.:     0.2645251 α      in ANC's #11, #5, #4, ...

........................................................................
.............................. CYCLE   59 ..............................
........................................................................
   1   -204.0053532 -0.204005E+03  0.180E-01    0.69       0.0  T
   2   -204.0053705 -0.173239E-04  0.103E-01    0.69       1.0  T
   3   -204.0052785  0.919789E-04  0.292E-02    0.69       1.0  T
   4   -204.0053803 -0.101772E-03  0.812E-03    0.69       1.2  T
   5   -204.0053808 -0.506909E-06  0.622E-03    0.69       1.6  T
   6   -204.0053846 -0.384879E-05  0.164E-03    0.69       5.9  T
   7   -204.0053848 -0.188370E-06  0.889E-04    0.69      10.9  T
   8   -204.0053849 -0.347193E-07  0.498E-04    0.69      19.4  T
     SCC iter.                  ...        0 min,  0.264 sec
     gradient                   ...        0 min,  0.020 sec
 * total energy  :  -200.2819254 Eh     change       -0.2588360E-03 Eh
   gradient norm :     0.0084028 Eh/α   predicted    -0.2725127E-03 (   5.28%)
   displ. norm   :     0.5619522 α      lambda       -0.3686259E-03
   maximum displ.:     0.2345150 α      in ANC's #11, #5, #4, ...

........................................................................
.............................. CYCLE   60 ..............................
........................................................................
   1   -204.0044943 -0.204004E+03  0.145E-01    0.69       0.0  T
   2   -204.0045046 -0.103216E-04  0.832E-02    0.69       1.0  T
   3   -204.0044529  0.516766E-04  0.232E-02    0.69       1.0  T
   4   -204.0045108 -0.579159E-04  0.628E-03    0.69       1.5  T
   5   -204.0045103  0.501775E-06  0.488E-03    0.69       2.0  T
   6   -204.0045127 -0.242752E-05  0.139E-03    0.69       7.0  T
   7   -204.0045129 -0.157696E-06  0.758E-04    0.69      12.8  T
     SCC iter.                  ...        0 min,  0.203 sec
     gradient                   ...        0 min,  0.020 sec
 * total energy  :  -200.2822603 Eh     change       -0.3348912E-03 Eh
   gradient norm :     0.0078668 Eh/α   predicted    -0.2425225E-03 ( -27.58%)
   displ. norm   :     0.6061784 α      lambda       -0.7200091E-03
   maximum displ.:     0.2500340 α      in ANC's #11, #5, #4, ...

........................................................................
.............................. CYCLE   61 ..............................
........................................................................
   1   -204.0182301 -0.204018E+03  0.160E-01    0.69       0.0  T
   2   -204.0182579 -0.277982E-04  0.912E-02    0.69       1.0  T
   3   -204.0181067  0.151182E-03  0.354E-02    0.68       1.0  T
   4   -204.0182588 -0.152042E-03  0.118E-02    0.69       1.0  T
   5   -204.0182709 -0.121097E-04  0.584E-03    0.68       1.7  T
   6   -204.0182738 -0.286319E-05  0.253E-03    0.68       3.8  T
   7   -204.0182741 -0.367914E-06  0.129E-03    0.69       7.5  T
     SCC iter.                  ...        0 min,  0.241 sec
[...]
    22   6 C      3.012    -0.026    28.626     8.777
    23   6 C      3.075     0.028    27.301     8.567
    24   6 C      1.899     0.115    28.283     8.589
    25   7 N      0.911    -0.202    25.399     7.289
    26   6 C      2.989    -0.034    28.838     8.809
    27   6 C      3.078     0.039    27.051     8.527
    28   6 C      3.078     0.041    26.994     8.518
    29   6 C      3.042     0.009    27.769     8.643
    30   6 C      3.013    -0.031    28.759     8.797
    31   6 C      3.077     0.035    27.146     8.542
    32   6 C      2.990    -0.033    28.825     8.807
    33   6 C      1.899     0.118    28.200     8.576
    34   7 N      0.911    -0.206    25.487     7.302
    35   6 C      2.902    -0.024    28.603     8.769
    36   6 C      2.924    -0.038    28.938     8.822
    37   6 C      2.990     0.027    27.400     8.587
    38  16 S      2.360     0.030   139.822    19.902
    39   6 C      2.978     0.035    27.205     8.556
    40   6 C      3.105    -0.014    28.221     8.705
    41   6 C      3.087    -0.047    29.068     8.838
    42   7 N      2.758     0.545    13.538     5.465
    43   8 O      0.930    -0.404    21.735     6.252
    44   8 O      0.932    -0.382    21.297     6.189
    45   6 C      3.091     0.003    27.839     8.648
    46   6 C      3.009    -0.026    28.622     8.776
    47   6 C      3.077     0.030    27.241     8.557
    48   6 C      1.899     0.117    28.222     8.580
    49   7 N      0.911    -0.205    25.467     7.299
    50   6 C      2.992    -0.032    28.785     8.801
    51   6 C      3.072     0.045    26.909     8.505
    52   6 C      3.073     0.042    26.987     8.518
    53   6 C      3.046     0.013    27.691     8.631
    54   6 C      3.007    -0.027    28.649     8.780
    55   6 C      3.074     0.036    27.124     8.539
    56   6 C      2.989    -0.043    29.053     8.842
    57   6 C      1.899     0.117    28.234     8.582
    58   7 N      0.911    -0.198    25.293     7.274
    59   6 C      2.903    -0.016    28.412     8.740
    60   6 C      2.902    -0.029    28.727     8.788
    61   6 C      2.903    -0.005    28.153     8.700
    62   6 C      3.006    -0.026    28.629     8.777
    63   6 C      3.009     0.030    27.309     8.572
    64   6 C      2.947     0.008    27.852     8.656
    65   6 C      1.945     0.124    28.028     8.550
    66   7 N      0.911    -0.231    26.062     7.383
    67   6 C      1.943     0.123    28.070     8.556
    68   7 N      0.911    -0.233    26.112     7.391
    69   6 C      3.024     0.002    27.946     8.671
    70   6 C      3.032    -0.022    28.523     8.760
    71   6 C      2.862     0.227    23.241     7.902
    72   8 O      0.856    -0.373    21.141     6.165
    73   6 C      2.913    -0.017    28.440     8.745
    74   6 C      2.988     0.019    27.577     8.614
    75   6 C      2.987     0.021    27.541     8.608
    76   6 C      2.915    -0.031    28.764     8.795
    77   6 C      2.919    -0.029    28.730     8.790
    78   6 C      2.915    -0.022    28.556     8.763
    79   6 C      2.916    -0.022    28.563     8.764
    80   6 C      2.918    -0.029    28.732     8.790
    81   1 H      0.926     0.064     2.158     2.297
    82   1 H      0.926     0.058     2.227     2.334
    83   1 H      0.926     0.050     2.319     2.382
    84   1 H      0.926     0.047     2.354     2.399
    85   1 H      0.926     0.047     2.363     2.404
    86   1 H      0.926     0.047     2.352     2.398
    87   1 H      0.925     0.080     1.983     2.202
    88   1 H      0.926     0.044     2.394     2.420
    89   1 H      0.926     0.057     2.239     2.340
    90   1 H      0.926     0.053     2.281     2.362
    91   1 H      0.926     0.054     2.270     2.356
    92   1 H      0.925     0.060     2.197     2.318
    93   1 H      0.926     0.061     2.186     2.312
    94   1 H      0.926     0.081     1.968     2.194
    95   1 H      0.926     0.055     2.261     2.351
    96   1 H      0.926     0.061     2.184     2.311
    97   1 H      0.926     0.064     2.156     2.296
    98   1 H      0.926     0.041     2.436     2.441
    99   1 H      0.925     0.067     2.113     2.273
   100   1 H      0.926     0.090     1.878     2.143
   101   1 H      0.925     0.061     2.184     2.311
   102   1 H      0.926     0.061     2.185     2.311
   103   1 H      0.926     0.057     2.234     2.338
   104   1 H      0.926     0.048     2.344     2.394
   105   1 H      0.926     0.044     2.390     2.418
   106   1 H      0.926     0.044     2.399     2.422
   107   1 H      0.926     0.045     2.379     2.412

 Mol. C6AA /au·bohr⁶  :     214770.482804
 Mol. C8AA /au·bohr⁸  :    5705370.767036
 Mol. α(0) /au        :        743.320301


Wiberg/Mayer (AO) data.
largest (>0.10) Wiberg bond orders for each atom
          total WBO             WBO to atom ...
     1  C   3.978        C    2 1.504    C   19 1.104    C    7 1.095
     2  C   3.968        C    1 1.504    C    5 1.098    C    3 1.093
     3  C   3.948        N    4 2.775    C    2 1.093
     4  N   2.982        C    3 2.775
     5  C   3.945        N    6 2.762    C    2 1.098
     6  N   2.978        C    5 2.762
     7  C   3.986        C   12 1.495    C    8 1.191    C    1 1.095
     8  C   3.980        C    9 1.517    C    7 1.191    C   17 1.030
     9  C   3.983        C    8 1.517    C   10 1.274    H   81 0.963
    10  C   3.979        C   16 1.289    C    9 1.274    C   11 1.236
    11  C   3.984        C   13 1.285    C   12 1.280    C   10 1.236
    12  C   3.974        C    7 1.495    C   11 1.280    H   82 0.959
    13  C   3.979        C   14 1.546    C   11 1.285    H   83 0.967    C   16 0.112
    14  C   3.979        C   13 1.546    C   15 1.326    H   84 0.970
    15  C   3.974        C   16 1.544    C   14 1.326    H   85 0.970
    16  C   3.981        C   15 1.544    C   10 1.289    H   86 0.967    C   13 0.112
    17  C   3.927        O   18 1.790    C    8 1.030    C   19 0.993
    18  O   2.064        C   17 1.790
    19  C   3.978        C   20 1.655    C    1 1.104    C   17 0.993
    20  C   3.957        C   19 1.655    C   21 1.123    H   87 0.943
    21  C   3.979        C   22 1.636    C   20 1.123    C   27 1.041
    22  C   3.943        C   21 1.636    C   23 1.085    H   88 0.972
    23  C   3.942        C   26 1.577    C   24 1.119    C   22 1.085
    24  C   3.950        N   25 2.787    C   23 1.119
    25  N   2.968        C   24 2.787    C   26 0.103
    26  C   3.971        C   23 1.577    C   27 1.145    H   89 0.965    N   25 0.103
    27  C   3.945        C   28 1.525    C   26 1.145    C   21 1.041
    28  C   3.952        C   27 1.525    C   32 1.165    C   29 1.032
    29  C   3.978        C   30 1.598    C   35 1.183    C   28 1.032
    30  C   3.902        C   29 1.598    C   31 1.106    H   90 0.971
    31  C   3.934        C   32 1.545    C   33 1.118    C   30 1.106
    32  C   3.953        C   31 1.545    C   28 1.165    H   91 0.961
    33  C   3.949        N   34 2.787    C   31 1.118
    34  N   2.965        C   33 2.787
    35  C   3.963        C   36 1.647    C   29 1.183    H   92 0.949
    36  C   3.982        C   35 1.647    C   37 1.190    H   93 0.952
    37  C   3.940        C   41 1.491    C   36 1.190    S   38 1.104
    38  S   2.625        C   39 1.187    C   37 1.104
    39  C   3.938        C   40 1.389    S   38 1.187    C   45 1.134
    40  C   3.946        C   39 1.389    C   41 1.283    N   42 0.991
    41  C   3.938        C   37 1.491    C   40 1.283    H   94 0.957
    42  N   3.911        O   44 1.442    O   43 1.426    C   40 0.991
    43  O   1.914        N   42 1.426    O   44 0.349
    44  O   1.922        N   42 1.442    O   43 0.349
    45  C   3.976        C   46 1.620    C   39 1.134    C   51 1.040
    46  C   3.927        C   45 1.620    C   47 1.098    H   95 0.970
    47  C   3.931        C   50 1.557    C   48 1.120    C   46 1.098
    48  C   3.949        N   49 2.786    C   47 1.120
    49  N   2.965        C   48 2.786
    50  C   3.960        C   47 1.557    C   51 1.162    H   96 0.964
    51  C   3.945        C   52 1.511    C   50 1.162    C   45 1.040
    52  C   3.949        C   51 1.511    C   56 1.175    C   53 1.034
    53  C   3.977        C   54 1.580    C   59 1.198    C   52 1.034
    54  C   3.891        C   53 1.580    C   55 1.113    H   97 0.969
    55  C   3.932        C   56 1.534    C   57 1.118    C   54 1.113
    56  C   3.944        C   55 1.534    C   52 1.175    H   98 0.968
    57  C   3.950        N   58 2.788    C   55 1.118
    58  N   2.964        C   57 2.788
    59  C   3.942        C   60 1.596    C   53 1.198    H   99 0.953
    60  C   3.968        C   59 1.596    C   61 1.255    H  100 0.949
    61  C   3.954        C   62 1.550    C   60 1.255    H  101 0.948
    62  C   3.919        C   61 1.550    C   63 1.134    C   71 1.021
    63  C   3.976        C   64 1.486    C   62 1.134    C   69 1.093
    64  C   3.924        C   63 1.486    C   67 1.097    C   65 1.095
    65  C   3.946        N   66 2.765    C   64 1.095
    66  N   2.970        C   65 2.765
    67  C   3.946        N   68 2.758    C   64 1.097
    68  N   2.971        C   67 2.758
    69  C   3.983        C   76 1.498    C   70 1.197    C   63 1.093
    70  C   3.980        C   73 1.519    C   69 1.197    C   71 1.033
    71  C   3.924        O   72 1.764    C   70 1.033    C   62 1.021
    72  O   2.046        C   71 1.764
    73  C   3.981        C   70 1.519    C   74 1.272    H  102 0.963
    74  C   3.979        C   80 1.290    C   73 1.272    C   75 1.238
    75  C   3.983        C   77 1.286    C   76 1.277    C   74 1.238
    76  C   3.972        C   69 1.498    C   75 1.277    H  103 0.958
    77  C   3.979        C   78 1.545    C   75 1.286    H  104 0.967    C   80 0.112
    78  C   3.979        C   77 1.545    C   79 1.327    H  105 0.970
    79  C   3.975        C   80 1.543    C   78 1.327    H  106 0.970
    80  C   3.981        C   79 1.543    C   74 1.290    H  107 0.967    C   77 0.112
    81  H   0.995        C    9 0.963
    82  H   0.996        C   12 0.959
    83  H   0.997        C   13 0.967
    84  H   0.997        C   14 0.970
    85  H   0.997        C   15 0.970
    86  H   0.997        C   16 0.967
    87  H   0.992        C   20 0.943
    88  H   0.997        C   22 0.972
    89  H   0.996        C   26 0.965
    90  H   0.996        C   30 0.971
    91  H   0.997        C   32 0.961
    92  H   0.995        C   35 0.949
    93  H   0.996        C   36 0.952
    94  H   0.993        C   41 0.957
    95  H   0.996        C   46 0.970
    96  H   0.995        C   50 0.964
    97  H   0.995        C   54 0.969
    98  H   0.998        C   56 0.968
    99  H   0.995        C   59 0.953
   100  H   0.991        C   60 0.949
   101  H   0.996        C   61 0.948
   102  H   0.995        C   73 0.963
   103  H   0.996        C   76 0.958
   104  H   0.997        C   77 0.967
   105  H   0.998        C   78 0.970
   106  H   0.997        C   79 0.970
   107  H   0.997        C   80 0.967

molecular dipole:
                 x           y           z       tot (Debye)
 q only:       -0.714      -2.158      -0.386
   full:       -1.012      -2.417       0.371       6.727
molecular quadrupole (traceless):
                xx          xy          yy          xz          yz          zz
 q only:       32.128     -60.980     -26.774      32.502     -63.395      -5.354
  q+dip:       42.826     -81.673     -27.137      41.872     -55.635     -15.689
   full:       36.832     -84.128     -38.005      35.752     -52.915       1.173

           -------------------------------------------------
          |                Geometry Summary                 |
           -------------------------------------------------

      molecular mass/u    :     1042.0572000
   center of mass at/Å    :       -3.4368759       9.7338965      -3.7613454
  moments of inertia/u·Å² :        0.9373631E+04   0.8422563E+05   0.9029303E+05
rotational constants/cm⁻¹ :        0.1798410E-02   0.2001485E-03   0.1866991E-03

 * 92 selected distances

     #   Z        #   Z                                     value/Å
     1   6 C      2   6 C                                 1.3680894
     3   6 C      4   7 N                                 1.1472863
     5   6 C      6   7 N                                 1.1481135
     7   6 C      8   6 C                                 1.4275730
     8   6 C      9   6 C                                 1.3657486
     9   6 C     10   6 C                                 1.4127648
    10   6 C     11   6 C                                 1.4258381
     7   6 C     12   6 C                                 1.3698172
    11   6 C     12   6 C                                 1.4129007
    11   6 C     13   6 C                                 1.4098852
    13   6 C     14   6 C                                 1.3682340
    14   6 C     15   6 C                                 1.4031668
    10   6 C     16   6 C                                 1.4088874
    15   6 C     16   6 C                                 1.3686081
    17   6 C     18   8 O                                 1.2083290
    19   6 C     20   6 C                                 1.3496215
    21   6 C     22   6 C                                 1.3578128
    24   6 C     25   7 N                                 1.1470849
    23   6 C     26   6 C                                 1.3632422
    26   6 C     27   6 C                                 1.4433438
    27   6 C     28   6 C                                 1.3656372
    29   6 C     30   6 C                                 1.3637517
    28   6 C     32   6 C                                 1.4385825
    31   6 C     32   6 C                                 1.3672745
    33   6 C     34   7 N                                 1.1471329
    29   6 C     35   6 C                                 1.4252352
    35   6 C     36   6 C                                 1.3518685
    36   6 C     37   6 C                                 1.4234240
    37   6 C     38  16 S                                 1.7522041 (max)
    38  16 S     39   6 C                                 1.7281537
    39   6 C     40   6 C                                 1.3892667
    37   6 C     41   6 C                                 1.3721438
    40   6 C     41   6 C                                 1.4079132
    40   6 C     42   7 N                                 1.4228496
    42   7 N     43   8 O                                 1.2164632
    42   7 N     44   8 O                                 1.2132400
    39   6 C     45   6 C                                 1.4327753
    45   6 C     46   6 C                                 1.3598338
    48   6 C     49   7 N                                 1.1471725
    47   6 C     50   6 C                                 1.3663996
    50   6 C     51   6 C                                 1.4392549
    51   6 C     52   6 C                                 1.3685646
    53   6 C     54   6 C                                 1.3664519
    52   6 C     56   6 C                                 1.4371444
    55   6 C     56   6 C                                 1.3692582
    57   6 C     58   7 N                                 1.1469149
    53   6 C     59   6 C                                 1.4234198
    59   6 C     60   6 C                                 1.3593828
    60   6 C     61   6 C                                 1.4138135
    61   6 C     62   6 C                                 1.3662286
    63   6 C     64   6 C                                 1.3714044
    65   6 C     66   7 N                                 1.1479668
    67   6 C     68   7 N                                 1.1485561
    69   6 C     70   6 C                                 1.4241125
    71   6 C     72   8 O                                 1.2135642
    70   6 C     73   6 C                                 1.3652519
    73   6 C     74   6 C                                 1.4123449
    74   6 C     75   6 C                                 1.4250002
    69   6 C     76   6 C                                 1.3703093
    75   6 C     76   6 C                                 1.4137843
    75   6 C     77   6 C                                 1.4098139
    77   6 C     78   6 C                                 1.3684010
    78   6 C     79   6 C                                 1.4029701
    74   6 C     80   6 C                                 1.4086503
    79   6 C     80   6 C                                 1.3685875
     9   6 C     81   1 H                                 1.0798590
    12   6 C     82   1 H                                 1.0789395
    13   6 C     83   1 H                                 1.0800117
    14   6 C     84   1 H                                 1.0795412
    15   6 C     85   1 H                                 1.0795794
    16   6 C     86   1 H                                 1.0800627
    20   6 C     87   1 H                                 1.0861391
    22   6 C     88   1 H                                 1.0748558
    26   6 C     89   1 H                                 1.0717553 (min)
    30   6 C     90   1 H                                 1.0740413
    32   6 C     91   1 H                                 1.0725084
    35   6 C     92   1 H                                 1.0845387
    36   6 C     93   1 H                                 1.0811807
    41   6 C     94   1 H                                 1.0749039
    46   6 C     95   1 H                                 1.0743280
    50   6 C     96   1 H                                 1.0721887
    54   6 C     97   1 H                                 1.0732888
    56   6 C     98   1 H                                 1.0728728
    59   6 C     99   1 H                                 1.0820272
    60   6 C    100   1 H                                 1.0793420
    61   6 C    101   1 H                                 1.0826844
    73   6 C    102   1 H                                 1.0799600
    76   6 C    103   1 H                                 1.0782395
    77   6 C    104   1 H                                 1.0801170
    78   6 C    105   1 H                                 1.0796692
    79   6 C    106   1 H                                 1.0797116
    80   6 C    107   1 H                                 1.0801890

 * 6 distinct bonds (by element types)

   Z      Z             #   av. dist./Å        max./Å        min./Å
   1 H    6 C          27     1.0782420     1.0861391     1.0717553
   6 C    6 C          50     1.3920758     1.4433438     1.3496215
   6 C    7 N           9     1.1781197     1.4228496     1.1469149
   6 C    8 O           2     1.2109466     1.2135642     1.2083290
   7 N    8 O           2     1.2148516     1.2164632     1.2132400
   6 C   16 S           2     1.7401789     1.7522041     1.7281537


optimized geometry written to: xtbopt.xyz


           -------------------------------------------------
          | TOTAL ENERGY             -200.298201678941 Eh   |
          | GRADIENT NORM               0.000891732221 Eh/α |
          | HOMO-LUMO GAP               0.576976504932 eV   |
           -------------------------------------------------

------------------------------------------------------------------------
 * finished run on 2021/05/24 at 13:05:23.401     
------------------------------------------------------------------------
 total:
 * wall-time:     0 d,  0 h,  1 min, 17.461 sec
 *  cpu-time:     0 d,  0 h, 14 min,  6.438 sec
 * ratio c/w:    10.927 speedup
 SCF:
 * wall-time:     0 d,  0 h,  0 min,  0.584 sec
 *  cpu-time:     0 d,  0 h,  0 min,  5.120 sec
 * ratio c/w:     8.765 speedup
 ANC optimizer:
 * wall-time:     0 d,  0 h,  1 min, 16.779 sec
 *  cpu-time:     0 d,  0 h, 14 min,  0.737 sec
 * ratio c/w:    10.950 speedup

