
                                 *****************
                                 * O   R   C   A *
                                 *****************

           --- An Ab Initio, DFT and Semiempirical electronic structure package ---

                  #######################################################
                  #                        -***-                        #
                  #          Department of theory and spectroscopy      #
                  #               Directorship: Frank Neese             #
                  #        Max Planck Institute fuer Kohlenforschung    #
                  #                Kaiser Wilhelm Platz 1               #
                  #                 D-45470 Muelheim/Ruhr               #
                  #                      Germany                        #
                  #                                                     #
                  #                  All rights reserved                #
                  #                        -***-                        #
                  #######################################################


                         Program Version 4.2.0 -  RELEASE  -


 With contributions from (in alphabetic order):
   Daniel Aravena         : Magnetic Suceptibility
   Michael Atanasov       : Ab Initio Ligand Field Theory (pilot matlab implementation)
   Alexander A. Auer      : GIAO ZORA, VPT2
   Ute Becker             : Parallelization
   Giovanni Bistoni       : ED, misc. LED, open-shell LED, HFLED
   Martin Brehm           : Molecular dynamics
   Dmytro Bykov           : SCF Hessian
   Vijay G. Chilkuri      : MRCI spin determinant printing, contributions to CSF-ICE
   Dipayan Datta          : RHF DLPNO-CCSD density
   Achintya Kumar Dutta   : EOM-CC, STEOM-CC
   Dmitry Ganyushin       : Spin-Orbit,Spin-Spin,Magnetic field MRCI
   Miquel Garcia          : C-PCM Hessian, Gaussian charge scheme
   Yang Guo               : DLPNO-NEVPT2, CIM, IAO-localization
   Andreas Hansen         : Spin unrestricted coupled pair/coupled cluster methods
   Benjamin Helmich-Paris : CASSCF linear response (MC-RPA)
   Lee Huntington         : MR-EOM, pCC
   Robert Izsak           : Overlap fitted RIJCOSX, COSX-SCS-MP3, EOM
   Christian Kollmar      : KDIIS, OOCD, Brueckner-CCSD(T), CCSD density
   Simone Kossmann        : Meta GGA functionals, TD-DFT gradient, OOMP2, MP2 Hessian
   Martin Krupicka        : AUTO-CI
   Lucas Lang             : DCDCAS
   Dagmar Lenk            : GEPOL surface, SMD
   Dimitrios Liakos       : Extrapolation schemes; Compound Job, initial MDCI parallelization
   Dimitrios Manganas     : Further ROCIS development; embedding schemes
   Dimitrios Pantazis     : SARC Basis sets
   Taras Petrenko         : DFT Hessian,TD-DFT gradient, ASA, ECA, R-Raman, ABS, FL, XAS/XES, NRVS
   Peter Pinski           : DLPNO-MP2, DLPNO-MP2 Gradient
   Christoph Reimann      : Effective Core Potentials
   Marius Retegan         : Local ZFS, SOC
   Christoph Riplinger    : Optimizer, TS searches, QM/MM, DLPNO-CCSD(T), (RO)-DLPNO pert. Triples
   Tobias Risthaus        : Range-separated hybrids, TD-DFT gradient, RPA, STAB
   Michael Roemelt        : Original ROCIS implementation
   Masaaki Saitow         : Open-shell DLPNO-CCSD energy and density
   Barbara Sandhoefer     : DKH picture change effects
   Avijit Sen             : IP-ROCIS
   Kantharuban Sivalingam : CASSCF convergence, NEVPT2, FIC-MRCI
   Bernardo de Souza      : ESD, SOC TD-DFT
   Georgi Stoychev        : AutoAux, RI-MP2 NMR
   Willem Van den Heuvel  : Paramagnetic NMR
   Boris Wezisla          : Elementary symmetry handling
   Frank Wennmohs         : Technical directorship


 We gratefully acknowledge several colleagues who have allowed us to
 interface, adapt or use parts of their codes:
   Stefan Grimme, W. Hujo, H. Kruse,             : VdW corrections, initial TS optimization,
                  C. Bannwarth                     DFT functionals, gCP, sTDA/sTD-DF
   Ed Valeev, F. Pavosevic, A. Kumar             : LibInt (2-el integral package), F12 methods
   Garnet Chan, S. Sharma, J. Yang, R. Olivares  : DMRG
   Ulf Ekstrom                                   : XCFun DFT Library
   Mihaly Kallay                                 : mrcc  (arbitrary order and MRCC methods)
   Andreas Klamt, Michael Diedenhofen            : otool_cosmo (COSMO solvation model)
   Jiri Pittner, Ondrej Demel                    : Mk-CCSD
   Frank Weinhold                                : gennbo (NPA and NBO analysis)
   Christopher J. Cramer and Donald G. Truhlar   : smd solvation model
   Lars Goerigk                                  : TD-DFT with DH, B97 family of functionals
   V. Asgeirsson, H. Jonsson                     : NEB implementation
   FAccTs GmbH                                   : IRC, NEB, NEB-TS, Multilevel, MM, QM/MM, CI optimization
   S Lehtola, MJT Oliveira, MAL Marques          : LibXC Library


 Your calculation uses the libint2 library for the computation of 2-el integrals
 For citations please refer to: http://libint.valeyev.net

 Your ORCA version has been built with support for libXC version: 4.2.3
 For citations please refer to: https://tddft.org/programs/libxc/

 This ORCA versions uses:
   CBLAS   interface :  Fast vector & matrix operations
   LAPACKE interface :  Fast linear algebra routines
   SCALAPACK package :  Parallel linear algebra routines


XCFun DFT library Copyright 2009-2010 Ulf Ekstrom and contributors.
See http://admol.org/xcfun for more information. This is free soft-
ware; see the source code for copying conditions. There is ABSOLUTELY
NO WARRANTY; not even for MERCHANTABILITY or FITNESS FOR A PARTICULAR
PURPOSE. For details see the documentation. Scientific users of this 
library should cite U. Ekstrom, L. Visscher, R. Bast, A. J. Thorvald-
sen and K. Ruud; J.Chem.Theor.Comp. 2010, DOI: 10.1021/ct100117s
XCFun Version 0.99 
----- Orbital basis set information -----
Your calculation utilizes the basis: def2-SVP
   F. Weigend and R. Ahlrichs, Phys. Chem. Chem. Phys. 7, 3297 (2005).

----- AuxJ basis set information -----
Your calculation utilizes the auxiliary basis: def2/J
   F. Weigend, Phys. Chem. Chem. Phys. 8, 1057 (2006).

================================================================================
                                        WARNINGS
                       Please study these warnings very carefully!
================================================================================

INFO   : Checking CIS options ...

WARNING: CIS/ROCIS methods need fully converged wavefunctions
  ===> : Setting SCFConvForced true
         You can overwrite this default with %scf ConvForced false 


INFO   : the flag for use of LIBINT has been found!

================================================================================
                                       INPUT FILE
================================================================================
NAME = xtbopt.inp
|  1> # ORCA input file
|  2> # SCF done       -210.883547394295          0.000502749006
|  3> ! CAM-B3LYP def2-SVP def2/J RIJCOSX Grid4 TightSCF
|  4> %maxcore 5000
|  5> %tddft
|  6>     Mode sTDDFT
|  7>     Ethresh 5.0
|  8>     maxcore 5000
|  9> end
| 10> 
| 11> %pal
| 12>   nprocs 6
| 13>   end
| 14> * xyz 0 1
| 15>    C       -0.11048       -12.23598        -2.86248
| 16>    S       -0.65436       -11.27927        -1.56570
| 17>    C       -0.84831       -12.04747        -3.99691
| 18>    C       -0.54403       -12.79171        -5.23841
| 19>    O        0.35321       -13.61185        -5.31253
| 20>    C       -1.43282       -12.42837        -6.32534
| 21>    C       -1.49262       -12.88436        -7.62443
| 22>    N       -2.48360       -12.22393        -8.26816
| 23>    C       -2.90429       -12.46840        -9.62467
| 24>    C       -4.02710       -13.50272        -9.67352
| 25>    C       -3.07519       -11.35320        -7.41580
| 26>    C       -2.45141       -11.44249        -6.19071
| 27>    C       -2.73797       -10.68493        -4.97936
| 28>    O       -3.57011        -9.79466        -4.96068
| 29>    C       -1.90234       -11.09121        -3.83208
| 30>    C       -1.94277       -10.58880        -2.53450
| 31>    C       -2.78730        -9.69244        -1.81604
| 32>    C       -3.99093        -9.19834        -2.18964
| 33>    C       -4.77673        -8.34075        -1.37565
| 34>    C       -4.43000        -7.72477        -0.08868
| 35>    N       -5.36280        -6.96996         0.41695
| 36>    C       -6.39526        -7.01599        -0.47610
| 37>    C       -6.04825        -7.86389        -1.62042
| 38>    C       -7.16097        -7.94213        -2.53158
| 39>    S       -7.27637        -8.90878        -3.85901
| 40>    C       -8.16431        -7.08746        -1.95149
| 41>    C       -7.67309        -6.55350        -0.67042
| 42>    N       -8.63406        -5.80269        -0.06058
| 43>    C       -9.67319        -5.87000        -0.84383
| 44>    C       -9.47073        -6.65763        -2.05971
| 45>    C      -10.44339        -6.84963        -3.09894
| 46>    C      -10.03288        -7.04131        -4.40463
| 47>    C      -10.98285        -7.22045        -5.42599
| 48>    C      -10.85027        -7.42505        -6.80063
| 49>    C       -9.64212        -7.48745        -7.67127
| 50>    C       -9.14664        -6.06123        -8.01168
| 51>    N       -8.71649        -5.36076        -6.81868
| 52>    C       -8.48519        -8.32230        -7.10141
| 53>    N       -8.94512        -9.65838        -6.76535
| 54>    C      -12.19150        -7.51583        -7.33294
| 55>    C      -12.63212        -7.69436        -8.59338
| 56>    C      -14.08659        -7.67863        -8.91533
| 57>    C      -14.98898        -7.57369        -7.73347
| 58>    C      -14.53317        -7.42762        -6.47517
| 59>    C      -13.14099        -7.37261        -6.22533
| 60>    C      -12.39830        -7.19730        -5.07374
| 61>    C      -12.78695        -6.99663        -3.73027
| 62>    C      -11.83743        -6.82278        -2.77597
| 63>    C      -14.24344        -6.53393        -9.89183
| 64>    C      -14.74904        -5.33875        -9.57169
| 65>    C      -14.85350        -4.24034       -10.48427
| 66>    C      -15.52019        -2.98733       -10.14220
| 67>    N      -15.51797        -2.09088       -11.08922
| 68>    C      -14.85316        -2.66677       -12.12645
| 69>    C      -14.42650        -4.04002       -11.78159
| 70>    C      -13.69225        -4.60569       -12.88483
| 71>    S      -12.94353        -6.06722       -13.00174
| 72>    C      -13.70087        -3.57300       -13.89217
| 73>    C      -14.41644        -2.38477       -13.39426
| 74>    N      -14.40751        -1.39430       -14.32730
| 75>    C      -13.71475        -1.85503       -15.32761
| 76>    C      -13.21611        -3.22481       -15.12472
| 77>    C      -12.42046        -3.96228       -16.05390
| 78>    S      -12.74283        -5.61631       -16.41342
| 79>    C      -11.32769        -3.50381       -16.76612
| 80>    C      -10.75845        -2.17565       -16.48753
| 81>    O      -11.21931        -1.40641       -15.65657
| 82>    C       -9.57706        -1.90387       -17.27953
| 83>    C       -8.75892        -0.79493       -17.31348
| 84>    N       -7.77333        -1.01673       -18.21351
| 85>    C       -6.75357        -0.06698       -18.58139
| 86>    C       -7.21117         0.80500       -19.74873
| 87>    C       -7.93894        -2.23853       -18.77524
| 88>    C       -9.04985        -2.83350       -18.21873
| 89>    C       -9.60698        -4.15073       -18.49910
| 90>    O       -9.13563        -4.86822       -19.36505
| 91>    C      -10.77009        -4.48144       -17.65126
| 92>    C      -11.44826        -5.69333       -17.57684
| 93>    C      -11.32831        -6.99197       -18.19128
| 94>    C      -10.51360        -7.38768       -19.16712
| 95>    H        0.72457       -12.89971        -2.75110
| 96>    H       -0.88852       -13.62325        -8.11244
| 97>    H       -2.04267       -12.82352       -10.19558
| 98>    H       -3.24688       -11.52517       -10.05838
| 99>    H       -3.69359       -14.44389        -9.24307
|100>    H       -4.32731       -13.67632       -10.70291
|101>    H       -4.88983       -13.15206        -9.11241
|102>    H       -3.89023       -10.72484        -7.71557
|103>    H       -2.40655        -9.44266        -0.83243
|104>    H       -4.40625        -9.44620        -3.15529
|105>    H       -3.49407        -7.83790         0.42965
|106>    H      -10.57117        -5.33110        -0.59481
|107>    H       -8.98306        -7.00861        -4.64042
|108>    H       -9.94114        -7.95633        -8.61389
|109>    H       -9.95041        -5.54012        -8.56028
|110>    H       -8.28437        -6.15063        -8.67731
|111>    H       -9.51458        -5.10506        -6.24771
|112>    H       -8.21385        -4.51490        -7.05828
|113>    H       -8.02468        -7.78463        -6.26306
|114>    H       -7.72351        -8.42367        -7.88065
|115>    H       -9.63610        -9.60352        -6.02277
|116>    H       -8.16732       -10.20171        -6.40589
|117>    H      -11.95809        -7.80416        -9.43142
|118>    H      -14.32998        -8.59833        -9.46818
|119>    H      -16.04730        -7.60876        -7.94474
|120>    H      -15.21893        -7.35260        -5.64358
|121>    H      -13.83683        -6.98631        -3.47659
|122>    H      -12.12248        -6.68468        -1.74405
|123>    H      -13.86292        -6.71548       -10.88681
|124>    H      -15.12353        -5.15363        -8.57243
|125>    H      -15.99451        -2.78393        -9.19716
|126>    H      -13.60291        -1.28256       -16.22969
|127>    H       -8.82545         0.11470       -16.75026
|128>    H       -5.85001        -0.61685       -18.85726
|129>    H       -6.53147         0.55750       -17.71237
|130>    H       -7.43386         0.18931       -20.61682
|131>    H       -6.42955         1.51148       -20.01282
|132>    H       -8.10676         1.35943       -19.47897
|133>    H       -7.26601        -2.62078       -19.51684
|134>    H      -12.02764        -7.70766       -17.77115
|135>    H       -9.80532        -6.72525       -19.62934
|136>    H      -10.54640        -8.40555       -19.51768
|137> *
|138> 
|139>                          ****END OF INPUT****
================================================================================

                       ****************************
                       * Single Point Calculation *
                       ****************************

---------------------------------
CARTESIAN COORDINATES (ANGSTROEM)
---------------------------------
  C     -0.110480  -12.235980   -2.862480
  S     -0.654360  -11.279270   -1.565700
  C     -0.848310  -12.047470   -3.996910
  C     -0.544030  -12.791710   -5.238410
  O      0.353210  -13.611850   -5.312530
  C     -1.432820  -12.428370   -6.325340
  C     -1.492620  -12.884360   -7.624430
  N     -2.483600  -12.223930   -8.268160
  C     -2.904290  -12.468400   -9.624670
  C     -4.027100  -13.502720   -9.673520
  C     -3.075190  -11.353200   -7.415800
  C     -2.451410  -11.442490   -6.190710
  C     -2.737970  -10.684930   -4.979360
  O     -3.570110   -9.794660   -4.960680
  C     -1.902340  -11.091210   -3.832080
  C     -1.942770  -10.588800   -2.534500
  C     -2.787300   -9.692440   -1.816040
  C     -3.990930   -9.198340   -2.189640
  C     -4.776730   -8.340750   -1.375650
  C     -4.430000   -7.724770   -0.088680
  N     -5.362800   -6.969960    0.416950
  C     -6.395260   -7.015990   -0.476100
  C     -6.048250   -7.863890   -1.620420
  C     -7.160970   -7.942130   -2.531580
  S     -7.276370   -8.908780   -3.859010
  C     -8.164310   -7.087460   -1.951490
  C     -7.673090   -6.553500   -0.670420
  N     -8.634060   -5.802690   -0.060580
  C     -9.673190   -5.870000   -0.843830
  C     -9.470730   -6.657630   -2.059710
  C    -10.443390   -6.849630   -3.098940
  C    -10.032880   -7.041310   -4.404630
  C    -10.982850   -7.220450   -5.425990
  C    -10.850270   -7.425050   -6.800630
  C     -9.642120   -7.487450   -7.671270
  C     -9.146640   -6.061230   -8.011680
  N     -8.716490   -5.360760   -6.818680
  C     -8.485190   -8.322300   -7.101410
  N     -8.945120   -9.658380   -6.765350
  C    -12.191500   -7.515830   -7.332940
  C    -12.632120   -7.694360   -8.593380
  C    -14.086590   -7.678630   -8.915330
  C    -14.988980   -7.573690   -7.733470
  C    -14.533170   -7.427620   -6.475170
  C    -13.140990   -7.372610   -6.225330
  C    -12.398300   -7.197300   -5.073740
  C    -12.786950   -6.996630   -3.730270
  C    -11.837430   -6.822780   -2.775970
  C    -14.243440   -6.533930   -9.891830
  C    -14.749040   -5.338750   -9.571690
  C    -14.853500   -4.240340  -10.484270
  C    -15.520190   -2.987330  -10.142200
  N    -15.517970   -2.090880  -11.089220
  C    -14.853160   -2.666770  -12.126450
  C    -14.426500   -4.040020  -11.781590
  C    -13.692250   -4.605690  -12.884830
  S    -12.943530   -6.067220  -13.001740
  C    -13.700870   -3.573000  -13.892170
  C    -14.416440   -2.384770  -13.394260
  N    -14.407510   -1.394300  -14.327300
  C    -13.714750   -1.855030  -15.327610
  C    -13.216110   -3.224810  -15.124720
  C    -12.420460   -3.962280  -16.053900
  S    -12.742830   -5.616310  -16.413420
  C    -11.327690   -3.503810  -16.766120
  C    -10.758450   -2.175650  -16.487530
  O    -11.219310   -1.406410  -15.656570
  C     -9.577060   -1.903870  -17.279530
  C     -8.758920   -0.794930  -17.313480
  N     -7.773330   -1.016730  -18.213510
  C     -6.753570   -0.066980  -18.581390
  C     -7.211170    0.805000  -19.748730
  C     -7.938940   -2.238530  -18.775240
  C     -9.049850   -2.833500  -18.218730
  C     -9.606980   -4.150730  -18.499100
  O     -9.135630   -4.868220  -19.365050
  C    -10.770090   -4.481440  -17.651260
  C    -11.448260   -5.693330  -17.576840
  C    -11.328310   -6.991970  -18.191280
  C    -10.513600   -7.387680  -19.167120
  H      0.724570  -12.899710   -2.751100
  H     -0.888520  -13.623250   -8.112440
  H     -2.042670  -12.823520  -10.195580
  H     -3.246880  -11.525170  -10.058380
  H     -3.693590  -14.443890   -9.243070
  H     -4.327310  -13.676320  -10.702910
  H     -4.889830  -13.152060   -9.112410
  H     -3.890230  -10.724840   -7.715570
  H     -2.406550   -9.442660   -0.832430
  H     -4.406250   -9.446200   -3.155290
  H     -3.494070   -7.837900    0.429650
  H    -10.571170   -5.331100   -0.594810
  H     -8.983060   -7.008610   -4.640420
  H     -9.941140   -7.956330   -8.613890
  H     -9.950410   -5.540120   -8.560280
  H     -8.284370   -6.150630   -8.677310
  H     -9.514580   -5.105060   -6.247710
  H     -8.213850   -4.514900   -7.058280
  H     -8.024680   -7.784630   -6.263060
  H     -7.723510   -8.423670   -7.880650
  H     -9.636100   -9.603520   -6.022770
  H     -8.167320  -10.201710   -6.405890
  H    -11.958090   -7.804160   -9.431420
  H    -14.329980   -8.598330   -9.468180
  H    -16.047300   -7.608760   -7.944740
  H    -15.218930   -7.352600   -5.643580
  H    -13.836830   -6.986310   -3.476590
  H    -12.122480   -6.684680   -1.744050
  H    -13.862920   -6.715480  -10.886810
  H    -15.123530   -5.153630   -8.572430
  H    -15.994510   -2.783930   -9.197160
  H    -13.602910   -1.282560  -16.229690
  H     -8.825450    0.114700  -16.750260
  H     -5.850010   -0.616850  -18.857260
  H     -6.531470    0.557500  -17.712370
  H     -7.433860    0.189310  -20.616820
  H     -6.429550    1.511480  -20.012820
  H     -8.106760    1.359430  -19.478970
  H     -7.266010   -2.620780  -19.516840
  H    -12.027640   -7.707660  -17.771150
  H     -9.805320   -6.725250  -19.629340
  H    -10.546400   -8.405550  -19.517680

----------------------------
CARTESIAN COORDINATES (A.U.)
----------------------------
  NO LB      ZA    FRAG     MASS         X           Y           Z
   0 C     6.0000    0    12.011   -0.208777  -23.122651   -5.409303
   1 S    16.0000    0    32.060   -1.236561  -21.314731   -2.958744
   2 C     6.0000    0    12.011   -1.603074  -22.766419   -7.553065
   3 C     6.0000    0    12.011   -1.028068  -24.172829   -9.899160
   4 O     8.0000    0    15.999    0.667470  -25.722669  -10.039227
   5 C     6.0000    0    12.011   -2.707637  -23.486216  -11.953160
   6 C     6.0000    0    12.011   -2.820643  -24.347912  -14.408085
   7 N     7.0000    0    14.007   -4.693324  -23.099880  -15.624558
   8 C     6.0000    0    12.011   -5.488313  -23.561861  -18.187990
   9 C     6.0000    0    12.011   -7.610116  -25.516443  -18.280304
  10 C     6.0000    0    12.011   -5.811267  -21.454439  -14.013831
  11 C     6.0000    0    12.011   -4.632494  -21.623172  -11.698746
  12 C     6.0000    0    12.011   -5.174013  -20.191591   -9.409627
  13 O     8.0000    0    15.999   -6.746530  -18.509225   -9.374327
  14 C     6.0000    0    12.011   -3.594902  -20.959349   -7.241582
  15 C     6.0000    0    12.011   -3.671303  -20.009932   -4.789511
  16 C     6.0000    0    12.011   -5.267234  -18.316057   -3.431818
  17 C     6.0000    0    12.011   -7.541765  -17.382343   -4.137820
  18 C     6.0000    0    12.011   -9.026712  -15.761733   -2.599602
  19 C     6.0000    0    12.011   -8.371487  -14.597700   -0.167581
  20 N     7.0000    0    14.007  -10.134223  -13.171316    0.787921
  21 C     6.0000    0    12.011  -12.085290  -13.258300   -0.899699
  22 C     6.0000    0    12.011  -11.429536  -14.860598   -3.062150
  23 C     6.0000    0    12.011  -13.532272  -15.008451   -4.783993
  24 S    16.0000    0    32.060  -13.750347  -16.835154   -7.292472
  25 C     6.0000    0    12.011  -15.428310  -13.393358   -3.687782
  26 C     6.0000    0    12.011  -14.500039  -12.384320   -1.266910
  27 N     7.0000    0    14.007  -16.316009  -10.965495   -0.114480
  28 C     6.0000    0    12.011  -18.279680  -11.092692   -1.594608
  29 C     6.0000    0    12.011  -17.897086  -12.581097   -3.892288
  30 C     6.0000    0    12.011  -19.735147  -12.943925   -5.856148
  31 C     6.0000    0    12.011  -18.959396  -13.306148   -8.323544
  32 C     6.0000    0    12.011  -20.754579  -13.644673  -10.253635
  33 C     6.0000    0    12.011  -20.504039  -14.031311  -12.851328
  34 C     6.0000    0    12.011  -18.220966  -14.149230  -14.496599
  35 C     6.0000    0    12.011  -17.284645  -11.454065  -15.139881
  36 N     7.0000    0    14.007  -16.471779  -10.130368  -12.885438
  37 C     6.0000    0    12.011  -16.034685  -15.726868  -13.419720
  38 N     7.0000    0    14.007  -16.903827  -18.251693  -12.784659
  39 C     6.0000    0    12.011  -23.038596  -14.202860  -13.857248
  40 C     6.0000    0    12.011  -23.871247  -14.540233  -16.239135
  41 C     6.0000    0    12.011  -26.619797  -14.510508  -16.847532
  42 C     6.0000    0    12.011  -28.325067  -14.312200  -14.614140
  43 C     6.0000    0    12.011  -27.463711  -14.036168  -12.236298
  44 C     6.0000    0    12.011  -24.832872  -13.932214  -11.764169
  45 C     6.0000    0    12.011  -23.429392  -13.600926   -9.587979
  46 C     6.0000    0    12.011  -24.163834  -13.221715   -7.049189
  47 C     6.0000    0    12.011  -22.369501  -12.893186   -5.245823
  48 C     6.0000    0    12.011  -26.916201  -12.347338  -18.692850
  49 C     6.0000    0    12.011  -27.871646  -10.088775  -18.087873
  50 C     6.0000    0    12.011  -28.069047   -8.013081  -19.812399
  51 C     6.0000    0    12.011  -29.328909   -5.645236  -19.165980
  52 N     7.0000    0    14.007  -29.324713   -3.951191  -20.955589
  53 C     6.0000    0    12.011  -28.068405   -5.039465  -22.915669
  54 C     6.0000    0    12.011  -27.262134   -7.634531  -22.263979
  55 C     6.0000    0    12.011  -25.874603   -8.703493  -24.348800
  56 S    16.0000    0    32.060  -24.459727  -11.465384  -24.569728
  57 C     6.0000    0    12.011  -25.890892   -6.751991  -26.252397
  58 C     6.0000    0    12.011  -27.243123   -4.506562  -25.311483
  59 N     7.0000    0    14.007  -27.226248   -2.634845  -27.074673
  60 C     6.0000    0    12.011  -25.917121   -3.505499  -28.964985
  61 C     6.0000    0    12.011  -24.974828   -6.094008  -28.581579
  62 C     6.0000    0    12.011  -23.471268   -7.487624  -30.337474
  63 S    16.0000    0    32.060  -24.080459  -10.613288  -31.016869
  64 C     6.0000    0    12.011  -21.406232   -6.621241  -31.683375
  65 C     6.0000    0    12.011  -20.330524   -4.111383  -31.156916
  66 O     8.0000    0    15.999  -21.201423   -2.657730  -29.586629
  67 C     6.0000    0    12.011  -18.098021   -3.597793  -32.653579
  68 C     6.0000    0    12.011  -16.551960   -1.502200  -32.717736
  69 N     7.0000    0    14.007  -14.689465   -1.921341  -34.418546
  70 C     6.0000    0    12.011  -12.762398   -0.126574  -35.113738
  71 C     6.0000    0    12.011  -13.627136    1.521230  -37.319691
  72 C     6.0000    0    12.011  -15.002422   -4.230209  -35.480062
  73 C     6.0000    0    12.011  -17.101738   -5.354539  -34.428410
  74 C     6.0000    0    12.011  -18.154561   -7.843743  -34.958233
  75 O     8.0000    0    15.999  -17.263839   -9.199603  -36.594641
  76 C     6.0000    0    12.011  -20.352521   -8.468694  -33.356047
  77 C     6.0000    0    12.011  -21.634076  -10.758834  -33.215414
  78 C     6.0000    0    12.011  -21.407403  -13.212908  -34.376537
  79 C     6.0000    0    12.011  -19.867825  -13.960692  -36.220608
  80 H     1.0000    0     1.008    1.369239  -24.376919   -5.198826
  81 H     1.0000    0     1.008   -1.679059  -25.744212  -15.330290
  82 H     1.0000    0     1.008   -3.860087  -24.232941  -19.266854
  83 H     1.0000    0     1.008   -6.135714  -21.779415  -19.007584
  84 H     1.0000    0     1.008   -6.979874  -27.294996  -17.466871
  85 H     1.0000    0     1.008   -8.177431  -25.844499  -20.225569
  86 H     1.0000    0     1.008   -9.240440  -24.853791  -17.219959
  87 H     1.0000    0     1.008   -7.351469  -20.267010  -14.580314
  88 H     1.0000    0     1.008   -4.547720  -17.844041   -1.573065
  89 H     1.0000    0     1.008   -8.326606  -17.850731   -5.962634
  90 H     1.0000    0     1.008   -6.602835  -14.811484    0.811921
  91 H     1.0000    0     1.008  -19.976616  -10.074319   -1.124028
  92 H     1.0000    0     1.008  -16.975523  -13.244353   -8.769123
  93 H     1.0000    0     1.008  -18.786032  -15.035285  -16.277893
  94 H     1.0000    0     1.008  -18.803550  -10.469310  -16.176585
  95 H     1.0000    0     1.008  -15.655190  -11.623006  -16.397739
  96 H     1.0000    0     1.008  -17.979950   -9.647165  -11.806461
  97 H     1.0000    0     1.008  -15.521927   -8.531925  -13.338216
  98 H     1.0000    0     1.008  -15.164448  -14.710819  -11.835468
  99 H     1.0000    0     1.008  -14.595319  -15.918429  -14.892270
 100 H     1.0000    0     1.008  -18.209590  -18.148023  -11.381386
 101 H     1.0000    0     1.008  -15.433998  -19.278438  -12.105378
 102 H     1.0000    0     1.008  -22.597515  -14.747725  -17.822801
 103 H     1.0000    0     1.008  -27.079738  -16.248489  -17.892267
 104 H     1.0000    0     1.008  -30.325002  -14.378473  -15.013383
 105 H     1.0000    0     1.008  -28.759610  -13.894400  -10.664821
 106 H     1.0000    0     1.008  -26.147819  -13.202213   -6.569803
 107 H     1.0000    0     1.008  -22.908167  -12.632214   -3.295777
 108 H     1.0000    0     1.008  -26.197122  -12.690418  -20.573089
 109 H     1.0000    0     1.008  -28.579330   -9.738949  -16.199545
 110 H     1.0000    0     1.008  -30.225244   -5.260865  -17.380114
 111 H     1.0000    0     1.008  -25.705775   -2.423687  -30.669669
 112 H     1.0000    0     1.008  -16.677684    0.216752  -31.653404
 113 H     1.0000    0     1.008  -11.054917   -1.165678  -35.635057
 114 H     1.0000    0     1.008  -12.342690    1.053522  -33.471528
 115 H     1.0000    0     1.008  -14.047960    0.357744  -38.960144
 116 H     1.0000    0     1.008  -12.150089    2.856283  -37.818749
 117 H     1.0000    0     1.008  -15.319556    2.568950  -36.809919
 118 H     1.0000    0     1.008  -13.730769   -4.952556  -36.881483
 119 H     1.0000    0     1.008  -22.728946  -14.565367  -33.582607
 120 H     1.0000    0     1.008  -18.529369  -12.708881  -37.094077
 121 H     1.0000    0     1.008  -19.929808  -15.884188  -36.883070

--------------------------------
INTERNAL COORDINATES (ANGSTROEM)
--------------------------------
 C      0   0   0     0.000000000000     0.00000000     0.00000000
 S      1   0   0     1.700805058465     0.00000000     0.00000000
 C      1   2   0     1.366331055747   112.50432257     0.00000000
 C      3   1   2     1.479121951024   121.08982782   180.37047912
 O      4   3   1     1.217851801986   122.78510565     0.98290789
 C      4   3   1     1.450303569809   112.14333985   180.84665418
 C      6   4   3     1.378092068114   130.55542621   180.37522205
 N      7   6   4     1.353734633597   108.57839093   181.04632792
 C      8   7   6     1.441133247517   125.34740143   183.39745250
 C      9   8   7     1.527385505038   111.07399682    91.12524590
 C      8   7   6     1.354498811590   109.51794913   359.68018764
 C     11   8   7     1.377650064639   108.67329929     0.32770204
 C     12  11   8     1.457183107815   128.06111151   179.14158139
 O     13  12  11     1.218764372182   121.78728729   355.98691381
 C      3   1   2     1.432683271836   113.19434459     0.07868180
 C     15   3   1     1.392036008658   111.68534155   358.99149663
 C     16  15   3     1.425789936176   135.54612341   183.42947412
 C     17  16  15     1.353675347674   128.10234821    11.42888866
 C     18  17  16     1.419690800210   123.66921360   177.81408409
 C     19  18  17     1.468313602130   128.70099193     6.45755620
 N     20  19  18     1.302119684591   114.47986110   179.42156934
 C     21  20  19     1.365880930023   105.54973956   359.94623464
 C     19  18  17     1.379880764016   128.10351926   185.08633818
 C     23  19  18     1.440305468156   143.64252074     4.76650670
 S     24  23  19     1.646146951946   126.59752207     2.67186965
 C     24  23  19     1.440019573686   104.54871606   177.79212572
 C     22  21  20     1.372773386761   141.70327488   178.22575596
 N     27  22  21     1.363482241395   141.10078136   358.47916277
 C     28  27  22     1.302997450304   105.35276814   184.12992559
 C     26  24  23     1.379564646437   144.40311454   186.27694605
 C     30  26  24     1.436290523710   131.02639343   350.19678885
 C     31  30  26     1.382058630667   120.06365446   332.51366406
 C     32  31  30     1.406310915161   120.20932091   180.43659635
 C     33  32  31     1.396092312850   132.03835973   179.77695782
 C     34  33  32     1.490481194816   131.16804585   358.07632245
 C     35  34  33     1.547734759867   110.44988854   279.63676016
 N     36  35  34     1.448770597231   111.06769979    63.78904889
 C     35  34  33     1.536294882827   114.61346325    44.48721413
 N     38  35  34     1.452439910943   110.31869571    54.26388773
 C     34  33  32     1.445853677728   106.47602600   180.99960030
 C     40  34  33     1.347118383402   131.01148757   179.23429376
 C     41  40  34     1.489759113515   121.34162306   183.53543402
 C     42  41  40     1.490675409102   114.86120600   354.86875062
 C     43  42  41     1.346260781201   122.93678609     3.60641147
 C     44  43  42     1.415489766159   120.14485850   359.74176460
 C     45  44  43     1.381478034679   132.90749301   178.02286234
 C     46  45  44     1.412879652447   131.51240907   359.27864213
 C     47  46  45     1.357387396030   119.62181638   181.32294851
 C     42  41  40     1.512776342524   104.40153301   119.56992611
 C     49  42  41     1.336628673941   124.14058748   256.48110202
 C     50  49  42     1.431858469298   124.11710237   177.68381838
 C     51  50  49     1.459973116568   122.84460103   174.26262449
 N     52  51  50     1.304022396779   114.77563439   179.68959363
 C     53  52  51     1.359951359829   105.28467705   359.82839441
 C     51  50  49     1.380397147491   133.45132824   354.34354963
 C     55  51  50     1.440917800917   145.10760971   356.39049762
 S     56  55  51     1.646304809991   129.39280529     1.35385455
 C     56  55  51     1.442656166971   104.51052322   183.51775349
 C     54  53  52     1.370252004012   140.74432650   182.47099398
 N     59  54  53     1.360762362575   141.84131421   359.17380728
 C     60  59  54     1.301079800243   105.83750218   177.02069175
 C     58  56  55     1.369455379412   143.93362066   174.31265566
 C     62  58  56     1.428389441224   130.64595444     4.65179754
 S     63  62  58     1.723076402311   121.81112915    43.73787979
 C     63  62  58     1.382605635096   127.16769230   224.10181550
 C     65  63  62     1.471616645496   120.49613575     7.82445902
 O     66  65  63     1.222545147960   123.41721749   358.34425637
 C     66  65  63     1.448036843627   112.42252903   176.75836211
 C     68  66  65     1.378496857341   130.44136671   180.26618235
 N     69  68  66     1.353010306317   108.47189516   179.63680844
 C     70  69  68     1.441274163544   125.25167984   176.94612539
 C     71  70  69     1.527229372426   111.05962369   270.81255284
 C     70  69  68     1.354903134914   109.54680686     0.59942519
 C     73  70  69     1.377611595879   108.69578508   359.35295492
 C     74  73  70     1.457427887307   128.38118790   180.72200796
 O     75  74  73     1.219357259010   121.37670273   356.14901602
 C     65  63  62     1.431834835622   113.56756132   181.86248950
 C     77  65  63     1.390730116665   111.83896157   358.97156173
 C     78  77  65     1.441662361893   136.18484828   181.25688581
 C     79  78  77     1.331391187368   129.12596240   353.81279944
 H      1   2   3     1.072497794776   121.19231400   180.03923801
 H      7   6   4     1.071937032759   129.25602076     0.55339817
 H      9   8   7     1.092903228516   108.46262109   330.06316336
 H      9   8   7     1.093231496573   108.57493704   212.14011683
 H     10   9   8     1.087344053876   110.36573239   300.23266140
 H     10   9   8     1.086235138540   109.98077658   180.23417626
 H     10   9   8     1.087248785053   110.38974896    60.24132362
 H     11   8   7     1.071908831991   122.20498078   180.14811287
 H     17  16  15     1.083904628185   113.20873777   187.89413963
 H     18  17  16     1.080002409488   120.32656869   357.57861708
 H     20  19  18     1.075838905552   125.70457589     0.49776884
 H     29  28  27     1.076472131920   120.02261774   181.63340458
 H     32  31  30     1.076470272000   119.49830145   357.72249947
 H     35  34  33     1.094437700009   107.43213031   163.23614694
 H     36  35  34     1.103885775341   108.13235001   298.75793543
 H     36  35  34     1.092961668953   108.12764487   181.95780597
 H     37  36  35     1.014069464583   110.60289153   288.00048766
 H     37  36  35     1.012686658942   110.87822064   167.89833584
 H     38  35  34     1.097264421869   109.46180906   288.03535505
 H     38  35  34     1.094370721876   108.08023226   171.47932006
 H     39  38  35     1.015818899411   109.56397313   295.95361670
 H     39  38  35     1.014589483732   109.38005947   179.02805587
 H     41  40  34     1.081056669421   122.33385703     0.24710241
 H     42  41  40     1.100331724799   108.40388650   232.88423479
 H     43  42  41     1.079771336997   115.84360110   182.82941891
 H     44  43  42     1.080479849928   120.79771343   179.85192022
 H     47  46  45     1.080142610584   119.47519899     1.48095434
 H     48  47  46     1.079436889725   120.24875815   180.99399812
 H     49  42  41     1.080620688910   115.51244722    73.12785602
 H     50  49  42     1.083066351661   120.30521413   356.97422590
 H     52  51  50     1.076778354166   124.67387829   359.21842690
 H     61  60  59     1.074233872534   120.82004403   176.39209646
 H     69  68  66     1.071946708657   129.26201624     0.08589991
 H     71  70  69     1.093106558118   108.52913237   149.77841483
 H     71  70  69     1.092931581024   108.50271349    31.86215704
 H     72  71  70     1.087311022799   110.38381490   300.15445073
 H     72  71  70     1.086180161345   109.97394598   180.15066312
 H     72  71  70     1.087310687246   110.38317580    60.16122831
 H     73  70  69     1.071877048639   122.11972365   180.16376861
 H     79  78  77     1.085257500274   112.05112900   174.46866634
 H     80  79  78     1.074300419669   122.37935300     0.17828135
 H     80  79  78     1.077045723496   120.05375196   179.89504851

---------------------------
INTERNAL COORDINATES (A.U.)
---------------------------
 C      0   0   0     0.000000000000     0.00000000     0.00000000
 S      1   0   0     3.214055767687     0.00000000     0.00000000
 C      1   2   0     2.581991503634   112.50432257     0.00000000
 C      3   1   2     2.795135406106   121.08982782   180.37047912
 O      4   3   1     2.301406377456   122.78510565     0.98290789
 C      4   3   1     2.740676557987   112.14333985   180.84665418
 C      6   4   3     2.604216596065   130.55542621   180.37522205
 N      7   6   4     2.558187715503   108.57839093   181.04632792
 C      8   7   6     2.723347160296   125.34740143   183.39745250
 C      9   8   7     2.886340305443   111.07399682    91.12524590
 C      8   7   6     2.559631802628   109.51794913   359.68018764
 C     11   8   7     2.603381330547   108.67329929     0.32770204
 C     12  11   8     2.753677000746   128.06111151   179.14158139
 O     13  12  11     2.303130885204   121.78728729   355.98691381
 C      3   1   2     2.707379020421   113.19434459     0.07868180
 C     15   3   1     2.630566824920   111.68534155   358.99149663
 C     16  15   3     2.694352503873   135.54612341   183.42947412
 C     17  16  15     2.558075681344   128.10234821    11.42888866
 C     18  17  16     2.682826807244   123.66921360   177.81408409
 C     19  18  17     2.774710586737   128.70099193     6.45755620
 N     20  19  18     2.460649597465   114.47986110   179.42156934
 C     21  20  19     2.581140889289   105.54973956   359.94623464
 C     19  18  17     2.607596741455   128.10351926   185.08633818
 C     23  19  18     2.721782884004   143.64252074     4.76650670
 S     24  23  19     3.110766915367   126.59752207     2.67186965
 C     24  23  19     2.721242621753   104.54871606   177.79212572
 C     22  21  20     2.594165744914   141.70327488   178.22575596
 N     27  22  21     2.576608024702   141.10078136   358.47916277
 C     28  27  22     2.462308334273   105.35276814   184.12992559
 C     26  24  23     2.606999365807   144.40311454   186.27694605
 C     30  26  24     2.714195738559   131.02639343   350.19678885
 C     31  30  26     2.611712312982   120.06365446   332.51366406
 C     32  31  30     2.657542488798   120.20932091   180.43659635
 C     33  32  31     2.638232128960   132.03835973   179.77695782
 C     34  33  32     2.816601265962   131.16804585   358.07632245
 C     35  34  33     2.924794824099   110.44988854   279.63676016
 N     36  35  34     2.737779659643   111.06769979    63.78904889
 C     35  34  33     2.903176589487   114.61346325    44.48721413
 N     38  35  34     2.744713657659   110.31869571    54.26388773
 C     34  33  32     2.732267480629   106.47602600   180.99960030
 C     40  34  33     2.545684814601   131.01148757   179.23429376
 C     41  40  34     2.815236730056   121.34162306   183.53543402
 C     42  41  40     2.816968277773   114.86120600   354.86875062
 C     43  42  41     2.544064181309   122.93678609     3.60641147
 C     44  43  42     2.674888003408   120.14485850   359.74176460
 C     45  44  43     2.610615145571   132.90749301   178.02286234
 C     46  45  44     2.669955603316   131.51240907   359.27864213
 C     47  46  45     2.565090436132   119.62181638   181.32294851
 C     42  41  40     2.858732989245   104.40153301   119.56992611
 C     49  42  41     2.525862136494   124.14058748   256.48110202
 C     50  49  42     2.705820369509   124.11710237   177.68381838
 C     51  50  49     2.758949353200   122.84460103   174.26262449
 N     52  51  50     2.464245202411   114.77563439   179.68959363
 C     53  52  51     2.569935625530   105.28467705   359.82839441
 C     51  50  49     2.608572564803   133.45132824   354.34354963
 C     55  51  50     2.722940025226   145.10760971   356.39049762
 S     56  55  51     3.111065223841   129.39280529     1.35385455
 C     56  55  51     2.726225060988   104.51052322   183.51775349
 C     54  53  52     2.589401022040   140.74432650   182.47099398
 N     59  54  53     2.571468198614   141.84131421   359.17380728
 C     60  59  54     2.458684500836   105.83750218   177.02069175
 C     58  56  55     2.587895619714   143.93362066   174.31265566
 C     62  58  56     2.699264856498   130.64595444     4.65179754
 S     63  62  58     3.256142508190   121.81112915    43.73787979
 C     63  62  58     2.612746001548   127.16769230   224.10181550
 C     65  63  62     2.780952434107   120.49613575     7.82445902
 O     66  65  63     2.310275515998   123.41721749   358.34425637
 C     66  65  63     2.736393066282   112.42252903   176.75836211
 C     68  66  65     2.604981536846   130.44136671   180.26618235
 N     69  68  66     2.556818935312   108.47189516   179.63680844
 C     70  69  68     2.723613452995   125.25167984   176.94612539
 C     71  70  69     2.886045257565   111.05962369   270.81255284
 C     70  69  68     2.560395862979   109.54680686     0.59942519
 C     73  70  69     2.603308635125   108.69578508   359.35295492
 C     74  73  70     2.754139566950   128.38118790   180.72200796
 O     75  74  73     2.304251278937   121.37670273   356.14901602
 C     65  63  62     2.705775708333   113.56756132   181.86248950
 C     77  65  63     2.628099046694   111.83896157   358.97156173
 C     78  77  65     2.724347041561   136.18484828   181.25688581
 C     79  78  77     2.515964721241   129.12596240   353.81279944
 H      1   2   3     2.026727111362   121.19231400   180.03923801
 H      7   6   4     2.025667424723   129.25602076     0.55339817
 H      9   8   7     2.065287792773   108.46262109   330.06316336
 H      9   8   7     2.065908129500   108.57493704   212.14011683
 H     10   9   8     2.054782475174   110.36573239   300.23266140
 H     10   9   8     2.052686928883   109.98077658   180.23417626
 H     10   9   8     2.054602443189   110.38974896    60.24132362
 H     11   8   7     2.025614132994   122.20498078   180.14811287
 H     17  16  15     2.048282902559   113.20873777   187.89413963
 H     18  17  16     2.040908777907   120.32656869   357.57861708
 H     20  19  18     2.033040895711   125.70457589     0.49776884
 H     29  28  27     2.034237520127   120.02261774   181.63340458
 H     32  31  30     2.034234005388   119.49830145   357.72249947
 H     35  34  33     2.068187523655   107.43213031   163.23614694
 H     36  35  34     2.086041798526   108.13235001   298.75793543
 H     36  35  34     2.065398229194   108.12764487   181.95780597
 H     37  36  35     1.916313568834   110.60289153   288.00048766
 H     37  36  35     1.913700444877   110.87822064   167.89833584
 H     38  35  34     2.073529253828   109.46180906   288.03535505
 H     38  35  34     2.068060953328   108.08023226   171.47932006
 H     39  38  35     1.919619521548   109.56397313   295.95361670
 H     39  38  35     1.917296262610   109.38005947   179.02805587
 H     41  40  34     2.042901040455   122.33385703     0.24710241
 H     42  41  40     2.079325616336   108.40388650   232.88423479
 H     43  42  41     2.040472114182   115.84360110   182.82941891
 H     44  43  42     2.041811009584   120.79771343   179.85192022
 H     47  46  45     2.041173719583   119.47519899     1.48095434
 H     48  47  46     2.039840100433   120.24875815   180.99399812
 H     49  42  41     2.042077156689   115.51244722    73.12785602
 H     50  49  42     2.046698789504   120.30521413   356.97422590
 H     52  51  50     2.034816196308   124.67387829   359.21842690
 H     61  60  59     2.030007822871   120.82004403   176.39209646
 H     69  68  66     2.025685709519   129.26201624     0.08589991
 H     71  70  69     2.065672030036   108.52913237   149.77841483
 H     71  70  69     2.065341371249   108.50271349    31.86215704
 H     72  71  70     2.054720055484   110.38381490   300.15445073
 H     72  71  70     2.052583037041   109.97394598   180.15066312
 H     72  71  70     2.054719421381   110.38317580    60.16122831
 H     73  70  69     2.025554071164   122.11972365   180.16376861
 H     79  78  77     2.050839460301   112.05112900   174.46866634
 H     80  79  78     2.030133578730   122.37935300     0.17828135
 H     80  79  78     2.035321451118   120.05375196   179.89504851

---------------------
BASIS SET INFORMATION
---------------------
There are 5 groups of distinct atoms

 Group   1 Type C   : 7s4p1d contracted to 3s2p1d pattern {511/31/1}
 Group   2 Type S   : 10s7p1d contracted to 4s3p1d pattern {5311/511/1}
 Group   3 Type O   : 7s4p1d contracted to 3s2p1d pattern {511/31/1}
 Group   4 Type N   : 7s4p1d contracted to 3s2p1d pattern {511/31/1}
 Group   5 Type H   : 4s1p contracted to 2s1p pattern {31/1}

Atom   0C    basis set group =>   1
Atom   1S    basis set group =>   2
Atom   2C    basis set group =>   1
Atom   3C    basis set group =>   1
Atom   4O    basis set group =>   3
Atom   5C    basis set group =>   1
Atom   6C    basis set group =>   1
Atom   7N    basis set group =>   4
Atom   8C    basis set group =>   1
Atom   9C    basis set group =>   1
Atom  10C    basis set group =>   1
Atom  11C    basis set group =>   1
Atom  12C    basis set group =>   1
Atom  13O    basis set group =>   3
Atom  14C    basis set group =>   1
Atom  15C    basis set group =>   1
Atom  16C    basis set group =>   1
Atom  17C    basis set group =>   1
Atom  18C    basis set group =>   1
Atom  19C    basis set group =>   1
Atom  20N    basis set group =>   4
Atom  21C    basis set group =>   1
Atom  22C    basis set group =>   1
Atom  23C    basis set group =>   1
Atom  24S    basis set group =>   2
Atom  25C    basis set group =>   1
Atom  26C    basis set group =>   1
Atom  27N    basis set group =>   4
Atom  28C    basis set group =>   1
Atom  29C    basis set group =>   1
Atom  30C    basis set group =>   1
Atom  31C    basis set group =>   1
Atom  32C    basis set group =>   1
Atom  33C    basis set group =>   1
Atom  34C    basis set group =>   1
Atom  35C    basis set group =>   1
Atom  36N    basis set group =>   4
Atom  37C    basis set group =>   1
Atom  38N    basis set group =>   4
Atom  39C    basis set group =>   1
Atom  40C    basis set group =>   1
Atom  41C    basis set group =>   1
Atom  42C    basis set group =>   1
Atom  43C    basis set group =>   1
Atom  44C    basis set group =>   1
Atom  45C    basis set group =>   1
Atom  46C    basis set group =>   1
Atom  47C    basis set group =>   1
Atom  48C    basis set group =>   1
Atom  49C    basis set group =>   1
Atom  50C    basis set group =>   1
Atom  51C    basis set group =>   1
Atom  52N    basis set group =>   4
Atom  53C    basis set group =>   1
Atom  54C    basis set group =>   1
Atom  55C    basis set group =>   1
Atom  56S    basis set group =>   2
Atom  57C    basis set group =>   1
Atom  58C    basis set group =>   1
Atom  59N    basis set group =>   4
Atom  60C    basis set group =>   1
Atom  61C    basis set group =>   1
Atom  62C    basis set group =>   1
Atom  63S    basis set group =>   2
Atom  64C    basis set group =>   1
Atom  65C    basis set group =>   1
Atom  66O    basis set group =>   3
Atom  67C    basis set group =>   1
Atom  68C    basis set group =>   1
Atom  69N    basis set group =>   4
Atom  70C    basis set group =>   1
Atom  71C    basis set group =>   1
Atom  72C    basis set group =>   1
Atom  73C    basis set group =>   1
Atom  74C    basis set group =>   1
Atom  75O    basis set group =>   3
Atom  76C    basis set group =>   1
Atom  77C    basis set group =>   1
Atom  78C    basis set group =>   1
Atom  79C    basis set group =>   1
Atom  80H    basis set group =>   5
Atom  81H    basis set group =>   5
Atom  82H    basis set group =>   5
Atom  83H    basis set group =>   5
Atom  84H    basis set group =>   5
Atom  85H    basis set group =>   5
Atom  86H    basis set group =>   5
Atom  87H    basis set group =>   5
Atom  88H    basis set group =>   5
Atom  89H    basis set group =>   5
Atom  90H    basis set group =>   5
Atom  91H    basis set group =>   5
Atom  92H    basis set group =>   5
Atom  93H    basis set group =>   5
Atom  94H    basis set group =>   5
Atom  95H    basis set group =>   5
Atom  96H    basis set group =>   5
Atom  97H    basis set group =>   5
Atom  98H    basis set group =>   5
Atom  99H    basis set group =>   5
Atom 100H    basis set group =>   5
Atom 101H    basis set group =>   5
Atom 102H    basis set group =>   5
Atom 103H    basis set group =>   5
Atom 104H    basis set group =>   5
Atom 105H    basis set group =>   5
Atom 106H    basis set group =>   5
Atom 107H    basis set group =>   5
Atom 108H    basis set group =>   5
Atom 109H    basis set group =>   5
Atom 110H    basis set group =>   5
Atom 111H    basis set group =>   5
Atom 112H    basis set group =>   5
Atom 113H    basis set group =>   5
Atom 114H    basis set group =>   5
Atom 115H    basis set group =>   5
Atom 116H    basis set group =>   5
Atom 117H    basis set group =>   5
Atom 118H    basis set group =>   5
Atom 119H    basis set group =>   5
Atom 120H    basis set group =>   5
Atom 121H    basis set group =>   5
---------------------------------
AUXILIARY/J BASIS SET INFORMATION
---------------------------------
There are 5 groups of distinct atoms

 Group   1 Type C   : 12s5p4d2f1g contracted to 6s4p3d1f1g pattern {711111/2111/211/2/1}
 Group   2 Type S   : 14s5p5d2f1g contracted to 8s4p3d1f1g pattern {71111111/2111/311/2/1}
 Group   3 Type O   : 12s5p4d2f1g contracted to 6s4p3d1f1g pattern {711111/2111/211/2/1}
 Group   4 Type N   : 12s5p4d2f1g contracted to 6s4p3d1f1g pattern {711111/2111/211/2/1}
 Group   5 Type H   : 5s2p1d contracted to 3s1p1d pattern {311/2/1}

Atom   0C    basis set group =>   1
Atom   1S    basis set group =>   2
Atom   2C    basis set group =>   1
Atom   3C    basis set group =>   1
Atom   4O    basis set group =>   3
Atom   5C    basis set group =>   1
Atom   6C    basis set group =>   1
Atom   7N    basis set group =>   4
Atom   8C    basis set group =>   1
Atom   9C    basis set group =>   1
Atom  10C    basis set group =>   1
Atom  11C    basis set group =>   1
Atom  12C    basis set group =>   1
Atom  13O    basis set group =>   3
Atom  14C    basis set group =>   1
Atom  15C    basis set group =>   1
Atom  16C    basis set group =>   1
Atom  17C    basis set group =>   1
Atom  18C    basis set group =>   1
Atom  19C    basis set group =>   1
Atom  20N    basis set group =>   4
Atom  21C    basis set group =>   1
Atom  22C    basis set group =>   1
Atom  23C    basis set group =>   1
Atom  24S    basis set group =>   2
Atom  25C    basis set group =>   1
Atom  26C    basis set group =>   1
Atom  27N    basis set group =>   4
Atom  28C    basis set group =>   1
Atom  29C    basis set group =>   1
Atom  30C    basis set group =>   1
Atom  31C    basis set group =>   1
Atom  32C    basis set group =>   1
Atom  33C    basis set group =>   1
Atom  34C    basis set group =>   1
Atom  35C    basis set group =>   1
Atom  36N    basis set group =>   4
Atom  37C    basis set group =>   1
Atom  38N    basis set group =>   4
Atom  39C    basis set group =>   1
Atom  40C    basis set group =>   1
Atom  41C    basis set group =>   1
Atom  42C    basis set group =>   1
Atom  43C    basis set group =>   1
Atom  44C    basis set group =>   1
Atom  45C    basis set group =>   1
Atom  46C    basis set group =>   1
Atom  47C    basis set group =>   1
Atom  48C    basis set group =>   1
Atom  49C    basis set group =>   1
Atom  50C    basis set group =>   1
Atom  51C    basis set group =>   1
Atom  52N    basis set group =>   4
Atom  53C    basis set group =>   1
Atom  54C    basis set group =>   1
Atom  55C    basis set group =>   1
Atom  56S    basis set group =>   2
Atom  57C    basis set group =>   1
Atom  58C    basis set group =>   1
Atom  59N    basis set group =>   4
Atom  60C    basis set group =>   1
Atom  61C    basis set group =>   1
Atom  62C    basis set group =>   1
Atom  63S    basis set group =>   2
Atom  64C    basis set group =>   1
Atom  65C    basis set group =>   1
Atom  66O    basis set group =>   3
Atom  67C    basis set group =>   1
Atom  68C    basis set group =>   1
Atom  69N    basis set group =>   4
Atom  70C    basis set group =>   1
Atom  71C    basis set group =>   1
Atom  72C    basis set group =>   1
Atom  73C    basis set group =>   1
Atom  74C    basis set group =>   1
Atom  75O    basis set group =>   3
Atom  76C    basis set group =>   1
Atom  77C    basis set group =>   1
Atom  78C    basis set group =>   1
Atom  79C    basis set group =>   1
Atom  80H    basis set group =>   5
Atom  81H    basis set group =>   5
Atom  82H    basis set group =>   5
Atom  83H    basis set group =>   5
Atom  84H    basis set group =>   5
Atom  85H    basis set group =>   5
Atom  86H    basis set group =>   5
Atom  87H    basis set group =>   5
Atom  88H    basis set group =>   5
Atom  89H    basis set group =>   5
Atom  90H    basis set group =>   5
Atom  91H    basis set group =>   5
Atom  92H    basis set group =>   5
Atom  93H    basis set group =>   5
Atom  94H    basis set group =>   5
Atom  95H    basis set group =>   5
Atom  96H    basis set group =>   5
Atom  97H    basis set group =>   5
Atom  98H    basis set group =>   5
Atom  99H    basis set group =>   5
Atom 100H    basis set group =>   5
Atom 101H    basis set group =>   5
Atom 102H    basis set group =>   5
Atom 103H    basis set group =>   5
Atom 104H    basis set group =>   5
Atom 105H    basis set group =>   5
Atom 106H    basis set group =>   5
Atom 107H    basis set group =>   5
Atom 108H    basis set group =>   5
Atom 109H    basis set group =>   5
Atom 110H    basis set group =>   5
Atom 111H    basis set group =>   5
Atom 112H    basis set group =>   5
Atom 113H    basis set group =>   5
Atom 114H    basis set group =>   5
Atom 115H    basis set group =>   5
Atom 116H    basis set group =>   5
Atom 117H    basis set group =>   5
Atom 118H    basis set group =>   5
Atom 119H    basis set group =>   5
Atom 120H    basis set group =>   5
Atom 121H    basis set group =>   5


           ************************************************************
           *        Program running with 6 parallel MPI-processes     *
           *              working on a common directory               *
           ************************************************************
------------------------------------------------------------------------------
                           ORCA GTO INTEGRAL CALCULATION
                           -- RI-GTO INTEGRALS CHOSEN --
------------------------------------------------------------------------------

                         BASIS SET STATISTICS AND STARTUP INFO

Gaussian basis set:
 # of primitive gaussian shells          ... 1194
 # of primitive gaussian functions       ... 2262
 # of contracted shells                  ...  614
 # of contracted basis functions         ... 1346
 Highest angular momentum                ...    2
 Maximum contraction depth               ...    5
Auxiliary gaussian basis set:
 # of primitive gaussian shells          ... 2268
 # of primitive gaussian functions       ... 6300
 # of contracted shells                  ... 1418
 # of contracted aux-basis functions     ... 4390
 Highest angular momentum                ...    4
 Maximum contraction depth               ...    7
Ratio of auxiliary to basis functions    ...  3.26
Integral package used                  ... LIBINT
 One Electron integrals                  ... done
 Ordering auxiliary basis shells         ... done
 Integral threshhold             Thresh  ...  2.500e-11
 Primitive cut-off               TCut    ...  2.500e-12
 Pre-screening matrix                    ... done
 Shell pair data                         ... 
 Ordering of the shell pairs             ... done (   0.011 sec) 55656 of 188805 pairs
 Determination of significant pairs      ... done (   0.000 sec)
 Creation of shell pair data             ... done (   0.007 sec)
 Storage of shell pair data              ... done (   0.024 sec)
 Shell pair data done in (   0.043 sec)
 Computing two index integrals           ... done
 Cholesky decomposition of the V-matrix  ... done


Timings:
 Total evaluation time                   ...   2.897 sec (  0.048 min)
 One electron matrix time                ...   0.787 sec (  0.013 min) = 27.2%
 Schwartz matrix evaluation time         ...   0.819 sec (  0.014 min) = 28.3%
 Two index repulsion integral time       ...   0.461 sec (  0.008 min) = 15.9%
 Cholesky decomposition of V             ...   0.771 sec (  0.013 min) = 26.6%
 Three index repulsion integral time     ...   0.000 sec (  0.000 min) =  0.0%



           ************************************************************
           *        Program running with 6 parallel MPI-processes     *
           *              working on a common directory               *
           ************************************************************
-------------------------------------------------------------------------------
                                 ORCA SCF
-------------------------------------------------------------------------------

------------
SCF SETTINGS
------------
Hamiltonian:
 Density Functional     Method          .... DFT(GTOs)
 Exchange Functional    Exchange        .... WB88
 Correlation Functional Correlation     .... LYP
 LDA part of GGA corr.  LDAOpt          .... VWN-5
 Gradients option       PostSCFGGA      .... off
 Hybrid DFT is turned on
   Fraction HF Exchange ScalHFX         ....  0.190000
   Scaling of DF-GGA-X  ScalDFX         ....  0.350000
   Scaling of DF-GGA-C  ScalDFC         ....  0.810000
   Scaling of DF-LDA-C  ScalLDAC        ....  1.000000
   Perturbative correction              ....  0.000000
   Density functional embedding theory  .... OFF
 Long-range corrected/Screened/Range-Separated Hybrid DFT is turned on
   Amount of maximum screened exact exchange              ....  0.460000
   Range separation parameter mu (erf(mu*r12)/r12)        ....  0.330000
 RI-approximation to the Coulomb term is turned on
   Number of auxiliary basis functions  .... 4390
   RIJ-COSX (HFX calculated with COS-X)).... on


General Settings:
 Integral files         IntName         .... xtbopt
 Hartree-Fock type      HFTyp           .... RHF
 Total Charge           Charge          ....    0
 Multiplicity           Mult            ....    1
 Number of Electrons    NEL             ....  578
 Basis Dimension        Dim             .... 1346
 Nuclear Repulsion      ENuc            ....  12406.5560055465 Eh

Convergence Acceleration:
 DIIS                   CNVDIIS         .... on
   Start iteration      DIISMaxIt       ....    12
   Startup error        DIISStart       ....  0.200000
   # of expansion vecs  DIISMaxEq       ....     5
   Bias factor          DIISBfac        ....   1.050
   Max. coefficient     DIISMaxC        ....  10.000
 Newton-Raphson         CNVNR           .... off
 SOSCF                  CNVSOSCF        .... on
   Start iteration      SOSCFMaxIt      ....   150
   Startup grad/error   SOSCFStart      ....  0.003300
 Level Shifting         CNVShift        .... on
   Level shift para.    LevelShift      ....    0.2500
   Turn off err/grad.   ShiftErr        ....    0.0010
 Zerner damping         CNVZerner       .... off
 Static damping         CNVDamp         .... on
   Fraction old density DampFac         ....    0.7000
   Max. Damping (<1)    DampMax         ....    0.9800
   Min. Damping (>=0)   DampMin         ....    0.0000
   Turn off err/grad.   DampErr         ....    0.1000
 Fernandez-Rico         CNVRico         .... off

SCF Procedure:
 Maximum # iterations   MaxIter         ....   125
 SCF integral mode      SCFMode         .... Direct
   Integral package                     .... LIBINT
 Reset frequency        DirectResetFreq ....    20
 Integral Threshold     Thresh          ....  2.500e-11 Eh
 Primitive CutOff       TCut            ....  2.500e-12 Eh

Convergence Tolerance:
 Convergence Check Mode ConvCheckMode   .... Total+1el-Energy
 Convergence forced     ConvForced      .... 1
 Energy Change          TolE            ....  1.000e-08 Eh
 1-El. energy change                    ....  1.000e-05 Eh
 Orbital Gradient       TolG            ....  1.000e-05
 Orbital Rotation angle TolX            ....  1.000e-05
 DIIS Error             TolErr          ....  5.000e-07


Diagonalization of the overlap matrix:
Smallest eigenvalue                        ... 1.244e-04
Time for diagonalization                   ...    0.274 sec
Threshold for overlap eigenvalues          ... 1.000e-08
Number of eigenvalues below threshold      ... 0
Time for construction of square roots      ...    0.205 sec
Total time needed                          ...    0.483 sec

-------------------
DFT GRID GENERATION
-------------------

General Integration Accuracy     IntAcc      ...  4.670
Radial Grid Type                 RadialGrid  ... Gauss-Chebyshev
Angular Grid (max. acc.)         AngularGrid ... Lebedev-302
Angular grid pruning method      GridPruning ... 3 (G Style)
Weight generation scheme         WeightScheme... Becke
Basis function cutoff            BFCut       ...    1.0000e-11
Integration weight cutoff        WCut        ...    1.0000e-14
Grids for H and He will be reduced by one unit

# of grid points (after initial pruning)     ... 642044 (   0.0 sec)
# of grid points (after weights+screening)   ... 546193 (   9.0 sec)
nearest neighbour list constructed           ...    0.0 sec
Grid point re-assignment to atoms done       ...    0.1 sec
Grid point division into batches done        ...    1.8 sec
Reduced shell lists constructed in    2.9 sec

Total number of grid points                  ...   546193
Total number of batches                      ...     8595
Average number of points per batch           ...       63
Average number of grid points per atom       ...     4477
Average number of shells per batch           ...    91.63 (14.92%)
Average number of basis functions per batch  ...   191.05 (14.19%)
Average number of large shells per batch     ...    57.27 (62.50%)
Average number of large basis fcns per batch ...   122.71 (64.23%)
Maximum spatial batch extension              ...  19.32, 17.19, 13.82 au
Average spatial batch extension              ...   0.31,  0.33,  0.29 au

Time for grid setup =   12.457 sec

------------------------------
INITIAL GUESS: MODEL POTENTIAL
------------------------------
Loading Hartree-Fock densities                     ... done
Calculating cut-offs                               ... done
Setting up the integral package                    ... done
Initializing the effective Hamiltonian             ... done
Starting the Coulomb interaction                   ... done (   1.8 sec)
Reading the grid                                   ... done
Mapping shells                                     ... done
Starting the XC term evaluation                    ... done (   1.9 sec)
  promolecular density results
     # of electrons  =    577.980100767
     EX              =   -524.736514214
     EC              =    -19.978294440
     EX+EC           =   -544.714808654
Transforming the Hamiltonian                       ... done (   0.1 sec)
Diagonalizing the Hamiltonian                      ... done (   0.3 sec)
Back transforming the eigenvectors                 ... done (   0.1 sec)
Now organizing SCF variables                       ... done
                      ------------------
                      INITIAL GUESS DONE (  16.7 sec)
                      ------------------
--------------------
COSX GRID GENERATION
--------------------

General Integration Accuracy     IntAcc      ...  3.340
Radial Grid Type                 RadialGrid  ... Gauss-Chebyshev
Angular Grid (max. acc.)         AngularGrid ... Lebedev-50
Angular grid pruning method      GridPruning ... 3 (G Style)
Weight generation scheme         WeightScheme... Becke
Basis function cutoff            BFCut       ...    1.0000e-11
Integration weight cutoff        WCut        ...    1.0000e-14
Grids for H and He will be reduced by one unit

# of grid points (after initial pruning)     ...  60232 (   0.0 sec)
# of grid points (after weights+screening)   ...  53543 (   0.8 sec)
nearest neighbour list constructed           ...    0.0 sec
Grid point re-assignment to atoms done       ...    0.0 sec
Grid point division into batches done        ...    0.0 sec
Reduced shell lists constructed in    0.2 sec

Total number of grid points                  ...    53543
Total number of batches                      ...      902
Average number of points per batch           ...       59
Average number of grid points per atom       ...      439
Average number of shells per batch           ...   108.78 (17.72%)
Average number of basis functions per batch  ...   228.14 (16.95%)
Average number of large shells per batch     ...    68.60 (63.06%)
Average number of large basis fcns per batch ...   148.23 (64.97%)
Maximum spatial batch extension              ...  18.90, 17.12, 12.69 au
Average spatial batch extension              ...   0.71,  0.77,  0.56 au

Overlap Fitting                  UseSFitting ... on
Constructing numerical overlap ... done (      0.1 sec)
Inverting numerical overlap    ... done (      0.1 sec)
Obtaining analytic overlap     ... done (      0.0 sec)
Final contraction and storage  ... done (      0.1 sec)


General Integration Accuracy     IntAcc      ...  3.670
Radial Grid Type                 RadialGrid  ... Gauss-Chebyshev
Angular Grid (max. acc.)         AngularGrid ... Lebedev-50
Angular grid pruning method      GridPruning ... 3 (G Style)
Weight generation scheme         WeightScheme... Becke
Basis function cutoff            BFCut       ...    1.0000e-11
Integration weight cutoff        WCut        ...    1.0000e-14
Grids for H and He will be reduced by one unit

# of grid points (after initial pruning)     ...  75544 (   0.0 sec)
# of grid points (after weights+screening)   ...  66872 (   1.0 sec)
nearest neighbour list constructed           ...    0.0 sec
Grid point re-assignment to atoms done       ...    0.0 sec
Grid point division into batches done        ...    0.0 sec
Reduced shell lists constructed in    0.2 sec

Total number of grid points                  ...    66872
Total number of batches                      ...     1109
Average number of points per batch           ...       60
Average number of grid points per atom       ...      548
Average number of shells per batch           ...   107.34 (17.48%)
Average number of basis functions per batch  ...   224.81 (16.70%)
Average number of large shells per batch     ...    67.39 (62.78%)
Average number of large basis fcns per batch ...   145.75 (64.83%)
Maximum spatial batch extension              ...  22.70, 28.46, 13.86 au
Average spatial batch extension              ...   0.66,  0.72,  0.54 au

Overlap Fitting                  UseSFitting ... on
Constructing numerical overlap ... done (      0.1 sec)
Inverting numerical overlap    ... done (      0.1 sec)
Obtaining analytic overlap     ... done (      0.0 sec)
Final contraction and storage  ... done (      0.1 sec)


General Integration Accuracy     IntAcc      ...  4.010
Radial Grid Type                 RadialGrid  ... Gauss-Chebyshev
Angular Grid (max. acc.)         AngularGrid ... Lebedev-110
Angular grid pruning method      GridPruning ... 3 (G Style)
Weight generation scheme         WeightScheme... Becke
Basis function cutoff            BFCut       ...    1.0000e-11
Integration weight cutoff        WCut        ...    1.0000e-14
Grids for H and He will be reduced by one unit

# of grid points (after initial pruning)     ... 145968 (   0.0 sec)
# of grid points (after weights+screening)   ... 128173 (   2.1 sec)
nearest neighbour list constructed           ...    0.0 sec
Grid point re-assignment to atoms done       ...    0.0 sec
Grid point division into batches done        ...    0.1 sec
Reduced shell lists constructed in    0.4 sec

Total number of grid points                  ...   128173
Total number of batches                      ...     2060
Average number of points per batch           ...       62
Average number of grid points per atom       ...     1051
Average number of shells per batch           ...   102.35 (16.67%)
Average number of basis functions per batch  ...   214.54 (15.94%)
Average number of large shells per batch     ...    64.66 (63.18%)
Average number of large basis fcns per batch ...   139.62 (65.08%)
Maximum spatial batch extension              ...  16.87, 19.69, 15.84 au
Average spatial batch extension              ...   0.53,  0.58,  0.46 au

Overlap Fitting                  UseSFitting ... on
Constructing numerical overlap ... done (      0.2 sec)
Inverting numerical overlap    ... done (      0.1 sec)
Obtaining analytic overlap     ... done (      0.0 sec)
Final contraction and storage  ... done (      0.1 sec)

Time for X-Grid setup             =    6.072 sec
--------------
SCF ITERATIONS
--------------
ITER       Energy         Delta-E        Max-DP      RMS-DP      [F,P]     Damp
               ***  Starting incremental Fock matrix formation  ***
  0  -4789.5834146353   0.000000000000 0.07995831  0.00097485  0.2347919 0.7000
  1  -4790.2007684483  -0.617353812937 0.06372327  0.00071206  0.1137553 0.7000
                               ***Turning on DIIS***
  2  -4790.4848931591  -0.284124710830 0.08746597  0.00128436  0.0441835 0.0000
  3  -4790.9323597975  -0.447466638449 0.06036322  0.00053300  0.0628450 0.0000
  4  -4791.0228864110  -0.090526613505 0.01112396  0.00013357  0.0093946 0.0000
  5  -4791.0269605738  -0.004074162762 0.01074691  0.00006757  0.0090302 0.0000
                      *** Initiating the SOSCF procedure ***
                           *** Shutting down DIIS ***
                      *** Re-Reading the Fockian *** 
                      *** Removing any level shift *** 
ITER      Energy       Delta-E        Grad      Rot      Max-DP    RMS-DP
  6  -4791.02821672  -0.0012561462  0.001447  0.001447  0.003445  0.000034
               *** Restarting incremental Fock matrix formation ***
  7  -4791.02859965  -0.0003829273  0.001143  0.009858  0.003096  0.000034
  8  -4791.02890329  -0.0003036413  0.000586  0.012994  0.002836  0.000045
  9  -4791.02894476  -0.0000414670  0.000796  0.004274  0.001352  0.000018
 10  -4791.02902178  -0.0000770253  0.000138  0.000674  0.000576  0.000006
 11  -4791.02902201  -0.0000002265  0.000105  0.000478  0.000258  0.000003
 12  -4791.02902504  -0.0000030360  0.000030  0.000256  0.000131  0.000001
 13  -4791.02902500   0.0000000470  0.000020  0.000054  0.000080  0.000001
 14  -4791.02902520  -0.0000002028  0.000009  0.000071  0.000030  0.000000
 15  -4791.02902519   0.0000000103  0.000006  0.000025  0.000016  0.000000
                  ***Gradient check signals convergence***
              ***Rediagonalizing the Fockian in SOSCF/NRSCF***

               *****************************************************
               *                     SUCCESS                       *
               *           SCF CONVERGED AFTER  16 CYCLES          *
               *****************************************************

Setting up the final grid:

General Integration Accuracy     IntAcc      ...  5.010
Radial Grid Type                 RadialGrid  ... Gauss-Chebyshev
Angular Grid (max. acc.)         AngularGrid ... Lebedev-434
Angular grid pruning method      GridPruning ... 3 (G Style)
Weight generation scheme         WeightScheme... Becke
Basis function cutoff            BFCut       ...    1.0000e-11
Integration weight cutoff        WCut        ...    1.0000e-14
Grids for H and He will be reduced by one unit

# of grid points (after initial pruning)     ... 1140784 (   0.1 sec)
# of grid points (after weights+screening)   ... 967394 (  15.5 sec)
nearest neighbour list constructed           ...    0.0 sec
Grid point re-assignment to atoms done       ...    0.1 sec
Grid point division into batches done        ...    5.8 sec
Reduced shell lists constructed in    7.7 sec

Total number of grid points                  ...   967394
Total number of batches                      ...    15174
Average number of points per batch           ...       63
Average number of grid points per atom       ...     7929
Average number of shells per batch           ...    88.69 (14.44%)
Average number of basis functions per batch  ...   184.56 (13.71%)
Average number of large shells per batch     ...    55.44 (62.51%)
Average number of large basis fcns per batch ...   118.57 (64.25%)
Maximum spatial batch extension              ...  18.14, 19.80, 15.45 au
Average spatial batch extension              ...   0.25,  0.26,  0.24 au

Final grid set up in   24.1 sec
Final integration                            ... done (   3.7 sec)
Change in XC energy                          ...     0.000009392
Integrated number of electrons               ...   577.999942499
Previous integrated no of electrons          ...   578.000245242
Old exchange energy                            =   -146.502629755 Eh
New exchange energy                            =   -146.500298224 Eh
Exchange energy change after final integration =      0.002331531 Eh
Total energy after final integration           =  -4791.026684309 Eh
Final COS-X integration done in                =    76.482 sec

----------------
TOTAL SCF ENERGY
----------------

Total Energy       :        -4791.02668431 Eh         -130370.46399 eV

Components:
Nuclear Repulsion  :        12406.55600555 Eh          337599.55214 eV
Electronic Energy  :       -17197.58268986 Eh         -467970.01613 eV
One Electron Energy:       -31266.01244850 Eh         -850791.45213 eV
Two Electron Energy:        14068.42975865 Eh          382821.43600 eV

Virial components:
Potential Energy   :        -9548.28731244 Eh         -259822.10687 eV
Kinetic Energy     :         4757.26062813 Eh          129451.64289 eV
Virial Ratio       :            2.00709779


DFT components:
N(Alpha)           :      288.999971249550 electrons
N(Beta)            :      288.999971249550 electrons
N(Total)           :      577.999942499100 electrons
E(XC)              :     -407.460588048251 Eh       
DFET-embed. en.    :        0.000000000000 Eh       

---------------
SCF CONVERGENCE
---------------

  Last Energy change         ...   -4.3614e-08  Tolerance :   1.0000e-08
  Last MAX-Density change    ...    1.0214e-14  Tolerance :   1.0000e-07
  Last RMS-Density change    ...    3.3532e-17  Tolerance :   5.0000e-09
  Last Orbital Gradient      ...    1.3148e-06  Tolerance :   1.0000e-05
  Last Orbital Rotation      ...    9.5764e-06  Tolerance :   1.0000e-05

             **** THE GBW FILE WAS UPDATED (xtbopt.gbw) ****
             **** DENSITY FILE WAS UPDATED (xtbopt.scfp) ****
             **** ENERGY FILE WAS UPDATED (xtbopt.en.tmp) ****
             **** THE GBW FILE WAS UPDATED (xtbopt.gbw) ****
             **** DENSITY FILE WAS UPDATED (xtbopt.scfp) ****
----------------
ORBITAL ENERGIES
----------------

  NO   OCC          E(Eh)            E(eV) 
   0   2.0000     -88.970380     -2421.0071 
   1   2.0000     -88.963440     -2420.8183 
   2   2.0000     -88.897940     -2419.0359 
   3   2.0000     -88.883727     -2418.6492 
   4   2.0000     -19.206915      -522.6467 
   5   2.0000     -19.201607      -522.5023 
   6   2.0000     -19.190643      -522.2039 
   7   2.0000     -19.188313      -522.1405 
   8   2.0000     -14.490343      -394.3023 
   9   2.0000     -14.480074      -394.0229 
  10   2.0000     -14.408401      -392.0725 
  11   2.0000     -14.404592      -391.9689 
  12   2.0000     -14.402625      -391.9153 
  13   2.0000     -14.401811      -391.8932 
  14   2.0000     -14.370624      -391.0446 
  15   2.0000     -14.352996      -390.5649 
  16   2.0000     -10.364408      -282.0299 
  17   2.0000     -10.362218      -281.9703 
  18   2.0000     -10.351574      -281.6807 
  19   2.0000     -10.348068      -281.5853 
  20   2.0000     -10.342013      -281.4205 
  21   2.0000     -10.335840      -281.2525 
  22   2.0000     -10.331600      -281.1371 
  23   2.0000     -10.327515      -281.0260 
  24   2.0000     -10.325652      -280.9753 
  25   2.0000     -10.325287      -280.9654 
  26   2.0000     -10.323768      -280.9240 
  27   2.0000     -10.322650      -280.8936 
  28   2.0000     -10.321139      -280.8525 
  29   2.0000     -10.321130      -280.8522 
  30   2.0000     -10.320308      -280.8299 
  31   2.0000     -10.320101      -280.8242 
  32   2.0000     -10.315612      -280.7021 
  33   2.0000     -10.315577      -280.7011 
  34   2.0000     -10.314556      -280.6733 
  35   2.0000     -10.313954      -280.6570 
  36   2.0000     -10.313236      -280.6374 
  37   2.0000     -10.308540      -280.5096 
  38   2.0000     -10.304482      -280.3992 
  39   2.0000     -10.302659      -280.3496 
  40   2.0000     -10.301919      -280.3295 
  41   2.0000     -10.299364      -280.2599 
  42   2.0000     -10.298471      -280.2356 
  43   2.0000     -10.292810      -280.0816 
  44   2.0000     -10.292617      -280.0764 
  45   2.0000     -10.290911      -280.0299 
  46   2.0000     -10.289616      -279.9947 
  47   2.0000     -10.289401      -279.9888 
  48   2.0000     -10.289077      -279.9800 
  49   2.0000     -10.288267      -279.9580 
  50   2.0000     -10.285347      -279.8785 
  51   2.0000     -10.284197      -279.8472 
  52   2.0000     -10.283577      -279.8303 
  53   2.0000     -10.281831      -279.7828 
  54   2.0000     -10.281488      -279.7735 
  55   2.0000     -10.278473      -279.6915 
  56   2.0000     -10.277730      -279.6712 
  57   2.0000     -10.276201      -279.6297 
  58   2.0000     -10.276196      -279.6295 
  59   2.0000     -10.275944      -279.6227 
  60   2.0000     -10.275319      -279.6056 
  61   2.0000     -10.273690      -279.5613 
  62   2.0000     -10.271324      -279.4969 
  63   2.0000     -10.270691      -279.4797 
  64   2.0000     -10.270390      -279.4715 
  65   2.0000     -10.269851      -279.4569 
  66   2.0000     -10.267937      -279.4048 
  67   2.0000     -10.266318      -279.3607 
  68   2.0000     -10.264885      -279.3217 
  69   2.0000     -10.264304      -279.3059 
  70   2.0000     -10.263706      -279.2896 
  71   2.0000     -10.263339      -279.2797 
  72   2.0000     -10.260851      -279.2119 
  73   2.0000     -10.260401      -279.1997 
  74   2.0000     -10.260140      -279.1926 
  75   2.0000     -10.259767      -279.1825 
  76   2.0000     -10.258102      -279.1371 
  77   2.0000     -10.256572      -279.0955 
  78   2.0000     -10.256418      -279.0913 
  79   2.0000     -10.253934      -279.0237 
  80   2.0000      -8.065986      -219.4866 
  81   2.0000      -8.059769      -219.3175 
  82   2.0000      -7.993845      -217.5236 
  83   2.0000      -7.978902      -217.1170 
  84   2.0000      -6.034961      -164.2197 
  85   2.0000      -6.030812      -164.1067 
  86   2.0000      -6.028788      -164.0516 
  87   2.0000      -6.028561      -164.0455 
  88   2.0000      -6.024572      -163.9369 
  89   2.0000      -6.022351      -163.8765 
  90   2.0000      -5.962650      -162.2520 
  91   2.0000      -5.962036      -162.2353 
[...]
-----------------------------------------------------------------------------
State   Energy  Wavelength   fosc         P2         PX        PY        PZ  
        (cm-1)    (nm)                  (au**2)     (au)      (au)      (au) 
-----------------------------------------------------------------------------
   0   10140.2    986.2   0.122638693   0.00850  -0.06024   0.01614  -0.06790
   1   12181.4    820.9   0.016588320   0.00138   0.02851   0.01484  -0.01865
   2   14289.7    699.8   0.008395295   0.00082   0.02662  -0.00612  -0.00861
   3   15489.7    645.6   0.000713136   0.00008  -0.00344   0.00753   0.00265
   4   16471.1    607.1   0.156672107   0.01764   0.12210  -0.02879   0.04359
   5   16594.2    602.6   0.124668244   0.01414  -0.09801   0.06617   0.01238
   6   17466.3    572.5   0.010042752   0.00120   0.03321  -0.00580   0.00788
   7   17528.7    570.5   0.045982128   0.00551   0.05082   0.00458   0.05390
   8   18456.9    541.8   0.013987671   0.00176  -0.03319   0.00558  -0.02513
   9   18636.9    536.6   0.167074545   0.02128  -0.11926   0.03531  -0.07623
  10   19499.7    512.8   0.163995978   0.02186   0.06476   0.01501  -0.13205
  11   20408.8    490.0   0.011067698   0.00154  -0.01664   0.02423   0.02608
  12   20912.1    478.2   0.013351321   0.00191   0.02352  -0.02773  -0.02420
  13   21023.3    475.7   0.043405770   0.00624   0.05925  -0.02423   0.04625
  14   23140.6    432.1   0.443065971   0.07007  -0.21546   0.14320   0.05606
  15   23994.0    416.8   0.157100565   0.02576   0.06314   0.01550  -0.14675
  16   24265.5    412.1   0.201724378   0.03345   0.16142  -0.08536   0.01051
  17   24798.6    403.2   0.013862568   0.00235   0.03664  -0.00049  -0.03173
  18   24992.5    400.1   0.158288000   0.02704  -0.12169   0.03955  -0.10327
  19   25567.2    391.1   0.060893809   0.01064  -0.06469   0.05643  -0.05719
  20   25731.7    388.6   0.174643497   0.03071   0.02308  -0.04551   0.16766
  21   26014.2    384.4   0.010573898   0.00188   0.01528  -0.02536   0.03168
  22   26213.3    381.5   0.009064255   0.00162   0.01275  -0.02618  -0.02786
  23   26402.4    378.8   0.092168655   0.01663  -0.08522   0.06795  -0.06893
  24   26663.8    375.0   0.264878120   0.04827  -0.02629  -0.01864   0.21733
  25   26815.1    372.9   0.161447524   0.02959   0.03797   0.02769  -0.16547
  26   27036.3    369.9   0.119802061   0.02214  -0.03921  -0.02447   0.14142
  27   27367.4    365.4   0.097057095   0.01815   0.11323   0.01734  -0.07095
  28   27801.5    359.7   0.100439666   0.01908  -0.12972  -0.01809   0.04392
  29   27943.5    357.9   0.001374859   0.00026   0.01453  -0.00538  -0.00476
  30   28006.9    357.1   0.019492663   0.00373  -0.06004   0.00440   0.01035
  31   28248.2    354.0   0.009758273   0.00188   0.01433   0.03251   0.02494
  32   28421.6    351.8   0.007497423   0.00146   0.03248  -0.01411   0.01422
  33   28576.6    349.9   0.122087683   0.02384   0.09075   0.01811  -0.12362
  34   28647.8    349.1   0.019151298   0.00375  -0.04231   0.00701   0.04371
  35   29107.9    343.5   0.078296968   0.01558  -0.10615  -0.03122   0.05774
  36   29545.4    338.5   0.013514634   0.00273  -0.01918   0.03182  -0.03672
  37   29753.4    336.1   0.065443260   0.01331  -0.02596  -0.00558  -0.11226
  38   29826.7    335.3   0.030765761   0.00627  -0.01566  -0.05927  -0.05013
  39   29975.3    333.6   0.008832312   0.00181  -0.03601   0.00194   0.02255
  40   30123.5    332.0   0.019447331   0.00400   0.01040   0.02549   0.05697
  41   30271.4    330.3   0.047077239   0.00974   0.02298   0.08664   0.04129
  42   30335.7    329.6   0.000534054   0.00011   0.00489  -0.00762   0.00536
  43   30485.0    328.0   0.056311345   0.01173   0.03566  -0.04395  -0.09235
  44   30839.5    324.3   0.038011358   0.00801   0.01035   0.04248  -0.07810
  45   30885.7    323.8   0.032858485   0.00694   0.05723   0.04643  -0.03879
  46   31061.6    321.9   0.048217234   0.01024   0.05291   0.08220  -0.02608
  47   31235.7    320.1   0.006300688   0.00135   0.00584  -0.01288  -0.03384
  48   31554.2    316.9   0.001448247   0.00031   0.01626  -0.00202  -0.00662
  49   31621.4    316.2   0.013407576   0.00290  -0.00065  -0.02217  -0.04905
  50   31810.4    314.4   0.010693129   0.00232  -0.04362   0.01142  -0.01708
  51   31927.6    313.2   0.002401660   0.00052  -0.01211  -0.00535  -0.01867
  52   32072.2    311.8   0.011332736   0.00248   0.00683   0.02449   0.04287
  53   32130.2    311.2   0.000652980   0.00014  -0.00159  -0.00276  -0.01154
  54   32567.0    307.1   0.061184555   0.01362  -0.04592  -0.10636  -0.01408
  55   32628.3    306.5   0.015117028   0.00337  -0.03614  -0.04053  -0.02055
  56   33024.8    302.8   0.082638399   0.01865  -0.12041   0.03478  -0.05426
  57   33198.0    301.2   0.003131574   0.00071  -0.01228   0.02033   0.01210
  58   33245.4    300.8   0.016886260   0.00384  -0.04304   0.02355  -0.03782
  59   33356.4    299.8   0.005860610   0.00134  -0.03226   0.01603   0.00618
  60   33453.4    298.9   0.016970039   0.00388  -0.05318  -0.00397   0.03219
  61   33560.8    298.0   0.057170481   0.01311  -0.05741   0.00433  -0.09899
  62   33647.5    297.2   0.009304532   0.00214  -0.02060  -0.00854  -0.04052
  63   33806.5    295.8   0.036911804   0.00853   0.08080  -0.04152  -0.01662
  64   33855.2    295.4   0.051656038   0.01195   0.04892  -0.05166  -0.08301
  65   34085.4    293.4   0.016283013   0.00379  -0.04950   0.03474   0.01167
  66   34237.2    292.1   0.072651583   0.01700   0.12113   0.04817  -0.00276
  67   34347.5    291.1   0.104757389   0.02459  -0.02386   0.01353  -0.15440
  68   34438.8    290.4   0.034256633   0.00806  -0.05234  -0.02381   0.06897
  69   34641.8    288.7   0.004476238   0.00106   0.01118  -0.01871   0.02419
  70   34797.9    287.4   0.001489380   0.00035   0.01433  -0.00931  -0.00788
  71   34907.9    286.5   0.004595186   0.00110  -0.01471  -0.00763   0.02866
  72   34985.3    285.8   0.053698190   0.01284   0.08026  -0.01292   0.07894
  73   35094.8    284.9   0.052203703   0.01252  -0.08437   0.00453  -0.07336
  74   35234.8    283.8   0.032108422   0.00773  -0.03876   0.04766  -0.06291
  75   35429.4    282.3   0.019719264   0.00477   0.06010  -0.02192  -0.02612
  76   35554.6    281.3   0.025183682   0.00612   0.05416  -0.03826  -0.04151
  77   35594.0    280.9   0.149994720   0.03649   0.13706  -0.10628  -0.08004
  78   35636.1    280.6   0.052938611   0.01289  -0.08850   0.05848   0.04051
  79   35761.2    279.6   0.043840069   0.01071   0.07985  -0.03272  -0.05717
  80   35789.0    279.4   0.062765009   0.01535  -0.10894   0.05145   0.02895
  81   35996.4    277.8   0.009725413   0.00239   0.00880   0.00192   0.04808
  82   36040.2    277.5   0.001563455   0.00039   0.01719  -0.00894  -0.00310
  83   36191.3    276.3   0.042649077   0.01055  -0.07802   0.00163  -0.06678
  84   36212.6    276.1   0.017035844   0.00422  -0.04303   0.02088  -0.04391
  85   36298.8    275.5   0.013267408   0.00329   0.03318  -0.02056  -0.04205
  86   36368.5    275.0   0.033371010   0.00829   0.07414   0.00703  -0.05242
  87   36715.2    272.4   0.035210649   0.00884  -0.02696   0.08794  -0.01936
  88   36856.2    271.3   0.121276295   0.03055  -0.09338  -0.00962  -0.14743
  89   36924.1    270.8   0.034216581   0.00863  -0.07553  -0.01573   0.05179
  90   36971.5    270.5   0.099598692   0.02517  -0.12547  -0.04288   0.08710
  91   37310.9    268.0   0.039360190   0.01004  -0.00273   0.06670   0.07470
  92   37441.0    267.1   0.027144265   0.00695   0.05434  -0.05446  -0.03204
  93   37574.3    266.1   0.279372343   0.07174  -0.12753  -0.00372  -0.23551
  94   37749.3    264.9   0.141033403   0.03639   0.04971  -0.07299   0.16908
  95   37821.8    264.4   0.068995628   0.01783   0.09294   0.08848   0.03699
  96   37933.5    263.6   0.010835907   0.00281   0.00868   0.03608   0.03784
  97   38054.4    262.8   0.242901318   0.06317  -0.09378  -0.12427  -0.19732
  98   38230.4    261.6   0.035996325   0.00941  -0.02643  -0.07894  -0.04975
  99   38264.4    261.3   0.022786157   0.00596   0.00697   0.00979   0.07625
 100   38549.4    259.4   0.135396885   0.03567   0.03260  -0.18400  -0.02744
 101   38664.1    258.6   0.009423941   0.00249  -0.04886   0.00441   0.00915
 102   38756.7    258.0   0.004246523   0.00112  -0.03224   0.00902  -0.00204
 103   39032.4    256.2   0.009861417   0.00263  -0.02544   0.03898   0.02155
 104   39054.6    256.1   0.056224759   0.01501  -0.09774   0.00999  -0.07318
 105   39395.0    253.8   0.019408303   0.00523  -0.00942  -0.00765  -0.07126
 106   39453.2    253.5   0.010140970   0.00273  -0.03635  -0.01030  -0.03615
 107   39511.0    253.1   0.001586863   0.00043  -0.01274   0.01224  -0.01080
 108   39635.5    252.3   0.012794651   0.00347   0.05487  -0.00671   0.02026
 109   39791.4    251.3   0.011016362   0.00300  -0.05178   0.01489   0.00967
 110   39879.2    250.8   0.038152447   0.01040   0.04697  -0.03925  -0.08156
 111   39898.8    250.6   0.014529184   0.00396  -0.02483   0.01562   0.05569
 112   40014.4    249.9   0.022505589   0.00615  -0.05738   0.05169   0.01381
 113   40105.7    249.3   0.002073253   0.00057  -0.00426  -0.00509  -0.02290
 114   40275.2    248.3   0.016327933   0.00449  -0.00329  -0.06499   0.01612

-------------------------------------------------------------------
                             CD SPECTRUM
-------------------------------------------------------------------
State   Energy Wavelength       R         MX        MY        MZ   
        (cm-1)   (nm)       (1e40*cgs)   (au)      (au)      (au)  
-------------------------------------------------------------------
   0   10140.2    986.2     -7.98441  -0.88816   1.15150   1.01118
   1   12181.4    820.9     42.45360  -0.50420   0.45325   0.12062
   2   14289.7    699.8    -13.18817  -0.08284  -0.27448  -0.60290
   3   15489.7    645.6     -0.04203  -0.15362  -0.15080   0.21993
   4   16471.1    607.1    -28.34642   0.54459  -0.51804  -1.73146
   5   16594.2    602.6      2.04257  -0.01416  -0.28308   2.30711
   6   17466.3    572.5    -32.88288   0.50681   0.05116  -0.55821
   7   17528.7    570.5    -25.94036   0.58270  -1.28030  -0.39806
   8   18456.9    541.8      4.07635  -0.26773   1.30627   0.81411
   9   18636.9    536.6     -0.75609  -1.15001   1.46078   2.61981
  10   19499.7    512.8     30.04175  -1.35629   5.01831   0.00865
  11   20408.8    490.0      1.81910   0.47463   0.14972   0.25848
  12   20912.1    478.2     -9.86892   0.62197   1.45272  -0.81927
  13   21023.3    475.7    -21.35873   1.00214  -0.44586  -1.36957
  14   23140.6    432.1     50.35757   0.85494  -0.42609   4.63509
  15   23994.0    416.8    -106.59364  -1.39873   6.27729  -0.21546
  16   24265.5    412.1    -62.35345   0.26543  -0.34361  -3.13201
  17   24798.6    403.2    -32.83070   0.81120   2.09998   0.28166
  18   24992.5    400.1    -164.90400  -1.41304   2.82924   2.16289
  19   25567.2    391.1    -32.14043  -0.58469   1.37920   1.73119
  20   25731.7    388.6    275.82899   3.07783  -3.35993  -2.12180
  21   26014.2    384.4     -4.34175   0.71590  -0.70563  -0.79182
  22   26213.3    381.5      7.53601   0.47887   1.50019  -0.77433
  23   26402.4    378.8    -174.02401  -0.27153   2.84549   1.96415
  24   26663.8    375.0    185.24699   2.63116  -6.12539  -0.68436
  25   26815.1    372.9    107.49352  -1.50300   5.90383   1.02216
  26   27036.3    369.9    231.52079   1.96836  -4.45709  -1.07306
  27   27367.4    365.4     84.19719  -0.99078   3.37076  -0.31004
  28   27801.5    359.7     -0.90846   0.54793  -3.04161   0.61665
  29   27943.5    357.9     -5.92165   0.17904   0.27296  -0.31246
  30   28006.9    357.1    -27.15812  -0.19187  -0.34594   0.73215
  31   28248.2    354.0    -41.07403   0.23313   0.26159   0.39111
  32   28421.6    351.8    -10.96186   0.11492  -0.88370  -0.74964
  33   28576.6    349.9    257.13400  -1.71228   4.69562   0.44884
  34   28647.8    349.1     39.46921   0.43392  -1.85796   0.26630
  35   29107.9    343.5    -208.53146   0.23258  -4.68366   0.02559
  36   29545.4    338.5    -71.63515  -0.25257   2.13644   0.84726
  37   29753.4    336.1     63.04876  -2.23733   1.06921   0.78334
  38   29826.7    335.3      9.00941   1.59496   0.56834  -0.99490
  39   29975.3    333.6     26.13125   0.57233  -0.57781   0.29838
  40   30123.5    332.0     18.85475   0.34454  -0.52637  -0.03418
  41   30271.4    330.3     13.39913  -3.06179  -0.16625   1.72291
  42   30335.7    329.6     -4.22333   0.00495  -0.48752  -0.22948
  43   30485.0    328.0    -12.32655  -1.52673   0.48977  -0.89961
  44   30839.5    324.3     49.30094  -1.93227   2.26017   1.43850
  45   30885.7    323.8    -64.88103  -0.93587   2.51025   0.74896
  46   31061.6    321.9    -74.65289  -2.43639   2.24994   1.08655
  47   31235.7    320.1    -15.37095  -0.49802   0.37414  -0.45323
  48   31554.2    316.9     -8.39674   0.37317   0.81520  -0.19568
  49   31621.4    316.2     -6.30069  -0.48497   0.82415  -0.42478
  50   31810.4    314.4     -7.25967  -0.41421   0.00147   0.79288
  51   31927.6    313.2      8.52196  -0.10727   0.48149   0.19708
  52   32072.2    311.8     -7.66353   0.19753  -0.56195   0.37179
  53   32130.2    311.2      1.66412  -0.47578   0.57268  -0.03341
  54   32567.0    307.1    -20.81554   2.93318  -0.93726  -2.43554
  55   32628.3    306.5     20.14152   1.00171  -0.22174  -0.67768
  56   33024.8    302.8      4.34325  -0.79254   0.51745   2.04375
  57   33198.0    301.2      3.58612  -0.18660  -0.53069   0.42187
  58   33245.4    300.8    -17.31292  -0.97491   0.51437   1.10407
  59   33356.4    299.8    -12.40667  -0.04654   0.24991   0.59327
  60   33453.4    298.9     61.51781   1.25110  -2.52777   0.92202
  61   33560.8    298.0     48.36354  -1.02524   1.49283   0.97808
  62   33647.5    297.2     -9.10011  -0.69773   0.36911   0.11850
  63   33806.5    295.8    -17.81836   0.63495   1.86469  -2.07025
  64   33855.2    295.4     10.81599  -0.54615   1.90299  -1.46074
  65   34085.4    293.4    -77.86728  -0.20397   0.72259   1.18477
  66   34237.2    292.1    211.54999  -2.12579   2.59593  -0.05846
  67   34347.5    291.1    163.45863  -2.16995   2.91601   1.25049
  68   34438.8    290.4    -235.95114  -0.45011  -4.02517   0.00482
  69   34641.8    288.7    -31.74429  -0.17775  -1.37026  -0.40000
  70   34797.9    287.4     -3.91272   0.05160   0.12947  -0.38652
  71   34907.9    286.5     -0.92787  -0.01174  -0.78550  -0.19915
  72   34985.3    285.8     53.14856   0.68621  -1.37065  -1.19153
  73   35094.8    284.9     94.58130   0.01179   1.41576   0.90147
  74   35234.8    283.8    -94.35545  -0.91269   2.49135   1.59521
  75   35429.4    282.3     30.52625  -0.19739   1.22563  -0.74232
  76   35554.6    281.3     -0.71622  -0.22146   0.93480  -1.16936
  77   35594.0    280.9    -91.90419   0.97623   3.27613  -3.37133
  78   35636.1    280.6    -25.92587  -0.58727  -2.01303   2.10584
  79   35761.2    279.6     -8.58886  -0.28795   1.41224  -1.30155
  80   35789.0    279.4     33.65348  -0.04460  -1.58851   2.01498
  81   35996.4    277.8     13.64623  -0.70975  -2.32627  -0.04449
  82   36040.2    277.5    -16.28236   1.00987   1.04098  -0.51057
  83   36191.3    276.3     30.22385  -0.57270   1.19999   1.02852
  84   36212.6    276.1    -29.67632  -1.63838  -0.38536   1.05107
  85   36298.8    275.5     36.88642  -0.21885   2.64114  -0.86245
  86   36368.5    275.0    -111.24884   0.01138   2.87760  -0.99468
  87   36715.2    272.4    -94.07097  -2.96003   0.26652   2.02272
  88   36856.2    271.3     17.36548  -2.10823   2.95250   1.22615
  89   36924.1    270.8     44.24531   1.33617  -3.23854   0.53467
  90   36971.5    270.5     89.89378   2.18755  -5.60246  -0.29833
  91   37310.9    268.0      6.16654  -1.42266  -1.65024   1.28340
  92   37441.0    267.1    -16.67937  -0.16641   0.52466  -1.55405
  93   37574.3    266.1     -6.04668  -4.28470   3.24236   2.28517
  94   37749.3    264.9    157.69398   4.13127  -2.79645  -3.14032
  95   37821.8    264.4    -44.12930  -0.81863   0.71796   1.00756
  96   37933.5    263.6      4.84173  -0.30028  -0.87879   0.79819
  97   38054.4    262.8    -230.62743  -2.42993   1.78176  -0.81950
  98   38230.4    261.6    -51.13519   0.23671   0.13192  -1.07205
  99   38264.4    261.3     19.11017   1.23850  -1.48305  -0.05555
 100   38549.4    259.4    -129.05482   5.06685   1.04798  -4.36331
 101   38664.1    258.6     22.22640   0.26671  -1.71070   1.03377
 102   38756.7    258.0     33.34385   0.24018  -1.08638   1.02360
 103   39032.4    256.2      2.08710  -0.80510  -1.20361   1.21587
 104   39054.6    256.1    -28.77945  -1.38503   0.01876   1.56066
 105   39395.0    253.8     29.03010  -1.30314   0.81001   0.33579
 106   39453.2    253.5    -25.25747  -0.68546  -0.90211   0.46509
 107   39511.0    253.1      4.33434  -0.84216  -0.57417   0.56324
 108   39635.5    252.3    -27.35710   0.81612   0.97303  -0.99197
 109   39791.4    251.3    -12.72532  -0.27509  -1.01986   1.07362
 110   39879.2    250.8     11.65463  -0.58923   1.89984  -1.13758
 111   39898.8    250.6     13.75716   0.83239  -0.94011   0.45601
 112   40014.4    249.9     48.84075  -1.86643  -3.22213   1.93148
 113   40105.7    249.3      0.70382  -0.60508  -0.15747   0.15786
 114   40275.2    248.3    -39.13338   2.43785  -0.77781  -1.35557

sTD-DFT done

Total run time:        5.462 sec

           *** ORCA-CIS/TD-DFT FINISHED WITHOUT ERROR ***

-------------------------   --------------------
FINAL SINGLE POINT ENERGY     -4791.026684308779
-------------------------   --------------------


                            ***************************************
                            *     ORCA property calculations      *
                            ***************************************

                                    ---------------------
                                    Active property flags
                                    ---------------------
   (+) Dipole Moment


------------------------------------------------------------------------------
                       ORCA ELECTRIC PROPERTIES CALCULATION
------------------------------------------------------------------------------

Dipole Moment Calculation                       ... on
Quadrupole Moment Calculation                   ... off
Polarizability Calculation                      ... off
GBWName                                         ... xtbopt.gbw
Electron density file                           ... xtbopt.scfp
The origin for moment calculation is the CENTER OF MASS  = (-16.522447, -12.859236 -16.978762)

-------------
DIPOLE MOMENT
-------------
                                X             Y             Z
Electronic contribution:     -9.38685       4.71539      31.27556
Nuclear contribution   :     10.18296      -4.28251     -35.32612
                        -----------------------------------------
Total Dipole Moment    :      0.79611       0.43288      -4.05057
                        -----------------------------------------
Magnitude (a.u.)       :      4.15070
Magnitude (Debye)      :     10.55023



--------------------
Rotational spectrum 
--------------------
 
Rotational constants in cm-1:     0.000818     0.000276     0.000230 
Rotational constants in MHz :    24.524488     8.281318     6.899886 

 Dipole components along the rotational axes: 
x,y,z [a.u.] :    -2.987167    -2.879228     0.123077 
x,y,z [Debye]:    -7.592776    -7.318417     0.312837 

 

Timings for individual modules:

Sum of individual times         ...      768.277 sec (=  12.805 min)
GTO integral calculation        ...        3.835 sec (=   0.064 min)   0.5 %
SCF iterations                  ...      757.897 sec (=  12.632 min)  98.6 %
CIS module                      ...        6.545 sec (=   0.109 min)   0.9 %
                             ****ORCA TERMINATED NORMALLY****
TOTAL RUN TIME: 0 days 0 hours 12 minutes 49 seconds 472 msec
