
                                 *****************
                                 * O   R   C   A *
                                 *****************

           --- An Ab Initio, DFT and Semiempirical electronic structure package ---

                  #######################################################
                  #                        -***-                        #
                  #          Department of theory and spectroscopy      #
                  #               Directorship: Frank Neese             #
                  #        Max Planck Institute fuer Kohlenforschung    #
                  #                Kaiser Wilhelm Platz 1               #
                  #                 D-45470 Muelheim/Ruhr               #
                  #                      Germany                        #
                  #                                                     #
                  #                  All rights reserved                #
                  #                        -***-                        #
                  #######################################################


                         Program Version 4.2.0 -  RELEASE  -


 With contributions from (in alphabetic order):
   Daniel Aravena         : Magnetic Suceptibility
   Michael Atanasov       : Ab Initio Ligand Field Theory (pilot matlab implementation)
   Alexander A. Auer      : GIAO ZORA, VPT2
   Ute Becker             : Parallelization
   Giovanni Bistoni       : ED, misc. LED, open-shell LED, HFLED
   Martin Brehm           : Molecular dynamics
   Dmytro Bykov           : SCF Hessian
   Vijay G. Chilkuri      : MRCI spin determinant printing, contributions to CSF-ICE
   Dipayan Datta          : RHF DLPNO-CCSD density
   Achintya Kumar Dutta   : EOM-CC, STEOM-CC
   Dmitry Ganyushin       : Spin-Orbit,Spin-Spin,Magnetic field MRCI
   Miquel Garcia          : C-PCM Hessian, Gaussian charge scheme
   Yang Guo               : DLPNO-NEVPT2, CIM, IAO-localization
   Andreas Hansen         : Spin unrestricted coupled pair/coupled cluster methods
   Benjamin Helmich-Paris : CASSCF linear response (MC-RPA)
   Lee Huntington         : MR-EOM, pCC
   Robert Izsak           : Overlap fitted RIJCOSX, COSX-SCS-MP3, EOM
   Christian Kollmar      : KDIIS, OOCD, Brueckner-CCSD(T), CCSD density
   Simone Kossmann        : Meta GGA functionals, TD-DFT gradient, OOMP2, MP2 Hessian
   Martin Krupicka        : AUTO-CI
   Lucas Lang             : DCDCAS
   Dagmar Lenk            : GEPOL surface, SMD
   Dimitrios Liakos       : Extrapolation schemes; Compound Job, initial MDCI parallelization
   Dimitrios Manganas     : Further ROCIS development; embedding schemes
   Dimitrios Pantazis     : SARC Basis sets
   Taras Petrenko         : DFT Hessian,TD-DFT gradient, ASA, ECA, R-Raman, ABS, FL, XAS/XES, NRVS
   Peter Pinski           : DLPNO-MP2, DLPNO-MP2 Gradient
   Christoph Reimann      : Effective Core Potentials
   Marius Retegan         : Local ZFS, SOC
   Christoph Riplinger    : Optimizer, TS searches, QM/MM, DLPNO-CCSD(T), (RO)-DLPNO pert. Triples
   Tobias Risthaus        : Range-separated hybrids, TD-DFT gradient, RPA, STAB
   Michael Roemelt        : Original ROCIS implementation
   Masaaki Saitow         : Open-shell DLPNO-CCSD energy and density
   Barbara Sandhoefer     : DKH picture change effects
   Avijit Sen             : IP-ROCIS
   Kantharuban Sivalingam : CASSCF convergence, NEVPT2, FIC-MRCI
   Bernardo de Souza      : ESD, SOC TD-DFT
   Georgi Stoychev        : AutoAux, RI-MP2 NMR
   Willem Van den Heuvel  : Paramagnetic NMR
   Boris Wezisla          : Elementary symmetry handling
   Frank Wennmohs         : Technical directorship


 We gratefully acknowledge several colleagues who have allowed us to
 interface, adapt or use parts of their codes:
   Stefan Grimme, W. Hujo, H. Kruse,             : VdW corrections, initial TS optimization,
                  C. Bannwarth                     DFT functionals, gCP, sTDA/sTD-DF
   Ed Valeev, F. Pavosevic, A. Kumar             : LibInt (2-el integral package), F12 methods
   Garnet Chan, S. Sharma, J. Yang, R. Olivares  : DMRG
   Ulf Ekstrom                                   : XCFun DFT Library
   Mihaly Kallay                                 : mrcc  (arbitrary order and MRCC methods)
   Andreas Klamt, Michael Diedenhofen            : otool_cosmo (COSMO solvation model)
   Jiri Pittner, Ondrej Demel                    : Mk-CCSD
   Frank Weinhold                                : gennbo (NPA and NBO analysis)
   Christopher J. Cramer and Donald G. Truhlar   : smd solvation model
   Lars Goerigk                                  : TD-DFT with DH, B97 family of functionals
   V. Asgeirsson, H. Jonsson                     : NEB implementation
   FAccTs GmbH                                   : IRC, NEB, NEB-TS, Multilevel, MM, QM/MM, CI optimization
   S Lehtola, MJT Oliveira, MAL Marques          : LibXC Library


 Your calculation uses the libint2 library for the computation of 2-el integrals
 For citations please refer to: http://libint.valeyev.net

 Your ORCA version has been built with support for libXC version: 4.2.3
 For citations please refer to: https://tddft.org/programs/libxc/

 This ORCA versions uses:
   CBLAS   interface :  Fast vector & matrix operations
   LAPACKE interface :  Fast linear algebra routines
   SCALAPACK package :  Parallel linear algebra routines


XCFun DFT library Copyright 2009-2010 Ulf Ekstrom and contributors.
See http://admol.org/xcfun for more information. This is free soft-
ware; see the source code for copying conditions. There is ABSOLUTELY
NO WARRANTY; not even for MERCHANTABILITY or FITNESS FOR A PARTICULAR
PURPOSE. For details see the documentation. Scientific users of this 
library should cite U. Ekstrom, L. Visscher, R. Bast, A. J. Thorvald-
sen and K. Ruud; J.Chem.Theor.Comp. 2010, DOI: 10.1021/ct100117s
XCFun Version 0.99 
----- Orbital basis set information -----
Your calculation utilizes the basis: def2-SVP
   F. Weigend and R. Ahlrichs, Phys. Chem. Chem. Phys. 7, 3297 (2005).

----- AuxJ basis set information -----
Your calculation utilizes the auxiliary basis: def2/J
   F. Weigend, Phys. Chem. Chem. Phys. 8, 1057 (2006).

================================================================================
                                        WARNINGS
                       Please study these warnings very carefully!
================================================================================

INFO   : Checking CIS options ...

WARNING: CIS/ROCIS methods need fully converged wavefunctions
  ===> : Setting SCFConvForced true
         You can overwrite this default with %scf ConvForced false 


INFO   : the flag for use of LIBINT has been found!

================================================================================
                                       INPUT FILE
================================================================================
NAME = xtbopt.inp
|  1> # ORCA input file
|  2> # SCF done       -228.485491911087          0.000457761891
|  3> ! CAM-B3LYP def2-SVP def2/J RIJCOSX Grid4 TightSCF
|  4> %maxcore 5000
|  5> %tddft
|  6>     Mode sTDDFT
|  7>     Ethresh 5.0
|  8>     maxcore 5000
|  9> end
| 10> 
| 11> %pal
| 12>   nprocs 6
| 13>   end
| 14> * xyz 0 1
| 15>    C      -19.75699         7.75288        -5.26205
| 16>    C      -20.19000         8.39789        -4.13654
| 17>    C      -21.46622         8.98708        -4.00018
| 18>    N      -22.48683         9.48104        -3.82386
| 19>    C      -19.44011         8.56234        -2.95212
| 20>    N      -18.89358         8.72851        -1.95633
| 21>    C      -20.51648         7.57189        -6.48845
| 22>    C      -19.72952         6.84744        -7.42126
| 23>    C      -20.18196         6.52065        -8.67806
| 24>    C      -21.46884         6.92958        -9.03596
| 25>    C      -22.24902         7.65265        -8.09913
| 26>    C      -21.79423         7.98090        -6.82868
| 27>    S      -23.80478         8.05273        -8.75436
| 28>    C      -23.40710         7.26792       -10.24305
| 29>    C      -22.16856         6.72794       -10.25833
| 30>    C      -18.42583         6.53092        -6.82707
| 31>    O      -17.54099         5.86657        -7.32275
| 32>    C      -18.44545         7.13657        -5.46102
| 33>    C      -17.42371         7.06946        -4.58935
| 34>    C      -16.09034         6.52813        -4.95019
| 35>    C      -15.19139         7.66746        -5.48992
| 36>    O      -15.45163         8.43974        -6.35748
| 37>    O      -14.02400         7.66651        -4.81327
| 38>    C      -14.04880         6.69887        -3.83756
| 39>    C      -15.25708         5.99848        -3.83291
| 40>    C      -15.49931         4.98871        -2.92020
| 41>    C      -14.46461         4.71176        -2.04416
| 42>    C      -13.24741         5.39791        -2.06347
| 43>    C      -13.01371         6.42151        -2.96406
| 44>    C      -12.34950         4.74447        -1.06782
| 45>    C      -13.29514         3.72181        -0.42621
| 46>    O      -13.07131         2.98534         0.48331
| 47>    O      -14.48807         3.73881        -1.08200
| 48>    C      -11.20010         3.97709        -1.69818
| 49>    C      -11.17390         3.72908        -3.03588
| 50>    C      -10.10161         2.99472        -3.59849
| 51>    C       -9.82918         2.63597        -4.90448
| 52>    C      -10.59260         2.97079        -6.14486
| 53>    C      -11.99415         2.33186        -6.13588
| 54>    N      -12.46031         2.17007        -7.50049
| 55>    C      -10.66089         4.49566        -6.35019
| 56>    N      -11.22396         4.81970        -7.65258
| 57>    C       -8.62102         1.84350        -4.86817
| 58>    C       -7.95213         1.20428        -5.84334
| 59>    C       -6.72556         0.40584        -5.55923
| 60>    C       -6.30074         0.40397        -4.12523
| 61>    C       -6.98489         1.04632        -3.15951
| 62>    C       -8.16074         1.76743        -3.47281
| 63>    C       -9.06980         2.47440        -2.70982
| 64>    C       -9.14781         2.73805        -1.32259
| 65>    C      -10.17974         3.47614        -0.83604
| 66>    C       -5.60554         0.91864        -6.43258
| 67>    C       -5.14380         0.28184        -7.49499
| 68>    C       -4.03763         0.80040        -8.36729
| 69>    C       -2.86743        -0.19364        -8.40950
| 70>    O       -2.22591        -0.60230        -7.49269
| 71>    O       -2.65067        -0.58470        -9.69322
| 72>    C       -3.54244         0.04334       -10.52040
| 73>    C       -4.40669         0.88354        -9.81522
| 74>    C       -5.38836         1.61174       -10.45809
| 75>    C       -5.43889         1.46280       -11.83152
| 76>    C       -4.57430         0.62120       -12.53643
| 77>    C       -3.59978        -0.11605       -11.89375
| 78>    C       -4.95074         0.72098       -13.98565
| 79>    C       -6.00607         1.83244       -13.95046
| 80>    O       -6.54669         2.34568       -14.88477
| 81>    O       -6.29696         2.13438       -12.66678
| 82>    C       -3.85185         0.86646       -14.98707
| 83>    C       -3.48468         1.92433       -15.71828
| 84>    C       -3.89803         3.32250       -15.75316
| 85>    C       -4.08147         4.13063       -14.66896
| 86>    C       -4.40108         5.50233       -14.75479
| 87>    N       -4.66220         6.61879       -14.77834
| 88>    C       -3.83584         3.68762       -13.35533
| 89>    N       -3.56434         3.35624       -12.29012
| 90>    C       -3.77980         3.76197       -17.13294
| 91>    C       -3.00881         2.80734       -17.85007
| 92>    C       -2.68266         1.67606       -16.97091
| 93>    O       -1.98927         0.71615       -17.19608
| 94>    C       -2.67176         2.98311       -19.17240
| 95>    C       -3.12367         4.13946       -19.81346
| 96>    C       -3.90790         5.07502       -19.09180
| 97>    C       -4.24215         4.90575       -17.75384
| 98>    S       -4.36022         6.41782       -20.09038
| 99>    C       -3.51032         5.73752       -21.43432
|100>    C       -2.91480         4.55680       -21.15823
|101>    H      -19.55648         5.96913        -9.36265
|102>    H      -22.42713         8.53124        -6.15282
|103>    H      -24.13751         7.25901       -11.02865
|104>    H      -21.75054         6.20251       -11.09770
|105>    H      -17.51277         7.47175        -3.58996
|106>    H      -16.19964         5.80902        -5.77487
|107>    H      -16.42522         4.43961        -2.89640
|108>    H      -12.08040         6.95773        -2.99758
|109>    H      -11.96102         5.42286        -0.30392
|110>    H      -11.96411         4.08095        -3.67942
|111>    H      -10.06935         2.54423        -7.00638
|112>    H      -12.66826         2.94151        -5.51147
|113>    H      -11.92900         1.33753        -5.68043
|114>    H      -12.47421         3.08470        -7.94529
|115>    H      -13.40382         1.79730        -7.50877
|116>    H       -9.64771         4.90861        -6.20260
|117>    H      -11.30999         4.94270        -5.59368
|118>    H      -10.59398         4.51960        -8.39011
|119>    H      -11.35080         5.82211        -7.74300
|120>    H       -8.27274         1.23359        -6.87610
|121>    H       -6.93295        -0.63122        -5.86341
|122>    H       -5.40015        -0.14847        -3.90562
|123>    H       -6.64903         1.01260        -2.13329
|124>    H       -8.38718         2.34921        -0.66230
|125>    H      -10.26056         3.67871         0.22086
|126>    H       -5.19814         1.87432        -6.13379
|127>    H       -5.55504        -0.67358        -7.79344
|128>    H       -3.67813         1.75672        -7.97624
|129>    H       -6.05585         2.27401        -9.93435
|130>    H       -2.91683        -0.76302       -12.41730
|131>    H       -5.49773        -0.19308       -14.26801
|132>    H       -3.35176        -0.06379       -15.23661
|133>    H       -2.07651         2.25007       -19.69429
|134>    H       -4.84796         5.63431       -17.24050
|135>    H       -3.50970         6.27225       -22.36425
|136>    H       -2.34396         3.98880       -21.87016
|137> *
|138> 
|139>                          ****END OF INPUT****
================================================================================

                       ****************************
                       * Single Point Calculation *
                       ****************************

---------------------------------
CARTESIAN COORDINATES (ANGSTROEM)
---------------------------------
  C    -19.756990    7.752880   -5.262050
  C    -20.190000    8.397890   -4.136540
  C    -21.466220    8.987080   -4.000180
  N    -22.486830    9.481040   -3.823860
  C    -19.440110    8.562340   -2.952120
  N    -18.893580    8.728510   -1.956330
  C    -20.516480    7.571890   -6.488450
  C    -19.729520    6.847440   -7.421260
  C    -20.181960    6.520650   -8.678060
  C    -21.468840    6.929580   -9.035960
  C    -22.249020    7.652650   -8.099130
  C    -21.794230    7.980900   -6.828680
  S    -23.804780    8.052730   -8.754360
  C    -23.407100    7.267920  -10.243050
  C    -22.168560    6.727940  -10.258330
  C    -18.425830    6.530920   -6.827070
  O    -17.540990    5.866570   -7.322750
  C    -18.445450    7.136570   -5.461020
  C    -17.423710    7.069460   -4.589350
  C    -16.090340    6.528130   -4.950190
  C    -15.191390    7.667460   -5.489920
  O    -15.451630    8.439740   -6.357480
  O    -14.024000    7.666510   -4.813270
  C    -14.048800    6.698870   -3.837560
  C    -15.257080    5.998480   -3.832910
  C    -15.499310    4.988710   -2.920200
  C    -14.464610    4.711760   -2.044160
  C    -13.247410    5.397910   -2.063470
  C    -13.013710    6.421510   -2.964060
  C    -12.349500    4.744470   -1.067820
  C    -13.295140    3.721810   -0.426210
  O    -13.071310    2.985340    0.483310
  O    -14.488070    3.738810   -1.082000
  C    -11.200100    3.977090   -1.698180
  C    -11.173900    3.729080   -3.035880
  C    -10.101610    2.994720   -3.598490
  C     -9.829180    2.635970   -4.904480
  C    -10.592600    2.970790   -6.144860
  C    -11.994150    2.331860   -6.135880
  N    -12.460310    2.170070   -7.500490
  C    -10.660890    4.495660   -6.350190
  N    -11.223960    4.819700   -7.652580
  C     -8.621020    1.843500   -4.868170
  C     -7.952130    1.204280   -5.843340
  C     -6.725560    0.405840   -5.559230
  C     -6.300740    0.403970   -4.125230
  C     -6.984890    1.046320   -3.159510
  C     -8.160740    1.767430   -3.472810
  C     -9.069800    2.474400   -2.709820
  C     -9.147810    2.738050   -1.322590
  C    -10.179740    3.476140   -0.836040
  C     -5.605540    0.918640   -6.432580
  C     -5.143800    0.281840   -7.494990
  C     -4.037630    0.800400   -8.367290
  C     -2.867430   -0.193640   -8.409500
  O     -2.225910   -0.602300   -7.492690
  O     -2.650670   -0.584700   -9.693220
  C     -3.542440    0.043340  -10.520400
  C     -4.406690    0.883540   -9.815220
  C     -5.388360    1.611740  -10.458090
  C     -5.438890    1.462800  -11.831520
  C     -4.574300    0.621200  -12.536430
  C     -3.599780   -0.116050  -11.893750
  C     -4.950740    0.720980  -13.985650
  C     -6.006070    1.832440  -13.950460
  O     -6.546690    2.345680  -14.884770
  O     -6.296960    2.134380  -12.666780
  C     -3.851850    0.866460  -14.987070
  C     -3.484680    1.924330  -15.718280
  C     -3.898030    3.322500  -15.753160
  C     -4.081470    4.130630  -14.668960
  C     -4.401080    5.502330  -14.754790
  N     -4.662200    6.618790  -14.778340
  C     -3.835840    3.687620  -13.355330
  N     -3.564340    3.356240  -12.290120
  C     -3.779800    3.761970  -17.132940
  C     -3.008810    2.807340  -17.850070
  C     -2.682660    1.676060  -16.970910
  O     -1.989270    0.716150  -17.196080
  C     -2.671760    2.983110  -19.172400
  C     -3.123670    4.139460  -19.813460
  C     -3.907900    5.075020  -19.091800
  C     -4.242150    4.905750  -17.753840
  S     -4.360220    6.417820  -20.090380
  C     -3.510320    5.737520  -21.434320
  C     -2.914800    4.556800  -21.158230
  H    -19.556480    5.969130   -9.362650
  H    -22.427130    8.531240   -6.152820
  H    -24.137510    7.259010  -11.028650
  H    -21.750540    6.202510  -11.097700
  H    -17.512770    7.471750   -3.589960
  H    -16.199640    5.809020   -5.774870
  H    -16.425220    4.439610   -2.896400
  H    -12.080400    6.957730   -2.997580
  H    -11.961020    5.422860   -0.303920
  H    -11.964110    4.080950   -3.679420
  H    -10.069350    2.544230   -7.006380
  H    -12.668260    2.941510   -5.511470
  H    -11.929000    1.337530   -5.680430
  H    -12.474210    3.084700   -7.945290
  H    -13.403820    1.797300   -7.508770
  H     -9.647710    4.908610   -6.202600
  H    -11.309990    4.942700   -5.593680
  H    -10.593980    4.519600   -8.390110
  H    -11.350800    5.822110   -7.743000
  H     -8.272740    1.233590   -6.876100
  H     -6.932950   -0.631220   -5.863410
  H     -5.400150   -0.148470   -3.905620
  H     -6.649030    1.012600   -2.133290
  H     -8.387180    2.349210   -0.662300
  H    -10.260560    3.678710    0.220860
  H     -5.198140    1.874320   -6.133790
  H     -5.555040   -0.673580   -7.793440
  H     -3.678130    1.756720   -7.976240
  H     -6.055850    2.274010   -9.934350
  H     -2.916830   -0.763020  -12.417300
  H     -5.497730   -0.193080  -14.268010
  H     -3.351760   -0.063790  -15.236610
  H     -2.076510    2.250070  -19.694290
  H     -4.847960    5.634310  -17.240500
  H     -3.509700    6.272250  -22.364250
  H     -2.343960    3.988800  -21.870160

----------------------------
CARTESIAN COORDINATES (A.U.)
----------------------------
  NO LB      ZA    FRAG     MASS         X           Y           Z
   0 C     6.0000    0    12.011  -37.335300   14.650820   -9.943833
   1 C     6.0000    0    12.011  -38.153571   15.869712   -7.816928
   2 C     6.0000    0    12.011  -40.565277   16.983120   -7.559245
   3 N     7.0000    0    14.007  -42.493950   17.916569   -7.226048
   4 C     6.0000    0    12.011  -36.736484   16.180478   -5.578698
   5 N     7.0000    0    14.007  -35.703692   16.494493   -3.696928
   6 C     6.0000    0    12.011  -38.770528   14.308798  -12.261394
   7 C     6.0000    0    12.011  -37.283390   12.939786  -14.024149
   8 C     6.0000    0    12.011  -38.138377   12.322243  -16.399157
   9 C     6.0000    0    12.011  -40.570228   13.095008  -17.075490
  10 C     6.0000    0    12.011  -42.044555   14.461413  -15.305138
  11 C     6.0000    0    12.011  -41.185126   15.081715  -12.904335
  12 S    16.0000    0    32.060  -44.984515   15.217454  -16.543343
  13 C     6.0000    0    12.011  -44.233009   13.734378  -19.356559
  14 C     6.0000    0    12.011  -41.892507   12.713964  -19.385434
  15 C     6.0000    0    12.011  -34.819772   12.341650  -12.901293
  16 O     8.0000    0    15.999  -33.147667   11.086211  -13.837992
  17 C     6.0000    0    12.011  -34.856849   13.486163  -10.319832
  18 C     6.0000    0    12.011  -32.926040   13.359343   -8.672615
  19 C     6.0000    0    12.011  -30.406336   12.336378   -9.354503
  20 C     6.0000    0    12.011  -28.707567   14.489400  -10.374445
  21 O     8.0000    0    15.999  -29.199349   15.948797  -12.013896
  22 O     8.0000    0    15.999  -26.501519   14.487604   -9.095762
  23 C     6.0000    0    12.011  -26.548385   12.659030   -7.251937
  24 C     6.0000    0    12.011  -28.831703   11.335484   -7.243150
  25 C     6.0000    0    12.011  -29.289451    9.427296   -5.518378
  26 C     6.0000    0    12.011  -27.334152    8.903936   -3.862903
  27 C     6.0000    0    12.011  -25.033977   10.200572   -3.899393
  28 C     6.0000    0    12.011  -24.592348   12.134895   -5.601262
  29 C     6.0000    0    12.011  -23.337173    8.965749   -2.017887
  30 C     6.0000    0    12.011  -25.124174    7.033202   -0.805420
  31 O     8.0000    0    15.999  -24.701196    5.641475    0.913324
  32 O     8.0000    0    15.999  -27.378485    7.065327   -2.044684
  33 C     6.0000    0    12.011  -21.165122    7.515611   -3.209095
  34 C     6.0000    0    12.011  -21.115611    7.046940   -5.736982
  35 C     6.0000    0    12.011  -19.089276    5.659201   -6.800161
  36 C     6.0000    0    12.011  -18.574458    4.981261   -9.268124
  37 C     6.0000    0    12.011  -20.017113    5.613980  -11.612103
  38 C     6.0000    0    12.011  -22.665659    4.406577  -11.595133
  39 N     7.0000    0    14.007  -23.546573    4.100838  -14.173872
  40 C     6.0000    0    12.011  -20.146162    8.495566  -12.000120
  41 N     7.0000    0    14.007  -21.210211    9.107913  -14.461280
  42 C     6.0000    0    12.011  -16.291367    3.483710   -9.199508
  43 C     6.0000    0    12.011  -15.027348    2.275759  -11.042312
  44 C     6.0000    0    12.011  -12.709466    0.766926  -10.505422
  45 C     6.0000    0    12.011  -11.906673    0.763393   -7.795555
  46 C     6.0000    0    12.011  -13.199529    1.977258   -5.970609
  47 C     6.0000    0    12.011  -15.421564    3.339959   -6.562660
  48 C     6.0000    0    12.011  -17.139438    4.675938   -5.120818
  49 C     6.0000    0    12.011  -17.286856    5.174165   -2.499333
  50 C     6.0000    0    12.011  -19.236921    6.568953   -1.579887
  51 C     6.0000    0    12.011  -10.592935    1.735978  -12.155815
  52 C     6.0000    0    12.011   -9.720373    0.532600  -14.163478
  53 C     6.0000    0    12.011   -7.630015    1.512537  -15.811887
  54 C     6.0000    0    12.011   -5.418657   -0.365927  -15.891652
  55 O     8.0000    0    15.999   -4.206360   -1.138182  -14.159132
  56 O     8.0000    0    15.999   -5.009040   -1.104923  -18.317531
  57 C     6.0000    0    12.011   -6.694241    0.081901  -19.880675
  58 C     6.0000    0    12.011   -8.327437    1.669649  -18.548078
  59 C     6.0000    0    12.011  -10.182525    3.045747  -19.762926
  60 C     6.0000    0    12.011  -10.278013    2.764291  -22.358333
  61 C     6.0000    0    12.011   -8.644174    1.173898  -23.690419
  62 C     6.0000    0    12.011   -6.802598   -0.219303  -22.475930
  63 C     6.0000    0    12.011   -9.355543    1.362455  -26.429048
  64 C     6.0000    0    12.011  -11.349827    3.462810  -26.362549
  65 O     8.0000    0    15.999  -12.371451    4.432693  -28.128139
  66 O     8.0000    0    15.999  -11.899530    4.033394  -23.936745
  67 C     6.0000    0    12.011   -7.278942    1.637372  -28.321458
  68 C     6.0000    0    12.011   -6.585091    3.636457  -29.703244
  69 C     6.0000    0    12.011   -7.366209    6.278615  -29.769158
  70 C     6.0000    0    12.011   -7.712861    7.805759  -27.720317
  71 C     6.0000    0    12.011   -8.316836   10.397897  -27.882512
  72 N     7.0000    0    14.007   -8.810281   12.507700  -27.927015
  73 C     6.0000    0    12.011   -7.248687    6.968592  -25.237916
  74 N     7.0000    0    14.007   -6.735626    6.342374  -23.224961
  75 C     6.0000    0    12.011   -7.142787    7.109093  -32.376564
  76 C     6.0000    0    12.011   -5.685827    5.305104  -33.731744
  77 C     6.0000    0    12.011   -5.069493    3.167294  -32.070372
  78 O     8.0000    0    15.999   -3.759176    1.353327  -32.495882
  79 C     6.0000    0    12.011   -5.048895    5.637261  -36.230585
  80 C     6.0000    0    12.011   -5.902881    7.822446  -37.442013
  81 C     6.0000    0    12.011   -7.384861    9.590398  -36.078273
  82 C     6.0000    0    12.011   -8.016502    9.270524  -33.549895
  83 S    16.0000    0    32.060   -8.239622   12.127922  -37.965316
  84 C     6.0000    0    12.011   -6.633543   10.842341  -40.504995
  85 C     6.0000    0    12.011   -5.508174    8.611104  -39.983260
  86 H     1.0000    0     1.008  -36.956391   11.280021  -17.692844
  87 H     1.0000    0     1.008  -42.381134   16.121707  -11.627145
  88 H     1.0000    0     1.008  -45.613283   13.717541  -20.841128
  89 H     1.0000    0     1.008  -41.102564   11.721045  -20.971614
  90 H     1.0000    0     1.008  -33.094339   14.119561   -6.784041
  91 H     1.0000    0     1.008  -30.612883   10.977457  -10.912923
  92 H     1.0000    0     1.008  -31.039167    8.389647   -5.473403
  93 H     1.0000    0     1.008  -22.828648   13.148204   -5.664605
  94 H     1.0000    0     1.008  -22.603052   10.247720   -0.574326
  95 H     1.0000    0     1.008  -22.608891    7.711878   -6.953096
  96 H     1.0000    0     1.008  -19.028314    4.807898  -13.240139
  97 H     1.0000    0     1.008  -23.939542    5.558648  -10.415169
  98 H     1.0000    0     1.008  -22.542543    2.527565  -10.734457
  99 H     1.0000    0     1.008  -23.572841    5.829238  -15.014422
 100 H     1.0000    0     1.008  -25.329549    3.396405  -14.189519
 101 H     1.0000    0     1.008  -18.231530    9.275929  -11.721215
 102 H     1.0000    0     1.008  -21.372784    9.340349  -10.570523
 103 H     1.0000    0     1.008  -20.019721    8.540806  -15.855010
 104 H     1.0000    0     1.008  -21.449903   11.002193  -14.632149
 105 H     1.0000    0     1.008  -15.633213    2.331147  -12.993946
 106 H     1.0000    0     1.008  -13.101377   -1.192833  -11.080239
 107 H     1.0000    0     1.008  -10.204805   -0.280568   -7.380552
 108 H     1.0000    0     1.008  -12.564846    1.913537   -4.031334
 109 H     1.0000    0     1.008  -15.849473    4.439364   -1.251566
 110 H     1.0000    0     1.008  -19.389648    6.951754    0.417365
 111 H     1.0000    0     1.008   -9.823061    3.541951  -11.591183
 112 H     1.0000    0     1.008  -10.497504   -1.272882  -14.727467
 113 H     1.0000    0     1.008   -6.950658    3.319720  -15.072909
 114 H     1.0000    0     1.008  -11.443898    4.297256  -18.773201
 115 H     1.0000    0     1.008   -5.512010   -1.441899  -23.465296
 116 H     1.0000    0     1.008  -10.389204   -0.364868  -26.962631
 117 H     1.0000    0     1.008   -6.333908   -0.120546  -28.793020
 118 H     1.0000    0     1.008   -3.924035    4.252016  -37.216815
 119 H     1.0000    0     1.008   -9.161317   10.647303  -32.579823
 120 H     1.0000    0     1.008   -6.632372   11.852835  -42.262308
 121 H     1.0000    0     1.008   -4.429442    7.537740  -41.328613

--------------------------------
INTERNAL COORDINATES (ANGSTROEM)
--------------------------------
 C      0   0   0     0.000000000000     0.00000000     0.00000000
 C      1   0   0     1.367592161538     0.00000000     0.00000000
 C      2   1   0     1.412259322540   124.21862121     0.00000000
 N      3   2   1     1.147488560335   176.54278171   176.45078211
 C      2   1   3     1.411463620148   125.26350101   179.53375465
 N      5   2   1     1.148000537413   176.09425422   184.98799455
 C      1   2   3     1.453836098121   125.98333802     0.32084411
 C      7   1   2     1.419249217086   109.16646117   180.31100130
 C      8   7   1     1.375150863615   122.65358713   179.94951288
 C      9   8   7     1.396916708075   117.88416489     0.19716333
 C     10   9   8     1.417448943066   119.14701260   359.80518346
 C      7   1   2     1.384084786240   130.75621549     0.32943256
 S     11  10   9     1.734871619717   111.19878781   180.08036900
 C     13  11  10     1.729240883914    90.81654543   359.96508091
 C     14  13  11     1.351219157058   113.69697306     0.00000000
 C      8   7   1     1.467260809331   109.67131284     0.06604201
 O     16   8   7     1.212436146978   126.94775850   176.02401125
 C      1   2   3     1.462724939488   126.48178171   179.43483426
 C     18   1   2     1.344717430764   127.88921901     0.68613491
 C     19  18   1     1.483616942273   122.91693098   185.95765239
 C     20  19  18     1.548383810397   109.75981826    89.61815705
 O     21  20  19     1.190294757445   127.19574529   307.88318495
 O     21  20  19     1.349316692663   109.08523634   127.81545070
 C     23  21  20     1.374391579463   109.93127888   357.31740870
 C     24  23  21     1.396606004928   111.78049770     0.36142780
 C     25  24  23     1.382515956472   121.33666125   180.69092200
 C     26  25  24     1.383745451339   115.66607901   358.84475664
 C     27  26  25     1.397408508132   122.97689040     0.08683739
 C     24  23  21     1.382512975599   125.18929406   179.69142848
 C     28  27  26     1.491490906509   107.46006906   185.02741187
 C     30  28  27     1.533535743731   101.55013664   354.57134657
 O     31  30  28     1.191517754882   128.00376838   183.96341401
 O     31  30  28     1.361407914256   109.29704603     5.32237518
 C     30  28  27     1.518995113225   113.56851141   109.84425015
 C     34  30  28     1.360748577107   120.97077966   348.66108609
 C     35  34  30     1.416199302994   119.97529917   180.91781403
 C     36  35  34     1.381495402634   131.26349722   181.40456668
 C     37  36  35     1.494475517765   128.73363927     2.28916262
 C     38  37  36     1.540342360581   111.53260970   295.01889249
 N     39  38  37     1.451082906591   109.45518038   204.61463641
 C     38  37  36     1.540146892313   110.80064590    60.23509324
 N     41  38  37     1.455427586175   110.90921143   171.41452912
 C     37  36  35     1.445329617285   106.46765411   182.25374642
 C     43  37  36     1.344236798113   131.18179781   176.98794084
 C     44  43  37     1.490871855862   121.72264830   181.62369207
 C     45  44  43     1.495604068362   114.65016003   358.84125829
 C     46  45  44     1.346584517734   122.86851224     1.40028995
 C     47  46  45     1.414489216855   120.44344331   359.91222545
 C     48  47  46     1.381430564524   133.28286814   177.86397521
 C     49  48  47     1.414214960853   132.33676858     0.29318809
 C     50  49  48     1.358818337932   119.62970416   180.24801897
 C     45  44  43     1.510016179682   108.55063126   235.22937613
 C     52  45  44     1.321905093303   124.07824587   254.18931890
 C     53  52  45     1.501140843659   123.91787862   179.47748743
 C     54  53  52     1.535989988802   110.72046636   121.23965340
 O     55  54  53     1.191256262145   127.67175752   301.34551734
 O     55  54  53     1.359356413749   109.48815250   120.60072572
 C     57  55  54     1.368910050697   109.55900442     0.33315117
 C     58  57  55     1.396475182343   111.96652582   359.65243808
 C     59  58  57     1.381026091643   121.47312254   180.15809773
 C     60  59  58     1.382406007438   115.57241453   359.18028428
 C     61  60  59     1.397392048138   122.91838236     0.87537861
 C     62  61  60     1.380675333053   121.56684200   359.63019421
 C     62  61  60     1.500633776243   106.97236725   179.37692329
 C     64  62  61     1.533069821176   101.46215161     6.05908700
 O     65  64  62     1.195249119682   127.20911700   174.34275728
 O     65  64  62     1.350414417170   109.40250764   351.87877976
 C     64  62  61     1.493842588394   117.99155743   135.04311895
 C     68  64  62     1.337374595953   130.20427342   251.96658628
 C     69  68  64     1.458408099882   133.91548378     6.33057780
 C     70  69  68     1.364629609271   125.93272454    45.35293082
 C     71  70  69     1.411055715059   123.90386933   175.84739696
 N     72  71  70     1.146830932832   177.68887849   178.57619498
 C     71  70  69     1.407911834562   122.10722101     2.26691493
 N     74  71  70     1.148127736143   176.13436921    94.13213838
 C     70  69  68     1.452895406490   106.83605852   212.74011004
 C     76  70  69     1.421273884197   108.67219721   345.61668626
 C     77  76  70     1.469384417537   109.61118112     3.76995448
 O     78  77  76     1.205370660461   128.97890138   184.44985408
 C     77  76  70     1.375883143403   122.14137075   183.14336606
 C     80  77  76     1.397256559906   117.86800402   359.40712115
 C     81  80  77     1.418126356183   119.42953462   359.70028417
 C     76  70  69     1.381128893659   130.55608684   167.97878609
 S     82  81  80     1.733455288953   111.23477610   180.39257827
 C     84  82  81     1.729541217664    90.84277879   359.76518294
 C     85  84  82     1.350914311457   113.67836722     0.16113350
 H      9   8   7     1.078917517190   120.70684151   179.96147946
 H     12   7   1     1.077136604707   122.62779230   359.89651513
 H     14  13  11     1.072728071880   118.53184984   180.01258621
 H     15  14  13     1.074876459041   124.10063042   180.03187101
 H     19  18   1     1.080994588238   121.20569848     1.94452321
 H     20  19  18     1.099619381650   109.37109766   333.58828807
 H     26  25  24     1.076748149801   122.52896704   179.70879379
 H     29  24  23     1.076904375931   121.95881348   359.31656170
 H     30  28  27     1.093010938875   114.11706343   236.37861861
 H     35  34  30     1.078141026304   120.87666118     0.63189241
 H     38  37  36     1.094513913342   108.77018032   178.29775527
 H     39  38  37     1.102717217921   109.28153020    79.83031451
 H     39  38  37     1.095614610116   108.95154633   322.49422530
 H     40  39  38     1.017147131393   108.38336207   301.54683761
 H     40  39  38     1.014513258366   110.32893524   183.11388220
 H     41  38  37     1.104012782082   108.16893764    46.91810729
 H     41  38  37     1.092466453352   109.82621462   289.94586803
 H     42  41  38     1.015325224399   110.13086164   293.24395173
 H     42  41  38     1.014440717884   110.37331294   174.39282528
 H     44  43  37     1.081777734010   122.15521502     1.29118462
 H     45  44  43     1.100467867818   107.27590499   119.39954210
 H     46  45  44     1.079111140615   115.64682689   181.50176780
 H     47  46  45     1.080308505197   120.55820323   179.42967051
 H     50  49  48     1.079693209481   119.59615118     0.16530056
 H     51  50  49     1.079168238645   120.63155849   179.38002458
 H     52  45  44     1.081006237956   114.82836462    73.50355513
 H     53  52  45     1.082135904820   120.94625956   359.42852402
 H     54  53  52     1.093941632310   109.65923941     0.95094142
 H     60  59  58     1.076312241220   122.59936204   180.79709962
 H     63  62  61     1.076612969409   122.83798516   180.61897680
 H     64  62  61     1.102012211048   108.46981569   255.36460642
 H     68  64  62     1.085230520304   114.18268833    79.78932699
 H     80  77  76     1.078906565093   120.88054259   179.34096978
 H     83  76  70     1.077647152504   122.27094835   355.92253625
 H     85  84  82     1.072709821993   118.54392013   180.10734565
 H     86  85  84     1.074861214530   124.09835943   179.97499690

---------------------------
INTERNAL COORDINATES (A.U.)
---------------------------
 C      0   0   0     0.000000000000     0.00000000     0.00000000
 C      1   0   0     2.584374648204     0.00000000     0.00000000
 C      2   1   0     2.668783349677   124.21862121     0.00000000
 N      3   2   1     2.168439120841   176.54278171   176.45078211
 C      2   1   3     2.667279690072   125.26350101   179.53375465
 N      5   2   1     2.169406617305   176.09425422   184.98799455
 C      1   2   3     2.747352069058   125.98333802     0.32084411
 C      7   1   2     2.681992336075   109.16646117   180.31100130
 C      8   7   1     2.598658525057   122.65358713   179.94951288
 C      9   8   7     2.639790010161   117.88416489     0.19716333
 C     10   9   8     2.678590311212   119.14701260   359.80518346
 C      7   1   2     2.615541192120   130.75621549     0.32943256
 S     11  10   9     3.278432238778   111.19878781   180.08036900
 C     13  11  10     3.267791690178    90.81654543   359.96508091
 C     14  13  11     2.553434153747   113.69697306     0.00000000
 C      8   7   1     2.772721096672   109.67131284     0.06604201
 O     16   8   7     2.291172272656   126.94775850   176.02401125
 C      1   2   3     2.764149544889   126.48178171   179.43483426
 C     18   1   2     2.541147671654   127.88921901     0.68613491
 C     19  18   1     2.803629708542   122.91693098   185.95765239
 C     20  19  18     2.926021351848   109.75981826    89.61815705
 O     21  20  19     2.249331110212   127.19574529   307.88318495
 O     21  20  19     2.549839017062   109.08523634   127.81545070
 C     23  21  20     2.597223685953   109.93127888   357.31740870
 C     24  23  21     2.639202866303   111.78049770     0.36142780
 C     25  24  23     2.612576533508   121.33666125   180.69092200
 C     26  25  24     2.614899942089   115.66607901   358.84475664
 C     27  26  25     2.640719377581   122.97689040     0.08683739
 C     24  23  21     2.612570900475   125.18929406   179.69142848
 C     28  27  26     2.818509344537   107.46006906   185.02741187
 C     30  28  27     2.897962572230   101.55013664   354.57134657
 O     31  30  28     2.251642240432   128.00376838   183.96341401
 O     31  30  28     2.572688114498   109.29704603     5.32237518
 C     30  28  27     2.870484762759   113.56851141   109.84425015
 C     34  30  28     2.571442147856   120.97077966   348.66108609
 C     35  34  30     2.676228833708   119.97529917   180.91781403
 C     36  35  34     2.610647966250   131.26349722   181.40456668
 C     37  36  35     2.824149442427   128.73363927     2.28916262
 C     38  37  36     2.910825213976   111.53260970   295.01889249
 N     39  38  37     2.742149291071   109.45518038   204.61463641
 C     38  37  36     2.910455832481   110.80064590    60.23509324
 N     41  38  37     2.750359545625   110.90921143   171.41452912
 C     37  36  35     2.731277149913   106.46765411   182.25374642
 C     43  37  36     2.540239407572   131.18179781   176.98794084
 C     44  43  37     2.817339508349   121.72264830   181.62369207
 C     45  44  43     2.826282093982   114.65016003   358.84125829
 C     46  45  44     2.544675954695   122.86851224     1.40028995
 C     47  46  45     2.672997239241   120.44344331   359.91222545
 C     48  47  46     2.610525439978   133.28286814   177.86397521
 C     49  48  47     2.672478970506   132.33676858     0.29318809
 C     50  49  48     2.567794524441   119.62970416   180.24801897
 C     45  44  43     2.853517037388   108.55063126   235.22937613
 C     52  45  44     2.498038601378   124.07824587   254.18931890
 C     53  52  45     2.836745082958   123.91787862   179.47748743
 C     54  53  52     2.902600423281   110.72046636   121.23965340
 O     55  54  53     2.251148090773   127.67175752   301.34551734
 O     55  54  53     2.568811340375   109.48815250   120.60072572
 C     57  55  54     2.586865097790   109.55900442     0.33315117
 C     58  57  55     2.638955647446   111.96652582   359.65243808
 C     59  58  57     2.609761097006   121.47312254   180.15809773
 C     60  59  58     2.612368759945   115.57241453   359.18028428
 C     61  60  59     2.640688272701   122.91838236     0.87537861
 C     62  61  60     2.609098259330   121.56684200   359.63019421
 C     62  61  60     2.835786864410   106.97236725   179.37692329
 C     64  62  61     2.897082106202   101.46215161     6.05908700
 O     65  64  62     2.258693498009   127.20911700   174.34275728
 O     65  64  62     2.551913415750   109.40250764   351.87877976
 C     64  62  61     2.822953379253   117.99155743   135.04311895
 C     68  64  62     2.527271724814   130.20427342   251.96658628
 C     69  68  64     2.755991900269   133.91548378     6.33057780
 C     70  69  68     2.578776235763   125.93272454    45.35293082
 C     71  70  69     2.666508861165   123.90386933   175.84739696
 N     72  71  70     2.167196384962   177.68887849   178.57619498
 C     71  70  69     2.660567788029   122.10722101     2.26691493
 N     74  71  70     2.169646988069   176.13436921    94.13213838
 C     70  69  68     2.745574419498   106.83605852   212.74011004
 C     76  70  69     2.685818402427   108.67219721   345.61668626
 C     77  76  70     2.776734134596   109.61118112     3.76995448
 O     78  77  76     2.277820438135   128.97890138   184.44985408
 C     77  76  70     2.600042333310   122.14137075   183.14336606
 C     80  77  76     2.640432237047   117.86800402   359.40712115
 C     81  80  77     2.679870436481   119.42953462   359.70028417
 C     76  70  69     2.609955364661   130.55608684   167.97878609
 S     82  81  80     3.275755761519   111.23477610   180.39257827
 C     84  82  81     3.268359238714    90.84277879   359.76518294
 C     85  84  82     2.552858079049   113.67836722     0.16113350
 H      9   8   7     2.038858628580   120.70684151   179.96147946
 H     12   7   1     2.035493191718   122.62779230   359.89651513
 H     14  13  11     2.027162272023   118.53184984   180.01258621
 H     15  14  13     2.031222135386   124.10063042   180.03187101
 H     19  18   1     2.042783724021   121.20569848     1.94452321
 H     20  19  18     2.077979482870   109.37109766   333.58828807
 H     26  25  24     2.034759118330   122.52896704   179.70879379
 H     29  24  23     2.035054342932   121.95881348   359.31656170
 H     30  28  27     2.065491335854   114.11706343   236.37861861
 H     35  34  30     2.037391273459   120.87666118     0.63189241
 H     38  37  36     2.068331545983   108.77018032   178.29775527
 H     39  38  37     2.083833545031   109.28153020    79.83031451
 H     39  38  37     2.070411561442   108.95154633   322.49422530
 H     40  39  38     1.922129516235   108.38336207   301.54683761
 H     40  39  38     1.917152217543   110.32893524   183.11388220
 H     41  38  37     2.086281806483   108.16893764    46.91810729
 H     41  38  37     2.064462407332   109.82621462   289.94586803
 H     42  41  38     1.918686610975   110.13086164   293.24395173
 H     42  41  38     1.917015135898   110.37331294   174.39282528
 H     44  43  37     2.044263655053   122.15521502     1.29118462
 H     45  44  43     2.079582889356   107.27590499   119.39954210
 H     46  45  44     2.039224523826   115.64682689   181.50176780
 H     47  46  45     2.041487214967   120.55820323   179.42967051
 H     50  49  48     2.040324474574   119.59615118     0.16530056
 H     51  50  49     2.039332423465   120.63155849   179.38002458
 H     52  45  44     2.042805738798   114.82836462    73.50355513
 H     53  52  45     2.044940499792   120.94625956   359.42852402
 H     54  53  52     2.067250091560   109.65923941     0.95094142
 H     60  59  58     2.033935370493   122.59936204   180.79709962
 H     63  62  61     2.034503664411   122.83798516   180.61897680
 H     64  62  61     2.082501275119   108.46981569   255.36460642
 H     68  64  62     2.050788475548   114.18268833    79.78932699
 H     80  77  76     2.038837932115   120.88054259   179.34096978
 H     83  76  70     2.036457987233   122.27094835   355.92253625
 H     85  84  82     2.027127784734   118.54392013   180.10734565
 H     86  85  84     2.031193327435   124.09835943   179.97499690

---------------------
BASIS SET INFORMATION
---------------------
There are 5 groups of distinct atoms

 Group   1 Type C   : 7s4p1d contracted to 3s2p1d pattern {511/31/1}
 Group   2 Type N   : 7s4p1d contracted to 3s2p1d pattern {511/31/1}
 Group   3 Type S   : 10s7p1d contracted to 4s3p1d pattern {5311/511/1}
 Group   4 Type O   : 7s4p1d contracted to 3s2p1d pattern {511/31/1}
 Group   5 Type H   : 4s1p contracted to 2s1p pattern {31/1}

Atom   0C    basis set group =>   1
Atom   1C    basis set group =>   1
Atom   2C    basis set group =>   1
Atom   3N    basis set group =>   2
Atom   4C    basis set group =>   1
Atom   5N    basis set group =>   2
Atom   6C    basis set group =>   1
Atom   7C    basis set group =>   1
Atom   8C    basis set group =>   1
Atom   9C    basis set group =>   1
Atom  10C    basis set group =>   1
Atom  11C    basis set group =>   1
Atom  12S    basis set group =>   3
Atom  13C    basis set group =>   1
Atom  14C    basis set group =>   1
Atom  15C    basis set group =>   1
Atom  16O    basis set group =>   4
Atom  17C    basis set group =>   1
Atom  18C    basis set group =>   1
Atom  19C    basis set group =>   1
Atom  20C    basis set group =>   1
Atom  21O    basis set group =>   4
Atom  22O    basis set group =>   4
Atom  23C    basis set group =>   1
Atom  24C    basis set group =>   1
Atom  25C    basis set group =>   1
Atom  26C    basis set group =>   1
Atom  27C    basis set group =>   1
Atom  28C    basis set group =>   1
Atom  29C    basis set group =>   1
Atom  30C    basis set group =>   1
Atom  31O    basis set group =>   4
Atom  32O    basis set group =>   4
Atom  33C    basis set group =>   1
Atom  34C    basis set group =>   1
Atom  35C    basis set group =>   1
Atom  36C    basis set group =>   1
Atom  37C    basis set group =>   1
Atom  38C    basis set group =>   1
Atom  39N    basis set group =>   2
Atom  40C    basis set group =>   1
Atom  41N    basis set group =>   2
Atom  42C    basis set group =>   1
Atom  43C    basis set group =>   1
Atom  44C    basis set group =>   1
Atom  45C    basis set group =>   1
Atom  46C    basis set group =>   1
Atom  47C    basis set group =>   1
Atom  48C    basis set group =>   1
Atom  49C    basis set group =>   1
Atom  50C    basis set group =>   1
Atom  51C    basis set group =>   1
Atom  52C    basis set group =>   1
Atom  53C    basis set group =>   1
Atom  54C    basis set group =>   1
Atom  55O    basis set group =>   4
Atom  56O    basis set group =>   4
Atom  57C    basis set group =>   1
Atom  58C    basis set group =>   1
Atom  59C    basis set group =>   1
Atom  60C    basis set group =>   1
Atom  61C    basis set group =>   1
Atom  62C    basis set group =>   1
Atom  63C    basis set group =>   1
Atom  64C    basis set group =>   1
Atom  65O    basis set group =>   4
Atom  66O    basis set group =>   4
Atom  67C    basis set group =>   1
Atom  68C    basis set group =>   1
Atom  69C    basis set group =>   1
Atom  70C    basis set group =>   1
Atom  71C    basis set group =>   1
Atom  72N    basis set group =>   2
Atom  73C    basis set group =>   1
Atom  74N    basis set group =>   2
Atom  75C    basis set group =>   1
Atom  76C    basis set group =>   1
Atom  77C    basis set group =>   1
Atom  78O    basis set group =>   4
Atom  79C    basis set group =>   1
Atom  80C    basis set group =>   1
Atom  81C    basis set group =>   1
Atom  82C    basis set group =>   1
Atom  83S    basis set group =>   3
Atom  84C    basis set group =>   1
Atom  85C    basis set group =>   1
Atom  86H    basis set group =>   5
Atom  87H    basis set group =>   5
Atom  88H    basis set group =>   5
Atom  89H    basis set group =>   5
Atom  90H    basis set group =>   5
Atom  91H    basis set group =>   5
Atom  92H    basis set group =>   5
Atom  93H    basis set group =>   5
Atom  94H    basis set group =>   5
Atom  95H    basis set group =>   5
Atom  96H    basis set group =>   5
Atom  97H    basis set group =>   5
Atom  98H    basis set group =>   5
Atom  99H    basis set group =>   5
Atom 100H    basis set group =>   5
Atom 101H    basis set group =>   5
Atom 102H    basis set group =>   5
Atom 103H    basis set group =>   5
Atom 104H    basis set group =>   5
Atom 105H    basis set group =>   5
Atom 106H    basis set group =>   5
Atom 107H    basis set group =>   5
Atom 108H    basis set group =>   5
Atom 109H    basis set group =>   5
Atom 110H    basis set group =>   5
Atom 111H    basis set group =>   5
Atom 112H    basis set group =>   5
Atom 113H    basis set group =>   5
Atom 114H    basis set group =>   5
Atom 115H    basis set group =>   5
Atom 116H    basis set group =>   5
Atom 117H    basis set group =>   5
Atom 118H    basis set group =>   5
Atom 119H    basis set group =>   5
Atom 120H    basis set group =>   5
Atom 121H    basis set group =>   5
---------------------------------
AUXILIARY/J BASIS SET INFORMATION
---------------------------------
There are 5 groups of distinct atoms

 Group   1 Type C   : 12s5p4d2f1g contracted to 6s4p3d1f1g pattern {711111/2111/211/2/1}
 Group   2 Type N   : 12s5p4d2f1g contracted to 6s4p3d1f1g pattern {711111/2111/211/2/1}
 Group   3 Type S   : 14s5p5d2f1g contracted to 8s4p3d1f1g pattern {71111111/2111/311/2/1}
 Group   4 Type O   : 12s5p4d2f1g contracted to 6s4p3d1f1g pattern {711111/2111/211/2/1}
 Group   5 Type H   : 5s2p1d contracted to 3s1p1d pattern {311/2/1}

Atom   0C    basis set group =>   1
Atom   1C    basis set group =>   1
Atom   2C    basis set group =>   1
Atom   3N    basis set group =>   2
Atom   4C    basis set group =>   1
Atom   5N    basis set group =>   2
Atom   6C    basis set group =>   1
Atom   7C    basis set group =>   1
Atom   8C    basis set group =>   1
Atom   9C    basis set group =>   1
Atom  10C    basis set group =>   1
Atom  11C    basis set group =>   1
Atom  12S    basis set group =>   3
Atom  13C    basis set group =>   1
Atom  14C    basis set group =>   1
Atom  15C    basis set group =>   1
Atom  16O    basis set group =>   4
Atom  17C    basis set group =>   1
Atom  18C    basis set group =>   1
Atom  19C    basis set group =>   1
Atom  20C    basis set group =>   1
Atom  21O    basis set group =>   4
Atom  22O    basis set group =>   4
Atom  23C    basis set group =>   1
Atom  24C    basis set group =>   1
Atom  25C    basis set group =>   1
Atom  26C    basis set group =>   1
Atom  27C    basis set group =>   1
Atom  28C    basis set group =>   1
Atom  29C    basis set group =>   1
Atom  30C    basis set group =>   1
Atom  31O    basis set group =>   4
Atom  32O    basis set group =>   4
Atom  33C    basis set group =>   1
Atom  34C    basis set group =>   1
Atom  35C    basis set group =>   1
Atom  36C    basis set group =>   1
Atom  37C    basis set group =>   1
Atom  38C    basis set group =>   1
Atom  39N    basis set group =>   2
Atom  40C    basis set group =>   1
Atom  41N    basis set group =>   2
Atom  42C    basis set group =>   1
Atom  43C    basis set group =>   1
Atom  44C    basis set group =>   1
Atom  45C    basis set group =>   1
Atom  46C    basis set group =>   1
Atom  47C    basis set group =>   1
Atom  48C    basis set group =>   1
Atom  49C    basis set group =>   1
Atom  50C    basis set group =>   1
Atom  51C    basis set group =>   1
Atom  52C    basis set group =>   1
Atom  53C    basis set group =>   1
Atom  54C    basis set group =>   1
Atom  55O    basis set group =>   4
Atom  56O    basis set group =>   4
Atom  57C    basis set group =>   1
Atom  58C    basis set group =>   1
Atom  59C    basis set group =>   1
Atom  60C    basis set group =>   1
Atom  61C    basis set group =>   1
Atom  62C    basis set group =>   1
Atom  63C    basis set group =>   1
Atom  64C    basis set group =>   1
Atom  65O    basis set group =>   4
Atom  66O    basis set group =>   4
Atom  67C    basis set group =>   1
Atom  68C    basis set group =>   1
Atom  69C    basis set group =>   1
Atom  70C    basis set group =>   1
Atom  71C    basis set group =>   1
Atom  72N    basis set group =>   2
Atom  73C    basis set group =>   1
Atom  74N    basis set group =>   2
Atom  75C    basis set group =>   1
Atom  76C    basis set group =>   1
Atom  77C    basis set group =>   1
Atom  78O    basis set group =>   4
Atom  79C    basis set group =>   1
Atom  80C    basis set group =>   1
Atom  81C    basis set group =>   1
Atom  82C    basis set group =>   1
Atom  83S    basis set group =>   3
Atom  84C    basis set group =>   1
Atom  85C    basis set group =>   1
Atom  86H    basis set group =>   5
Atom  87H    basis set group =>   5
Atom  88H    basis set group =>   5
Atom  89H    basis set group =>   5
Atom  90H    basis set group =>   5
Atom  91H    basis set group =>   5
Atom  92H    basis set group =>   5
Atom  93H    basis set group =>   5
Atom  94H    basis set group =>   5
Atom  95H    basis set group =>   5
Atom  96H    basis set group =>   5
Atom  97H    basis set group =>   5
Atom  98H    basis set group =>   5
Atom  99H    basis set group =>   5
Atom 100H    basis set group =>   5
Atom 101H    basis set group =>   5
Atom 102H    basis set group =>   5
Atom 103H    basis set group =>   5
Atom 104H    basis set group =>   5
Atom 105H    basis set group =>   5
Atom 106H    basis set group =>   5
Atom 107H    basis set group =>   5
Atom 108H    basis set group =>   5
Atom 109H    basis set group =>   5
Atom 110H    basis set group =>   5
Atom 111H    basis set group =>   5
Atom 112H    basis set group =>   5
Atom 113H    basis set group =>   5
Atom 114H    basis set group =>   5
Atom 115H    basis set group =>   5
Atom 116H    basis set group =>   5
Atom 117H    basis set group =>   5
Atom 118H    basis set group =>   5
Atom 119H    basis set group =>   5
Atom 120H    basis set group =>   5
Atom 121H    basis set group =>   5


           ************************************************************
           *        Program running with 6 parallel MPI-processes     *
           *              working on a common directory               *
           ************************************************************
------------------------------------------------------------------------------
                           ORCA GTO INTEGRAL CALCULATION
                           -- RI-GTO INTEGRALS CHOSEN --
------------------------------------------------------------------------------

                         BASIS SET STATISTICS AND STARTUP INFO

Gaussian basis set:
 # of primitive gaussian shells          ... 1224
 # of primitive gaussian functions       ... 2340
 # of contracted shells                  ...  628
 # of contracted basis functions         ... 1392
 Highest angular momentum                ...    2
 Maximum contraction depth               ...    5
Auxiliary gaussian basis set:
 # of primitive gaussian shells          ... 2358
 # of primitive gaussian functions       ... 6610
 # of contracted shells                  ... 1474
 # of contracted aux-basis functions     ... 4614
 Highest angular momentum                ...    4
 Maximum contraction depth               ...    7
Ratio of auxiliary to basis functions    ...  3.31
Integral package used                  ... LIBINT
 One Electron integrals                  ... done
 Ordering auxiliary basis shells         ... done
 Integral threshhold             Thresh  ...  2.500e-11
 Primitive cut-off               TCut    ...  2.500e-12
 Pre-screening matrix                    ... done
 Shell pair data                         ... 
 Ordering of the shell pairs             ... done (   0.011 sec) 57377 of 197506 pairs
 Determination of significant pairs      ... done (   0.000 sec)
 Creation of shell pair data             ... done (   0.007 sec)
 Storage of shell pair data              ... done (   0.033 sec)
 Shell pair data done in (   0.052 sec)
 Computing two index integrals           ... done
 Cholesky decomposition of the V-matrix  ... done


Timings:
 Total evaluation time                   ...   3.074 sec (  0.051 min)
 One electron matrix time                ...   0.819 sec (  0.014 min) = 26.6%
 Schwartz matrix evaluation time         ...   0.856 sec (  0.014 min) = 27.8%
 Two index repulsion integral time       ...   0.495 sec (  0.008 min) = 16.1%
 Cholesky decomposition of V             ...   0.835 sec (  0.014 min) = 27.2%
 Three index repulsion integral time     ...   0.000 sec (  0.000 min) =  0.0%



           ************************************************************
           *        Program running with 6 parallel MPI-processes     *
           *              working on a common directory               *
           ************************************************************
-------------------------------------------------------------------------------
                                 ORCA SCF
-------------------------------------------------------------------------------

------------
SCF SETTINGS
------------
Hamiltonian:
 Density Functional     Method          .... DFT(GTOs)
 Exchange Functional    Exchange        .... WB88
 Correlation Functional Correlation     .... LYP
 LDA part of GGA corr.  LDAOpt          .... VWN-5
 Gradients option       PostSCFGGA      .... off
 Hybrid DFT is turned on
   Fraction HF Exchange ScalHFX         ....  0.190000
   Scaling of DF-GGA-X  ScalDFX         ....  0.350000
   Scaling of DF-GGA-C  ScalDFC         ....  0.810000
   Scaling of DF-LDA-C  ScalLDAC        ....  1.000000
   Perturbative correction              ....  0.000000
   Density functional embedding theory  .... OFF
 Long-range corrected/Screened/Range-Separated Hybrid DFT is turned on
   Amount of maximum screened exact exchange              ....  0.460000
   Range separation parameter mu (erf(mu*r12)/r12)        ....  0.330000
 RI-approximation to the Coulomb term is turned on
   Number of auxiliary basis functions  .... 4614
   RIJ-COSX (HFX calculated with COS-X)).... on


General Settings:
 Integral files         IntName         .... xtbopt
 Hartree-Fock type      HFTyp           .... RHF
 Total Charge           Charge          ....    0
 Multiplicity           Mult            ....    1
 Number of Electrons    NEL             ....  598
 Basis Dimension        Dim             .... 1392
 Nuclear Repulsion      ENuc            ....  12768.7570945948 Eh

Convergence Acceleration:
 DIIS                   CNVDIIS         .... on
   Start iteration      DIISMaxIt       ....    12
   Startup error        DIISStart       ....  0.200000
   # of expansion vecs  DIISMaxEq       ....     5
   Bias factor          DIISBfac        ....   1.050
   Max. coefficient     DIISMaxC        ....  10.000
 Newton-Raphson         CNVNR           .... off
 SOSCF                  CNVSOSCF        .... on
   Start iteration      SOSCFMaxIt      ....   150
   Startup grad/error   SOSCFStart      ....  0.003300
 Level Shifting         CNVShift        .... on
   Level shift para.    LevelShift      ....    0.2500
   Turn off err/grad.   ShiftErr        ....    0.0010
 Zerner damping         CNVZerner       .... off
 Static damping         CNVDamp         .... on
   Fraction old density DampFac         ....    0.7000
   Max. Damping (<1)    DampMax         ....    0.9800
   Min. Damping (>=0)   DampMin         ....    0.0000
   Turn off err/grad.   DampErr         ....    0.1000
 Fernandez-Rico         CNVRico         .... off

SCF Procedure:
 Maximum # iterations   MaxIter         ....   125
 SCF integral mode      SCFMode         .... Direct
   Integral package                     .... LIBINT
 Reset frequency        DirectResetFreq ....    20
 Integral Threshold     Thresh          ....  2.500e-11 Eh
 Primitive CutOff       TCut            ....  2.500e-12 Eh

Convergence Tolerance:
 Convergence Check Mode ConvCheckMode   .... Total+1el-Energy
 Convergence forced     ConvForced      .... 1
 Energy Change          TolE            ....  1.000e-08 Eh
 1-El. energy change                    ....  1.000e-05 Eh
 Orbital Gradient       TolG            ....  1.000e-05
 Orbital Rotation angle TolX            ....  1.000e-05
 DIIS Error             TolErr          ....  5.000e-07


Diagonalization of the overlap matrix:
Smallest eigenvalue                        ... 1.911e-04
Time for diagonalization                   ...    0.280 sec
Threshold for overlap eigenvalues          ... 1.000e-08
Number of eigenvalues below threshold      ... 0
Time for construction of square roots      ...    0.194 sec
Total time needed                          ...    0.478 sec

-------------------
DFT GRID GENERATION
-------------------

General Integration Accuracy     IntAcc      ...  4.670
Radial Grid Type                 RadialGrid  ... Gauss-Chebyshev
Angular Grid (max. acc.)         AngularGrid ... Lebedev-302
Angular grid pruning method      GridPruning ... 3 (G Style)
Weight generation scheme         WeightScheme... Becke
Basis function cutoff            BFCut       ...    1.0000e-11
Integration weight cutoff        WCut        ...    1.0000e-14
Grids for H and He will be reduced by one unit

# of grid points (after initial pruning)     ... 657684 (   0.0 sec)
# of grid points (after weights+screening)   ... 558230 (  11.5 sec)
nearest neighbour list constructed           ...    0.0 sec
Grid point re-assignment to atoms done       ...    0.1 sec
Grid point division into batches done        ...    1.9 sec
Reduced shell lists constructed in    3.0 sec

Total number of grid points                  ...   558230
Total number of batches                      ...     8784
Average number of points per batch           ...       63
Average number of grid points per atom       ...     4576
Average number of shells per batch           ...    87.02 (13.86%)
Average number of basis functions per batch  ...   185.51 (13.33%)
Average number of large shells per batch     ...    55.10 (63.32%)
Average number of large basis fcns per batch ...   119.58 (64.46%)
Maximum spatial batch extension              ...  17.31, 24.46, 20.54 au
Average spatial batch extension              ...   0.33,  0.37,  0.33 au

Time for grid setup =   15.106 sec

------------------------------
INITIAL GUESS: MODEL POTENTIAL
------------------------------
Loading Hartree-Fock densities                     ... done
Calculating cut-offs                               ... done
Setting up the integral package                    ... done
Initializing the effective Hamiltonian             ... done
Starting the Coulomb interaction                   ... done (   1.9 sec)
Reading the grid                                   ... done
Mapping shells                                     ... done
Starting the XC term evaluation                    ... done (   1.8 sec)
  promolecular density results
     # of electrons  =    597.981686049
     EX              =   -529.329307509
     EC              =    -20.507527337
     EX+EC           =   -549.836834846
Transforming the Hamiltonian                       ... done (   0.1 sec)
Diagonalizing the Hamiltonian                      ... done (   0.3 sec)
Back transforming the eigenvectors                 ... done (   0.1 sec)
Now organizing SCF variables                       ... done
                      ------------------
                      INITIAL GUESS DONE (  19.4 sec)
                      ------------------
--------------------
COSX GRID GENERATION
--------------------

General Integration Accuracy     IntAcc      ...  3.340
Radial Grid Type                 RadialGrid  ... Gauss-Chebyshev
Angular Grid (max. acc.)         AngularGrid ... Lebedev-50
Angular grid pruning method      GridPruning ... 3 (G Style)
Weight generation scheme         WeightScheme... Becke
Basis function cutoff            BFCut       ...    1.0000e-11
Integration weight cutoff        WCut        ...    1.0000e-14
Grids for H and He will be reduced by one unit

# of grid points (after initial pruning)     ...  61568 (   0.0 sec)
# of grid points (after weights+screening)   ...  54712 (   1.1 sec)
nearest neighbour list constructed           ...    0.0 sec
Grid point re-assignment to atoms done       ...    0.0 sec
Grid point division into batches done        ...    0.0 sec
Reduced shell lists constructed in    0.2 sec

Total number of grid points                  ...    54712
Total number of batches                      ...      918
Average number of points per batch           ...       59
Average number of grid points per atom       ...      448
Average number of shells per batch           ...   103.08 (16.41%)
Average number of basis functions per batch  ...   221.53 (15.91%)
Average number of large shells per batch     ...    65.21 (63.26%)
Average number of large basis fcns per batch ...   143.40 (64.73%)
Maximum spatial batch extension              ...  15.69, 21.78, 15.29 au
Average spatial batch extension              ...   0.67,  0.88,  0.68 au

Overlap Fitting                  UseSFitting ... on
Constructing numerical overlap ... done (      0.1 sec)
Inverting numerical overlap    ... done (      0.1 sec)
Obtaining analytic overlap     ... done (      0.0 sec)
Final contraction and storage  ... done (      0.1 sec)


General Integration Accuracy     IntAcc      ...  3.670
Radial Grid Type                 RadialGrid  ... Gauss-Chebyshev
Angular Grid (max. acc.)         AngularGrid ... Lebedev-50
Angular grid pruning method      GridPruning ... 3 (G Style)
Weight generation scheme         WeightScheme... Becke
Basis function cutoff            BFCut       ...    1.0000e-11
Integration weight cutoff        WCut        ...    1.0000e-14
Grids for H and He will be reduced by one unit

# of grid points (after initial pruning)     ...  76980 (   0.0 sec)
# of grid points (after weights+screening)   ...  68151 (   1.3 sec)
nearest neighbour list constructed           ...    0.0 sec
Grid point re-assignment to atoms done       ...    0.0 sec
Grid point division into batches done        ...    0.0 sec
Reduced shell lists constructed in    0.2 sec

Total number of grid points                  ...    68151
Total number of batches                      ...     1130
Average number of points per batch           ...       60
Average number of grid points per atom       ...      559
Average number of shells per batch           ...   101.13 (16.10%)
Average number of basis functions per batch  ...   217.17 (15.60%)
Average number of large shells per batch     ...    64.31 (63.59%)
Average number of large basis fcns per batch ...   141.36 (65.09%)
Maximum spatial batch extension              ...  17.20, 19.59, 16.73 au
Average spatial batch extension              ...   0.64,  0.84,  0.62 au

Overlap Fitting                  UseSFitting ... on
Constructing numerical overlap ... done (      0.1 sec)
Inverting numerical overlap    ... done (      0.1 sec)
Obtaining analytic overlap     ... done (      0.0 sec)
Final contraction and storage  ... done (      0.1 sec)


General Integration Accuracy     IntAcc      ...  4.010
Radial Grid Type                 RadialGrid  ... Gauss-Chebyshev
Angular Grid (max. acc.)         AngularGrid ... Lebedev-110
Angular grid pruning method      GridPruning ... 3 (G Style)
Weight generation scheme         WeightScheme... Becke
Basis function cutoff            BFCut       ...    1.0000e-11
Integration weight cutoff        WCut        ...    1.0000e-14
Grids for H and He will be reduced by one unit

# of grid points (after initial pruning)     ... 150164 (   0.0 sec)
# of grid points (after weights+screening)   ... 131610 (   2.7 sec)
nearest neighbour list constructed           ...    0.0 sec
Grid point re-assignment to atoms done       ...    0.0 sec
Grid point division into batches done        ...    0.1 sec
Reduced shell lists constructed in    0.4 sec

Total number of grid points                  ...   131610
Total number of batches                      ...     2116
Average number of points per batch           ...       62
Average number of grid points per atom       ...     1079
Average number of shells per batch           ...    95.49 (15.21%)
Average number of basis functions per batch  ...   204.83 (14.71%)
Average number of large shells per batch     ...    60.77 (63.64%)
Average number of large basis fcns per batch ...   132.92 (64.89%)
Maximum spatial batch extension              ...  19.09, 31.75, 18.44 au
Average spatial batch extension              ...   0.55,  0.66,  0.53 au

Overlap Fitting                  UseSFitting ... on
Constructing numerical overlap ... done (      0.2 sec)
Inverting numerical overlap    ... done (      0.1 sec)
Obtaining analytic overlap     ... done (      0.0 sec)
Final contraction and storage  ... done (      0.1 sec)

Time for X-Grid setup             =    7.233 sec
--------------
SCF ITERATIONS
--------------
ITER       Energy         Delta-E        Max-DP      RMS-DP      [F,P]     Damp
               ***  Starting incremental Fock matrix formation  ***
  0  -4483.4598510869   0.000000000000 0.17112096  0.00096662  0.2367135 0.7000
  1  -4484.1997753683  -0.739924281417 0.12195554  0.00067039  0.1178737 0.7000
                               ***Turning on DIIS***
  2  -4484.5069496427  -0.307174274349 0.15134589  0.00116755  0.0463004 0.0000
  3  -4485.0383075483  -0.531357905649 0.09774824  0.00046951  0.0595887 0.0000
  4  -4485.1199332630  -0.081625714627 0.01605717  0.00013368  0.0236555 0.0000
  5  -4485.1269316680  -0.006998405008 0.00541931  0.00004759  0.0050972 0.0000
                      *** Initiating the SOSCF procedure ***
                           *** Shutting down DIIS ***
                      *** Re-Reading the Fockian *** 
                      *** Removing any level shift *** 
ITER      Energy       Delta-E        Grad      Rot      Max-DP    RMS-DP
  6  -4485.12762836  -0.0006966940  0.001390  0.001390  0.003650  0.000024
               *** Restarting incremental Fock matrix formation ***
  7  -4485.12775765  -0.0001292876  0.000974  0.004650  0.002008  0.000021
  8  -4485.12787388  -0.0001162306  0.000564  0.005592  0.003216  0.000027
  9  -4485.12788375  -0.0000098679  0.000772  0.001970  0.001253  0.000010
 10  -4485.12791696  -0.0000332152  0.000134  0.000465  0.001087  0.000005
 11  -4485.12791676   0.0000002020  0.000088  0.000427  0.000599  0.000003
 12  -4485.12791956  -0.0000027992  0.000048  0.000394  0.000096  0.000001
 13  -4485.12791960  -0.0000000361  0.000022  0.000160  0.000056  0.000001
 14  -4485.12791972  -0.0000001281  0.000011  0.000116  0.000044  0.000000
 15  -4485.12791973  -0.0000000032  0.000010  0.000047  0.000013  0.000000
 16  -4485.12791971   0.0000000208  0.000005  0.000009  0.000010  0.000000
 17  -4485.12791970   0.0000000095  0.000005  0.000003  0.000005  0.000000
                  ***Gradient check signals convergence***
              ***Rediagonalizing the Fockian in SOSCF/NRSCF***

               *****************************************************
               *                     SUCCESS                       *
               *           SCF CONVERGED AFTER  18 CYCLES          *
               *****************************************************

Setting up the final grid:

General Integration Accuracy     IntAcc      ...  5.010
Radial Grid Type                 RadialGrid  ... Gauss-Chebyshev
Angular Grid (max. acc.)         AngularGrid ... Lebedev-434
Angular grid pruning method      GridPruning ... 3 (G Style)
Weight generation scheme         WeightScheme... Becke
Basis function cutoff            BFCut       ...    1.0000e-11
Integration weight cutoff        WCut        ...    1.0000e-14
Grids for H and He will be reduced by one unit

# of grid points (after initial pruning)     ... 1163816 (   0.1 sec)
# of grid points (after weights+screening)   ... 984495 (  19.8 sec)
nearest neighbour list constructed           ...    0.0 sec
Grid point re-assignment to atoms done       ...    0.1 sec
Grid point division into batches done        ...    6.1 sec
Reduced shell lists constructed in    8.0 sec

Total number of grid points                  ...   984495
Total number of batches                      ...    15444
Average number of points per batch           ...       63
Average number of grid points per atom       ...     8070
Average number of shells per batch           ...    85.68 (13.64%)
Average number of basis functions per batch  ...   182.04 (13.08%)
Average number of large shells per batch     ...    53.97 (63.00%)
Average number of large basis fcns per batch ...   116.87 (64.20%)
Maximum spatial batch extension              ...  21.86, 21.12, 15.25 au
Average spatial batch extension              ...   0.27,  0.30,  0.27 au

Final grid set up in   28.8 sec
Final integration                            ... done (   3.8 sec)
Change in XC energy                          ...    -0.000098920
Integrated number of electrons               ...   598.000108721
Previous integrated no of electrons          ...   597.999598191
Old exchange energy                            =   -149.022180416 Eh
New exchange energy                            =   -149.021635482 Eh
Exchange energy change after final integration =      0.000544934 Eh
Total energy after final integration           =  -4485.127473646 Eh
Final COS-X integration done in                =    76.320 sec

----------------
TOTAL SCF ENERGY
----------------

Total Energy       :        -4485.12747365 Eh         -122046.52328 eV

Components:
Nuclear Repulsion  :        12768.75709459 Eh          347455.54484 eV
Electronic Energy  :       -17253.88456824 Eh         -469502.06813 eV
One Electron Energy:       -31551.98067068 Eh         -858573.04306 eV
Two Electron Energy:        14298.09610244 Eh          389070.97493 eV

Virial components:
Potential Energy   :        -8935.09836410 Eh         -243136.38730 eV
Kinetic Energy     :         4449.97089045 Eh          121089.86402 eV
Virial Ratio       :            2.00790041


DFT components:
N(Alpha)           :      299.000054360534 electrons
N(Beta)            :      299.000054360534 electrons
N(Total)           :      598.000108721068 electrons
E(XC)              :     -410.423818813266 Eh       
DFET-embed. en.    :        0.000000000000 Eh       

---------------
SCF CONVERGENCE
---------------

  Last Energy change         ...    3.7127e-08  Tolerance :   1.0000e-08
  Last MAX-Density change    ...    7.9936e-15  Tolerance :   1.0000e-07
  Last RMS-Density change    ...    3.1566e-17  Tolerance :   5.0000e-09
  Last Orbital Gradient      ...    4.0569e-07  Tolerance :   1.0000e-05
  Last Orbital Rotation      ...    2.9697e-06  Tolerance :   1.0000e-05

             **** THE GBW FILE WAS UPDATED (xtbopt.gbw) ****
             **** DENSITY FILE WAS UPDATED (xtbopt.scfp) ****
             **** ENERGY FILE WAS UPDATED (xtbopt.en.tmp) ****
             **** THE GBW FILE WAS UPDATED (xtbopt.gbw) ****
             **** DENSITY FILE WAS UPDATED (xtbopt.scfp) ****
----------------
ORBITAL ENERGIES
----------------

  NO   OCC          E(Eh)            E(eV) 
   0   2.0000     -88.973683     -2421.0970 
   1   2.0000     -88.972551     -2421.0662 
   2   2.0000     -19.293709      -525.0085 
   3   2.0000     -19.290139      -524.9114 
   4   2.0000     -19.282882      -524.7139 
   5   2.0000     -19.280114      -524.6386 
   6   2.0000     -19.229707      -523.2669 
   7   2.0000     -19.226948      -523.1918 
   8   2.0000     -19.226790      -523.1876 
   9   2.0000     -19.220772      -523.0238 
  10   2.0000     -19.213909      -522.8371 
  11   2.0000     -19.211143      -522.7618 
  12   2.0000     -14.425546      -392.5391 
  13   2.0000     -14.424870      -392.5207 
  14   2.0000     -14.423734      -392.4898 
  15   2.0000     -14.422623      -392.4595 
  16   2.0000     -14.386566      -391.4784 
  17   2.0000     -14.352020      -390.5383 
  18   2.0000     -10.424545      -283.6663 
  19   2.0000     -10.419132      -283.5190 
  20   2.0000     -10.409805      -283.2652 
  21   2.0000     -10.407354      -283.1985 
  22   2.0000     -10.379297      -282.4350 
  23   2.0000     -10.377798      -282.3942 
  24   2.0000     -10.353566      -281.7349 
  25   2.0000     -10.352859      -281.7156 
  26   2.0000     -10.350879      -281.6617 
  27   2.0000     -10.350128      -281.6413 
  28   2.0000     -10.349307      -281.6190 
  29   2.0000     -10.348238      -281.5899 
  30   2.0000     -10.347166      -281.5607 
  31   2.0000     -10.346845      -281.5520 
  32   2.0000     -10.329805      -281.0883 
  33   2.0000     -10.328954      -281.0651 
  34   2.0000     -10.328710      -281.0585 
  35   2.0000     -10.328008      -281.0394 
  36   2.0000     -10.327673      -281.0303 
  37   2.0000     -10.326684      -281.0034 
  38   2.0000     -10.326525      -280.9990 
  39   2.0000     -10.325764      -280.9783 
  40   2.0000     -10.324190      -280.9355 
  41   2.0000     -10.321393      -280.8594 
  42   2.0000     -10.319755      -280.8148 
  43   2.0000     -10.315478      -280.6984 
  44   2.0000     -10.315106      -280.6883 
  45   2.0000     -10.313156      -280.6352 
  46   2.0000     -10.311596      -280.5928 
  47   2.0000     -10.311510      -280.5904 
  48   2.0000     -10.310947      -280.5751 
  49   2.0000     -10.310275      -280.5568 
  50   2.0000     -10.309879      -280.5461 
  51   2.0000     -10.308610      -280.5115 
  52   2.0000     -10.307588      -280.4837 
  53   2.0000     -10.307309      -280.4761 
  54   2.0000     -10.307243      -280.4743 
  55   2.0000     -10.305441      -280.4253 
  56   2.0000     -10.304133      -280.3897 
  57   2.0000     -10.301890      -280.3287 
  58   2.0000     -10.299997      -280.2772 
  59   2.0000     -10.299313      -280.2586 
  60   2.0000     -10.299289      -280.2579 
  61   2.0000     -10.299045      -280.2513 
  62   2.0000     -10.298860      -280.2462 
  63   2.0000     -10.298730      -280.2427 
  64   2.0000     -10.297458      -280.2081 
  65   2.0000     -10.297389      -280.2062 
  66   2.0000     -10.296804      -280.1903 
  67   2.0000     -10.295726      -280.1610 
  68   2.0000     -10.294682      -280.1325 
  69   2.0000     -10.293598      -280.1030 
  70   2.0000     -10.288994      -279.9777 
  71   2.0000     -10.287975      -279.9500 
  72   2.0000     -10.284478      -279.8549 
  73   2.0000     -10.283242      -279.8212 
  74   2.0000     -10.270824      -279.4833 
  75   2.0000     -10.270103      -279.4637 
  76   2.0000     -10.268980      -279.4332 
  77   2.0000     -10.267438      -279.3912 
  78   2.0000     -10.267363      -279.3892 
  79   2.0000     -10.265654      -279.3426 
  80   2.0000     -10.263881      -279.2944 
  81   2.0000     -10.260797      -279.2105 
  82   2.0000     -10.260466      -279.2015 
  83   2.0000     -10.260177      -279.1936 
  84   2.0000     -10.259210      -279.1673 
  85   2.0000     -10.255678      -279.0712 
  86   2.0000      -8.069945      -219.5944 
  87   2.0000      -8.068870      -219.5651 
  88   2.0000      -6.039433      -164.3413 
[...]
   8   3.582     346.1   0.006999   0.006340  -0.963617   0.300065     0.98 ( 109-> 113)    0.01 ( 110-> 122)    0.00 ( 106-> 113)
   9   3.614     343.1   0.148903   0.140109  -32.728010  -29.338486     0.57 ( 104-> 112)    0.22 ( 106-> 112)    0.10 ( 102-> 112)
  10   3.706     334.6   0.000004   0.000005   0.016399   0.024285     0.97 ( 109-> 111)    0.03 ( 109-> 114)    0.00 ( 109-> 117)
  11   3.757     330.0   0.031510   0.027881  13.400850  10.225489     0.41 ( 110-> 118)    0.40 ( 110-> 117)    0.05 ( 110-> 122)
  12   3.779     328.1   0.061711   0.060139  28.643934  35.861383     0.43 ( 101-> 111)    0.21 ( 105-> 114)    0.07 (  94-> 114)
  13   3.818     324.8   0.027222   0.024722  -25.994296  -29.435707     0.22 (  94-> 114)    0.11 (  99-> 111)    0.11 ( 101-> 111)
  14   3.827     324.0   0.087499   0.086579  20.653555  21.449366     0.41 ( 102-> 112)    0.12 ( 104-> 115)    0.07 (  93-> 115)
  15   3.931     315.4   0.030271   0.027202  18.978972  13.273262     0.30 ( 110-> 122)    0.20 ( 106-> 113)    0.09 ( 104-> 113)
  16   3.997     310.2   0.071204   0.069979   1.518038  -4.257367     0.23 (  93-> 115)    0.16 (  98-> 112)    0.13 ( 102-> 112)
  17   4.020     308.4   0.020931   0.019432  -31.621098  -31.205630     0.25 (  99-> 111)    0.19 (  94-> 111)    0.15 (  94-> 114)
  18   4.160     298.0   0.155892   0.142493  -63.300286  -74.096063     0.16 (  98-> 112)    0.15 (  93-> 115)    0.13 (  93-> 112)
  19   4.164     297.8   0.012243   0.011213  -4.831840  -5.740127     0.92 ( 109-> 112)    0.01 (  93-> 115)    0.01 (  98-> 112)
  20   4.218     294.0   0.679309   0.620196  48.641619  38.717323     0.53 ( 105-> 114)    0.31 ( 101-> 111)    0.06 ( 106-> 114)
  21   4.282     289.6   0.074122   0.064062  20.190559  18.726190     0.32 ( 110-> 116)    0.25 ( 110-> 121)    0.15 ( 110-> 122)
  22   4.315     287.4   0.508680   0.449550  27.656695  44.684074     0.38 ( 108-> 115)    0.18 ( 102-> 112)    0.12 ( 104-> 115)
  23   4.319     287.1   0.001552   0.001316   2.211831   1.725128     0.92 ( 103-> 113)    0.05 ( 110-> 116)    0.01 ( 107-> 113)
  24   4.333     286.1   0.000025   0.000022  -0.005095  -0.008103     0.96 ( 109-> 114)    0.03 ( 109-> 111)    0.00 ( 110-> 116)
  25   4.346     285.3   0.033024   0.028234  -3.827327  -3.529806     0.49 ( 110-> 116)    0.19 ( 110-> 121)    0.13 ( 110-> 122)
  26   4.357     284.6   0.297106   0.262467  51.335460  57.940893     0.37 (  96-> 111)    0.23 (  99-> 111)    0.09 (  94-> 111)
  27   4.422     280.4   0.003803   0.002947  -0.102912  -0.038811     0.94 ( 107-> 113)    0.01 ( 103-> 113)    0.01 ( 105-> 113)
  28   4.439     279.3   0.008003   0.006123  -6.771013  -6.652424     0.74 ( 107-> 114)    0.09 (  94-> 114)    0.05 ( 107-> 111)
  29   4.457     278.2   0.000052   0.000038  -0.022011  -0.013101     0.96 ( 103-> 111)    0.02 ( 103-> 114)    0.01 ( 106-> 111)
  30   4.488     276.3   0.056811   0.050668  -5.421567  -6.917429     0.46 ( 108-> 115)    0.35 ( 104-> 115)    0.07 ( 106-> 115)
  31   4.498     275.6   0.057959   0.052806   6.171725   7.338025     0.43 ( 100-> 113)    0.26 ( 110-> 121)    0.11 ( 110-> 129)
  32   4.502     275.4   0.002001   0.001446  -3.754120  -2.420147     0.54 ( 106-> 111)    0.22 ( 104-> 111)    0.06 ( 105-> 111)
  33   4.620     268.4   0.073192   0.060847  124.281909  100.907873     0.31 (  93-> 112)    0.21 (  98-> 112)    0.11 (  95-> 112)
  34   4.643     267.0   0.571587   0.476494  -100.213691  -87.163984     0.22 ( 108-> 113)    0.18 ( 106-> 113)    0.13 ( 100-> 113)
  35   4.723     262.5   0.050051   0.043589  -111.862262  -113.068104     0.22 (  95-> 112)    0.21 (  93-> 112)    0.18 (  97-> 112)
  36   4.727     262.3   0.088996   0.075400  62.977364  62.130519     0.56 ( 108-> 113)    0.17 ( 104-> 113)    0.04 ( 100-> 113)
  37   4.764     260.3   0.002703   0.002180   0.704131   0.517010     0.87 ( 108-> 111)    0.04 ( 104-> 111)    0.03 (  94-> 111)
  38   4.788     259.0   0.029452   0.023423   4.669577   3.371023     0.33 (  94-> 111)    0.17 (  96-> 111)    0.08 (  99-> 111)
  39   4.796     258.5   0.018610   0.014630   5.551014   5.052145     0.42 ( 110-> 117)    0.40 ( 110-> 118)    0.06 (  94-> 111)
  40   4.805     258.0   0.004495   0.004112  -4.462891  -3.992564     0.52 ( 106-> 112)    0.22 ( 104-> 112)    0.11 (  95-> 112)
  41   4.839     256.2   0.000077   0.000074  -0.025916  -0.019397     0.97 ( 103-> 112)    0.02 ( 107-> 112)    0.00 (  95-> 112)
  42   4.858     255.2   0.459974   0.378630  18.070265  15.053539     0.30 ( 101-> 114)    0.14 (  99-> 114)    0.12 (  96-> 114)
  43   4.877     254.2   0.017548   0.016447  -5.488220  -4.818926     0.35 ( 110-> 120)    0.13 ( 110-> 130)    0.11 ( 110-> 129)
  44   4.893     253.4   0.053210   0.047378  -13.173609  -10.995214     0.43 ( 110-> 120)    0.13 ( 110-> 122)    0.08 ( 110-> 130)
  45   4.919     252.1   0.000011   0.000010   0.006817   0.004066     0.97 ( 107-> 112)    0.02 ( 103-> 112)    0.00 ( 105-> 112)
  46   4.956     250.2   0.135847   0.106016  34.373840  31.252231     0.51 ( 101-> 114)    0.15 (  96-> 114)    0.12 (  99-> 114)
  47   4.986     248.7   0.389153   0.326505  98.035987  72.312892     0.73 ( 102-> 115)    0.07 (  93-> 115)    0.02 (  87-> 112)

-----------------------------------------------------------------------------
         ABSORPTION SPECTRUM VIA TRANSITION ELECTRIC DIPOLE MOMENTS
-----------------------------------------------------------------------------
State   Energy  Wavelength   fosc         T2         TX        TY        TZ  
        (cm-1)    (nm)                  (au**2)     (au)      (au)      (au) 
-----------------------------------------------------------------------------
   0   15330.3    652.3   0.073430062   1.57688  -0.96117   0.54501  -0.59665
   1   19108.3    523.3   0.000013789   0.00024  -0.01177   0.00350  -0.00931
   2   21342.6    468.5   0.000002586   0.00004  -0.00273   0.00388   0.00416
   3   25243.9    396.1   0.000005978   0.00008   0.00011  -0.00235  -0.00851
   4   27382.8    365.2   0.106675968   1.28252   0.09498   0.36203  -1.06885
   5   28014.9    357.0   0.013488803   0.15851  -0.33263   0.20461   0.07749
   6   28157.2    355.1   0.202775456   2.37084   0.77595   0.19848   1.31505
   7   28561.0    350.1   0.000055249   0.00064  -0.02109   0.01283  -0.00523
   8   28893.1    346.1   0.006999426   0.07975   0.17228   0.07646   0.21030
   9   29145.0    343.1   0.148902935   1.68196  -0.08012   0.29247  -1.26095
  10   29887.8    334.6   0.000003602   0.00004   0.00217  -0.00512  -0.00297
  11   30306.2    330.0   0.031509837   0.34229   0.51216  -0.27873  -0.04783
  12   30476.1    328.1   0.061711331   0.66662  -0.05747   0.33172   0.74383
  13   30792.4    324.8   0.027222093   0.29104  -0.06319  -0.15718  -0.51219
  14   30866.1    324.0   0.087498845   0.93325   0.12752  -0.27150  -0.91830
  15   31702.9    315.4   0.030270855   0.31434  -0.26171   0.05008  -0.49330
  16   32237.7    310.2   0.071204437   0.72714  -0.12581  -0.11075   0.83609
  17   32422.7    308.4   0.020931123   0.21253   0.27248  -0.23951  -0.28446
  18   33553.7    298.0   0.155891782   1.52953   0.23172  -0.44362  -1.13094
  19   33584.4    297.8   0.012243283   0.12002  -0.06478   0.12392   0.31696
  20   34018.3    294.0   0.679309017   6.57401  -0.49993  -0.76392  -2.39594
  21   34535.9    289.6   0.074122044   0.70656  -0.71409   0.34138   0.28301
  22   34799.7    287.4   0.508680217   4.81221   0.47546   0.15056  -2.13623
  23   34834.3    287.1   0.001551769   0.01467  -0.04762   0.11007   0.01679
  24   34949.2    286.1   0.000025347   0.00024   0.00601  -0.00233   0.01404
  25   35050.2    285.3   0.033023614   0.31018  -0.43663   0.13534  -0.31814
  26   35137.9    284.6   0.297105590   2.78363  -1.50043   0.27786  -0.67464
  27   35662.9    280.4   0.003802900   0.03511   0.10429  -0.15444  -0.01946
  28   35804.6    279.3   0.008002947   0.07358  -0.23328   0.05704  -0.12614
  29   35951.6    278.2   0.000051775   0.00047   0.02001  -0.00172   0.00842
  30   36198.5    276.3   0.056810967   0.51667   0.12388   0.00944  -0.70798
  31   36282.1    275.6   0.057958631   0.52590  -0.54656   0.34638   0.32740
  32   36314.9    275.4   0.002001236   0.01814  -0.06508  -0.05554  -0.10403
  33   37264.0    268.4   0.073191835   0.64662   0.53490   0.16187  -0.57818
  34   37450.6    267.0   0.571587266   5.02457  -1.39293   1.04068   1.41468
  35   38089.9    262.5   0.050050897   0.43259   0.06986   0.47971   0.44451
  36   38128.0    262.3   0.088996011   0.76843   0.66102  -0.35213  -0.45550
  37   38421.0    260.3   0.002703494   0.02316   0.09463  -0.02714   0.11608
  38   38616.3    259.0   0.029451582   0.25108  -0.35713   0.12632  -0.32800
  39   38683.4    258.5   0.018609822   0.15838  -0.35791   0.17269   0.02139
  40   38755.8    258.0   0.004495224   0.03818  -0.05828   0.01688  -0.18575
  41   39025.7    256.2   0.000077102   0.00065  -0.00614   0.00728  -0.02366
  42   39183.7    255.2   0.459973573   3.86459  -1.86341   0.39597  -0.48527
  43   39333.8    254.2   0.017548490   0.14688  -0.10774   0.19723   0.31044
  44   39467.0    253.4   0.053209851   0.44385  -0.32310   0.33207   0.47873
  45   39671.2    252.1   0.000010781   0.00009   0.00834  -0.00172  -0.00413
  46   39971.2    250.2   0.135846867   1.11886   0.67952  -0.61363  -0.52969
  47   40212.3    248.7   0.389152894   3.18593  -0.47536   1.65300  -0.47701

-----------------------------------------------------------------------------
         ABSORPTION SPECTRUM VIA TRANSITION VELOCITY DIPOLE MOMENTS
-----------------------------------------------------------------------------
State   Energy  Wavelength   fosc         P2         PX        PY        PZ  
        (cm-1)    (nm)                  (au**2)     (au)      (au)      (au) 
-----------------------------------------------------------------------------
   0   15330.3    652.3   0.078308758   0.00820  -0.07236   0.04254  -0.03404
   1   19108.3    523.3   0.000022572   0.00000  -0.00118   0.00044  -0.00116
   2   21342.6    468.5   0.000003544   0.00000  -0.00025   0.00040   0.00054
   3   25243.9    396.1   0.000005481   0.00000   0.00002  -0.00018  -0.00096
   4   27382.8    365.2   0.104528225   0.01956   0.01321   0.04496  -0.13178
   5   28014.9    357.0   0.013367726   0.00256  -0.04074   0.02745   0.01209
   6   28157.2    355.1   0.193595915   0.03726   0.09523   0.02593   0.16587
   7   28561.0    350.1   0.000044382   0.00001  -0.00245   0.00154  -0.00054
   8   28893.1    346.1   0.006339636   0.00125   0.02336   0.00899   0.02501
   9   29145.0    343.1   0.140108753   0.02791  -0.00921   0.03667  -0.16272
  10   29887.8    334.6   0.000005208   0.00000   0.00045  -0.00087  -0.00031
  11   30306.2    330.0   0.027881315   0.00578   0.06732  -0.03403  -0.00924
  12   30476.1    328.1   0.060138579   0.01253  -0.01064   0.04740   0.10083
  13   30792.4    324.8   0.024721728   0.00520  -0.00893  -0.01966  -0.06882
  14   30866.1    324.0   0.086579492   0.01826   0.02036  -0.04085  -0.12720
  15   31702.9    315.4   0.027202132   0.00589  -0.03694   0.00957  -0.06662
  16   32237.7    310.2   0.069978973   0.01542  -0.01505  -0.02065   0.12151
  17   32422.7    308.4   0.019431689   0.00431   0.03832  -0.03377  -0.04120
  18   33553.7    298.0   0.142493350   0.03268   0.03564  -0.06268  -0.16576
  19   33584.4    297.8   0.011213199   0.00257  -0.01000   0.01749   0.04656
  20   34018.3    294.0   0.620195641   0.14419  -0.07269  -0.11349  -0.35501
  21   34535.9    289.6   0.064062495   0.01512  -0.10417   0.05004   0.04203
  22   34799.7    287.4   0.449549886   0.10692   0.07161   0.01934  -0.31846
  23   34834.3    287.1   0.001316462   0.00031  -0.00786   0.01558   0.00298
  24   34949.2    286.1   0.000021627   0.00001   0.00083  -0.00039   0.00208
  25   35050.2    285.3   0.028234358   0.00676  -0.06543   0.02126  -0.04506
  26   35137.9    284.6   0.262467435   0.06303  -0.22731   0.04378  -0.09719
  27   35662.9    280.4   0.002947036   0.00072   0.01364  -0.02286  -0.00309
  28   35804.6    279.3   0.006123296   0.00150  -0.03266   0.00939  -0.01854
  29   35951.6    278.2   0.000037570   0.00001   0.00286  -0.00037   0.00095
  30   36198.5    276.3   0.050668361   0.01254   0.01751   0.00268  -0.11055
  31   36282.1    275.6   0.052806271   0.01309  -0.08707   0.05503   0.04986
  32   36314.9    275.4   0.001446020   0.00036  -0.00966  -0.00845  -0.01393
  33   37264.0    268.4   0.060847290   0.01550   0.08154   0.02807  -0.08978
  34   37450.6    267.0   0.476493995   0.12196  -0.22035   0.16281   0.21657
  35   38089.9    262.5   0.043588992   0.01135   0.00869   0.07527   0.07487
  36   38128.0    262.3   0.075399915   0.01965   0.10701  -0.05722  -0.07016
  37   38421.0    260.3   0.002179694   0.00057   0.01410  -0.00433   0.01883
  38   38616.3    259.0   0.023422570   0.00618  -0.05411   0.02034  -0.05330
  39   38683.4    258.5   0.014630261   0.00387  -0.05579   0.02727   0.00342
  40   38755.8    258.0   0.004111570   0.00109  -0.00962   0.00432  -0.03127
  41   39025.7    256.2   0.000073838   0.00002  -0.00105   0.00139  -0.00408
  42   39183.7    255.2   0.378629970   0.10140  -0.30170   0.06400  -0.07925
  43   39333.8    254.2   0.016446655   0.00442  -0.01884   0.03450   0.05363
  44   39467.0    253.4   0.047377995   0.01278  -0.05514   0.05684   0.08067
  45   39671.2    252.1   0.000009625   0.00000   0.00148  -0.00023  -0.00061
  46   39971.2    250.2   0.106016309   0.02896   0.10731  -0.09894  -0.08750
  47   40212.3    248.7   0.326504852   0.08973  -0.08103   0.27794  -0.07693

-------------------------------------------------------------------
                             CD SPECTRUM
-------------------------------------------------------------------
State   Energy Wavelength       R         MX        MY        MZ   
        (cm-1)   (nm)       (1e40*cgs)   (au)      (au)      (au)  
-------------------------------------------------------------------
   0   15330.3    652.3     10.21846   0.40883   0.95883   0.28991
   1   19108.3    523.3      0.00219   0.00443   0.01706   0.00180
   2   21342.6    468.5     -0.00039  -0.01003  -0.01014   0.00327
   3   25243.9    396.1      0.00537   0.00729   0.02008  -0.00276
   4   27382.8    365.2     14.66098  -0.53685   1.21098   0.42065
   5   28014.9    357.0      2.11470  -0.38647  -0.78339   0.29377
   6   28157.2    355.1      7.31528  -2.48337  -4.76922   2.16154
   7   28561.0    350.1     -0.00789  -0.00485  -0.00089   0.01098
   8   28893.1    346.1     -0.96362  -0.23689  -0.28312   0.31643
   9   29145.0    343.1    -32.72801  -0.65653   0.60663   0.07231
  10   29887.8    334.6      0.01640   0.01533   0.03045  -0.01784
  11   30306.2    330.0     13.40085   0.07805   0.37653  -0.16981
  12   30476.1    328.1     28.64393  -1.82661  -4.04715   1.50041
  13   30792.4    324.8    -25.99430   1.46388   2.29434  -1.09995
  14   30866.1    324.0     20.65355   1.64274   1.57250  -0.14139
  15   31702.9    315.4     18.97897   0.49644   1.26018   0.02778
  16   32237.7    310.2      1.51804  -0.34084  -1.02936  -0.19534
  17   32422.7    308.4    -31.62110   1.14010   1.56200  -0.69468
  18   33553.7    298.0    -63.30029   2.91894   1.62207  -0.27565
  19   33584.4    297.8     -4.83184  -0.81198  -0.45423   0.07629
  20   34018.3    294.0     48.64162   6.43165  12.79656  -5.33594
  21   34535.9    289.6     20.19056  -0.22593  -0.98239   0.31227
  22   34799.7    287.4     27.65669   1.47201   4.39688   0.69243
  23   34834.3    287.1      2.21183  -0.02445  -0.13104   0.23084
  24   34949.2    286.1     -0.00509  -0.00715  -0.03938  -0.00193
  25   35050.2    285.3     -3.82733   0.38879   0.71073  -0.28226
  26   35137.9    284.6     51.33546   1.17710   1.37000  -1.73085
  27   35662.9    280.4     -0.10291   0.07957   0.11400  -0.50069
  28   35804.6    279.3     -6.77101  -0.00874   0.39435  -0.03325
  29   35951.6    278.2     -0.02201  -0.00750  -0.01788   0.02527
  30   36198.5    276.3     -5.42157   0.14537   1.25286   0.00966
  31   36282.1    275.6      6.17172  -0.50415  -1.35348   0.51035
  32   36314.9    275.4     -3.75412   0.17516   0.26400  -0.40362
  33   37264.0    268.4    124.28191  -1.52416   2.33703   0.15612
  34   37450.6    267.0    -100.21369  -2.09223  -4.81992   1.78614
  35   38089.9    262.5    -111.86226  -1.76808   0.38402   0.93103
  36   38128.0    262.3     62.97736   0.35057   2.16662  -0.57966
  37   38421.0    260.3      0.70413  -0.09550  -0.27801  -0.01287
  38   38616.3    259.0      4.66958   0.21224   0.69548   0.09715
  39   38683.4    258.5      5.55101  -0.09063  -0.34732   0.18669
  40   38755.8    258.0     -4.46289  -0.15093  -0.11329  -0.06487
  41   39025.7    256.2     -0.02592  -0.04986  -0.02843  -0.00046
  42   39183.7    255.2     18.07026   0.14463  -1.11508  -1.30727
  43   39333.8    254.2     -5.48822  -0.51953  -1.10873   0.59911
  44   39467.0    253.4    -13.17361  -0.68212  -1.70836   0.84137
  45   39671.2    252.1      0.00682   0.00364   0.01329   0.00883
  46   39971.2    250.2     34.37384   2.42767   4.91863  -2.30843
  47   40212.3    248.7     98.03599  -9.00068  -2.50573   1.15821

sTD-DFT done

Total run time:        5.367 sec

           *** ORCA-CIS/TD-DFT FINISHED WITHOUT ERROR ***

-------------------------   --------------------
FINAL SINGLE POINT ENERGY     -4485.127473646263
-------------------------   --------------------


                            ***************************************
                            *     ORCA property calculations      *
                            ***************************************

                                    ---------------------
                                    Active property flags
                                    ---------------------
   (+) Dipole Moment


------------------------------------------------------------------------------
                       ORCA ELECTRIC PROPERTIES CALCULATION
------------------------------------------------------------------------------

Dipole Moment Calculation                       ... on
Quadrupole Moment Calculation                   ... off
Polarizability Calculation                      ... off
GBWName                                         ... xtbopt.gbw
Electron density file                           ... xtbopt.scfp
The origin for moment calculation is the CENTER OF MASS  = (-20.014547,  7.913759 -16.505532)

-------------
DIPOLE MOMENT
-------------
                                X             Y             Z
Electronic contribution:    -12.75831      24.77011     -25.94042
Nuclear contribution   :     12.41218     -25.46235      20.92003
                        -----------------------------------------
Total Dipole Moment    :     -0.34613      -0.69224      -5.02039
                        -----------------------------------------
Magnitude (a.u.)       :      5.07970
Magnitude (Debye)      :     12.91156



--------------------
Rotational spectrum 
--------------------
 
Rotational constants in cm-1:     0.000690     0.000218     0.000173 
Rotational constants in MHz :    20.689274     6.550065     5.194459 

 Dipole components along the rotational axes: 
x,y,z [a.u.] :    -2.697382    -3.906034     1.808406 
x,y,z [Debye]:    -6.856201    -9.928350     4.596604 

 

Timings for individual modules:

Sum of individual times         ...      806.917 sec (=  13.449 min)
GTO integral calculation        ...        4.696 sec (=   0.078 min)   0.6 %
SCF iterations                  ...      795.501 sec (=  13.258 min)  98.6 %
CIS module                      ...        6.720 sec (=   0.112 min)   0.8 %
                             ****ORCA TERMINATED NORMALLY****
TOTAL RUN TIME: 0 days 0 hours 13 minutes 28 seconds 372 msec
