
                                 *****************
                                 * O   R   C   A *
                                 *****************

           --- An Ab Initio, DFT and Semiempirical electronic structure package ---

                  #######################################################
                  #                        -***-                        #
                  #          Department of theory and spectroscopy      #
                  #               Directorship: Frank Neese             #
                  #        Max Planck Institute fuer Kohlenforschung    #
                  #                Kaiser Wilhelm Platz 1               #
                  #                 D-45470 Muelheim/Ruhr               #
                  #                      Germany                        #
                  #                                                     #
                  #                  All rights reserved                #
                  #                        -***-                        #
                  #######################################################


                         Program Version 4.2.0 -  RELEASE  -


 With contributions from (in alphabetic order):
   Daniel Aravena         : Magnetic Suceptibility
   Michael Atanasov       : Ab Initio Ligand Field Theory (pilot matlab implementation)
   Alexander A. Auer      : GIAO ZORA, VPT2
   Ute Becker             : Parallelization
   Giovanni Bistoni       : ED, misc. LED, open-shell LED, HFLED
   Martin Brehm           : Molecular dynamics
   Dmytro Bykov           : SCF Hessian
   Vijay G. Chilkuri      : MRCI spin determinant printing, contributions to CSF-ICE
   Dipayan Datta          : RHF DLPNO-CCSD density
   Achintya Kumar Dutta   : EOM-CC, STEOM-CC
   Dmitry Ganyushin       : Spin-Orbit,Spin-Spin,Magnetic field MRCI
   Miquel Garcia          : C-PCM Hessian, Gaussian charge scheme
   Yang Guo               : DLPNO-NEVPT2, CIM, IAO-localization
   Andreas Hansen         : Spin unrestricted coupled pair/coupled cluster methods
   Benjamin Helmich-Paris : CASSCF linear response (MC-RPA)
   Lee Huntington         : MR-EOM, pCC
   Robert Izsak           : Overlap fitted RIJCOSX, COSX-SCS-MP3, EOM
   Christian Kollmar      : KDIIS, OOCD, Brueckner-CCSD(T), CCSD density
   Simone Kossmann        : Meta GGA functionals, TD-DFT gradient, OOMP2, MP2 Hessian
   Martin Krupicka        : AUTO-CI
   Lucas Lang             : DCDCAS
   Dagmar Lenk            : GEPOL surface, SMD
   Dimitrios Liakos       : Extrapolation schemes; Compound Job, initial MDCI parallelization
   Dimitrios Manganas     : Further ROCIS development; embedding schemes
   Dimitrios Pantazis     : SARC Basis sets
   Taras Petrenko         : DFT Hessian,TD-DFT gradient, ASA, ECA, R-Raman, ABS, FL, XAS/XES, NRVS
   Peter Pinski           : DLPNO-MP2, DLPNO-MP2 Gradient
   Christoph Reimann      : Effective Core Potentials
   Marius Retegan         : Local ZFS, SOC
   Christoph Riplinger    : Optimizer, TS searches, QM/MM, DLPNO-CCSD(T), (RO)-DLPNO pert. Triples
   Tobias Risthaus        : Range-separated hybrids, TD-DFT gradient, RPA, STAB
   Michael Roemelt        : Original ROCIS implementation
   Masaaki Saitow         : Open-shell DLPNO-CCSD energy and density
   Barbara Sandhoefer     : DKH picture change effects
   Avijit Sen             : IP-ROCIS
   Kantharuban Sivalingam : CASSCF convergence, NEVPT2, FIC-MRCI
   Bernardo de Souza      : ESD, SOC TD-DFT
   Georgi Stoychev        : AutoAux, RI-MP2 NMR
   Willem Van den Heuvel  : Paramagnetic NMR
   Boris Wezisla          : Elementary symmetry handling
   Frank Wennmohs         : Technical directorship


 We gratefully acknowledge several colleagues who have allowed us to
 interface, adapt or use parts of their codes:
   Stefan Grimme, W. Hujo, H. Kruse,             : VdW corrections, initial TS optimization,
                  C. Bannwarth                     DFT functionals, gCP, sTDA/sTD-DF
   Ed Valeev, F. Pavosevic, A. Kumar             : LibInt (2-el integral package), F12 methods
   Garnet Chan, S. Sharma, J. Yang, R. Olivares  : DMRG
   Ulf Ekstrom                                   : XCFun DFT Library
   Mihaly Kallay                                 : mrcc  (arbitrary order and MRCC methods)
   Andreas Klamt, Michael Diedenhofen            : otool_cosmo (COSMO solvation model)
   Jiri Pittner, Ondrej Demel                    : Mk-CCSD
   Frank Weinhold                                : gennbo (NPA and NBO analysis)
   Christopher J. Cramer and Donald G. Truhlar   : smd solvation model
   Lars Goerigk                                  : TD-DFT with DH, B97 family of functionals
   V. Asgeirsson, H. Jonsson                     : NEB implementation
   FAccTs GmbH                                   : IRC, NEB, NEB-TS, Multilevel, MM, QM/MM, CI optimization
   S Lehtola, MJT Oliveira, MAL Marques          : LibXC Library


 Your calculation uses the libint2 library for the computation of 2-el integrals
 For citations please refer to: http://libint.valeyev.net

 Your ORCA version has been built with support for libXC version: 4.2.3
 For citations please refer to: https://tddft.org/programs/libxc/

 This ORCA versions uses:
   CBLAS   interface :  Fast vector & matrix operations
   LAPACKE interface :  Fast linear algebra routines
   SCALAPACK package :  Parallel linear algebra routines


XCFun DFT library Copyright 2009-2010 Ulf Ekstrom and contributors.
See http://admol.org/xcfun for more information. This is free soft-
ware; see the source code for copying conditions. There is ABSOLUTELY
NO WARRANTY; not even for MERCHANTABILITY or FITNESS FOR A PARTICULAR
PURPOSE. For details see the documentation. Scientific users of this 
library should cite U. Ekstrom, L. Visscher, R. Bast, A. J. Thorvald-
sen and K. Ruud; J.Chem.Theor.Comp. 2010, DOI: 10.1021/ct100117s
XCFun Version 0.99 
----- Orbital basis set information -----
Your calculation utilizes the basis: def2-SVP
   F. Weigend and R. Ahlrichs, Phys. Chem. Chem. Phys. 7, 3297 (2005).

----- AuxJ basis set information -----
Your calculation utilizes the auxiliary basis: def2/J
   F. Weigend, Phys. Chem. Chem. Phys. 8, 1057 (2006).

================================================================================
                                        WARNINGS
                       Please study these warnings very carefully!
================================================================================

INFO   : Checking CIS options ...

WARNING: CIS/ROCIS methods need fully converged wavefunctions
  ===> : Setting SCFConvForced true
         You can overwrite this default with %scf ConvForced false 


INFO   : the flag for use of LIBINT has been found!

================================================================================
                                       INPUT FILE
================================================================================
NAME = xtbopt.inp
|  1> # ORCA input file
|  2> # SCF done       -210.406561877707          0.000776021508
|  3> ! CAM-B3LYP def2-SVP def2/J RIJCOSX Grid4 TightSCF
|  4> %maxcore 5000
|  5> %tddft
|  6>     Mode sTDDFT
|  7>     Ethresh 5.0
|  8>     maxcore 5000
|  9> end
| 10> 
| 11> %pal
| 12>   nprocs 6
| 13>   end
| 14> * xyz 0 1
| 15>    C       -1.09384         4.79472        -8.01023
| 16>    C       -1.68805         3.88241        -7.17733
| 17>    C       -2.58647         2.88916        -7.61765
| 18>    N       -3.32732         2.06866        -7.92628
| 19>    C       -1.39403         3.77240        -5.80395
| 20>    N       -1.14954         3.62298        -4.69239
| 21>    C       -1.16574         4.77449        -9.46758
| 22>    C       -0.06578         5.51885        -9.98629
| 23>    C        0.14816         5.64075       -11.32886
| 24>    C       -0.74915         5.02252       -12.22875
| 25>    C       -1.86003         4.29167       -11.71663
| 26>    C       -2.05351         4.17661       -10.32065
| 27>    C       -2.75116         3.68565       -12.62526
| 28>    C       -2.55466         3.79223       -13.97519
| 29>    C       -1.46021         4.51108       -14.47854
| 30>    C       -0.57672         5.11284       -13.62397
| 31>    C        0.70632         6.08899        -8.86892
| 32>    O        1.73185         6.72840        -8.91552
| 33>    C       -0.08032         5.76181        -7.64316
| 34>    C        0.18922         6.43049        -6.49157
| 35>    C       -0.62082         6.58139        -5.33831
| 36>    S        0.10211         7.03510        -3.82242
| 37>    C       -1.42645         7.07335        -3.01666
| 38>    C       -2.44435         6.78432        -3.91418
| 39>    C       -1.99081         6.50064        -5.20834
| 40>    C       -3.90848         6.83708        -3.62076
| 41>    F       -4.39505         5.69570        -3.09624
| 42>    F       -4.24483         7.81810        -2.76745
| 43>    F       -4.62383         7.05516        -4.73747
| 44>    C       -1.46179         7.36987        -1.60275
| 45>    C       -0.51693         8.21731        -1.07534
| 46>    C       -0.51123         8.49303         0.30594
| 47>    C        0.33863         9.27796         1.06867
| 48>    C        1.49163        10.07860         0.56530
| 49>    C        1.47742        11.53069         1.07786
| 50>    N        2.03753        12.40272         0.06281
| 51>    C        2.82103         9.37236         0.89410
| 52>    N        2.93701         8.17544         0.08386
| 53>    C       -0.09339         9.13771         2.44171
| 54>    C        0.40590         9.62226         3.59270
| 55>    C       -0.21257         9.31938         4.91172
| 56>    C       -1.43967         8.45669         4.84491
| 57>    C       -1.91820         7.96748         3.68736
| 58>    C       -1.27468         8.25814         2.46058
| 59>    C       -1.51121         7.86414         1.16039
| 60>    C       -2.46252         6.98979         0.58424
| 61>    C       -2.43471         6.74885        -0.75016
| 62>    C       -0.54960        10.57400         5.67413
| 63>    C       -0.77309        11.75427         5.09004
| 64>    C       -1.10088        12.96457         5.78826
| 65>    S       -1.29702        14.43659         4.89556
| 66>    C       -1.55364        15.36621         6.34010
| 67>    C       -1.52884        14.53477         7.44470
| 68>    C       -1.27702        13.18991         7.13305
| 69>    C       -1.88254        14.89186         8.85444
| 70>    F       -2.28243        16.15619         9.03908
| 71>    F       -2.91439        14.12444         9.27606
| 72>    F       -0.89151        14.66087         9.72290
| 73>    C       -1.76900        16.77565         6.21274
| 74>    C       -1.20657        17.72239         7.00165
| 75>    C       -1.46779        19.15256         6.99669
| 76>    C       -2.48709        19.78710         6.33941
| 77>    C       -2.71775        21.17850         6.39273
| 78>    N       -2.95109        22.30211         6.38765
| 79>    C       -3.44854        19.14564         5.52997
| 80>    N       -4.26350        18.68886         4.86297
| 81>    C       -0.49344        19.78167         7.87782
| 82>    C        0.34255        18.77209         8.43709
| 83>    C       -0.06019        17.45695         7.92289
| 84>    O        0.47682        16.39066         8.12381
| 85>    C        1.34793        19.06865         9.31238
| 86>    C        1.56532        20.41471         9.68041
| 87>    C        0.73789        21.43209         9.12163
| 88>    C       -0.29219        21.09508         8.21451
| 89>    C        0.96689        22.77294         9.49284
| 90>    C        1.96257        23.09478        10.37445
| 91>    C        2.77547        22.09225        10.92479
| 92>    C        2.58089        20.78079        10.58555
| 93>    H        0.99194         6.20251       -11.70111
| 94>    H       -2.90791         3.62561        -9.95954
| 95>    H       -3.59060         3.13072       -12.23284
| 96>    H       -3.24172         3.32245       -14.66301
| 97>    H       -1.32073         4.58579       -15.54660
| 98>    H        0.26788         5.66771       -14.00562
| 99>    H        1.12847         6.97510        -6.48613
|100>    H       -2.65532         6.29883        -6.02976
|101>    H        0.22153         8.67536        -1.71692
|102>    H        1.42193        10.13201        -0.52432
|103>    H        2.00802        11.59389         2.04373
|104>    H        0.44218        11.84513         1.23988
|105>    H        3.00560        12.16281        -0.12085
|106>    H        2.00419        13.37110         0.35985
|107>    H        2.86824         9.17777         1.98049
|108>    H        3.65730        10.02677         0.63041
|109>    H        2.17420         7.53787         0.28718
|110>    H        3.80938         7.69449         0.27020
|111>    H        1.28407        10.25157         3.61996
|112>    H        0.54285         8.77984         5.50745
|113>    H       -1.92293         8.24838         5.78671
|114>    H       -2.79839         7.34144         3.67919
|115>    H       -3.19130         6.50349         1.21475
|116>    H       -3.12580         6.04360        -1.17953
|117>    H       -0.64587        10.46086         6.74368
|118>    H       -0.69708        11.84456         4.01452
|119>    H       -1.23293        12.42277         7.88405
|120>    H       -2.38852        17.07094         5.37514
|121>    H        1.96468        18.28298         9.72265
|122>    H       -0.89757        21.88845         7.80579
|123>    H        0.33766        23.54108         9.06789
|124>    H        2.12949        24.12439        10.65299
|125>    H        3.55697        22.36462        11.61770
|126>    H        3.20359        20.00456        11.00518
|127> *
|128> 
|129>                          ****END OF INPUT****
================================================================================

                       ****************************
                       * Single Point Calculation *
                       ****************************

---------------------------------
CARTESIAN COORDINATES (ANGSTROEM)
---------------------------------
  C     -1.093840    4.794720   -8.010230
  C     -1.688050    3.882410   -7.177330
  C     -2.586470    2.889160   -7.617650
  N     -3.327320    2.068660   -7.926280
  C     -1.394030    3.772400   -5.803950
  N     -1.149540    3.622980   -4.692390
  C     -1.165740    4.774490   -9.467580
  C     -0.065780    5.518850   -9.986290
  C      0.148160    5.640750  -11.328860
  C     -0.749150    5.022520  -12.228750
  C     -1.860030    4.291670  -11.716630
  C     -2.053510    4.176610  -10.320650
  C     -2.751160    3.685650  -12.625260
  C     -2.554660    3.792230  -13.975190
  C     -1.460210    4.511080  -14.478540
  C     -0.576720    5.112840  -13.623970
  C      0.706320    6.088990   -8.868920
  O      1.731850    6.728400   -8.915520
  C     -0.080320    5.761810   -7.643160
  C      0.189220    6.430490   -6.491570
  C     -0.620820    6.581390   -5.338310
  S      0.102110    7.035100   -3.822420
  C     -1.426450    7.073350   -3.016660
  C     -2.444350    6.784320   -3.914180
  C     -1.990810    6.500640   -5.208340
  C     -3.908480    6.837080   -3.620760
  F     -4.395050    5.695700   -3.096240
  F     -4.244830    7.818100   -2.767450
  F     -4.623830    7.055160   -4.737470
  C     -1.461790    7.369870   -1.602750
  C     -0.516930    8.217310   -1.075340
  C     -0.511230    8.493030    0.305940
  C      0.338630    9.277960    1.068670
  C      1.491630   10.078600    0.565300
  C      1.477420   11.530690    1.077860
  N      2.037530   12.402720    0.062810
  C      2.821030    9.372360    0.894100
  N      2.937010    8.175440    0.083860
  C     -0.093390    9.137710    2.441710
  C      0.405900    9.622260    3.592700
  C     -0.212570    9.319380    4.911720
  C     -1.439670    8.456690    4.844910
  C     -1.918200    7.967480    3.687360
  C     -1.274680    8.258140    2.460580
  C     -1.511210    7.864140    1.160390
  C     -2.462520    6.989790    0.584240
  C     -2.434710    6.748850   -0.750160
  C     -0.549600   10.574000    5.674130
  C     -0.773090   11.754270    5.090040
  C     -1.100880   12.964570    5.788260
  S     -1.297020   14.436590    4.895560
  C     -1.553640   15.366210    6.340100
  C     -1.528840   14.534770    7.444700
  C     -1.277020   13.189910    7.133050
  C     -1.882540   14.891860    8.854440
  F     -2.282430   16.156190    9.039080
  F     -2.914390   14.124440    9.276060
  F     -0.891510   14.660870    9.722900
  C     -1.769000   16.775650    6.212740
  C     -1.206570   17.722390    7.001650
  C     -1.467790   19.152560    6.996690
  C     -2.487090   19.787100    6.339410
  C     -2.717750   21.178500    6.392730
  N     -2.951090   22.302110    6.387650
  C     -3.448540   19.145640    5.529970
  N     -4.263500   18.688860    4.862970
  C     -0.493440   19.781670    7.877820
  C      0.342550   18.772090    8.437090
  C     -0.060190   17.456950    7.922890
  O      0.476820   16.390660    8.123810
  C      1.347930   19.068650    9.312380
  C      1.565320   20.414710    9.680410
  C      0.737890   21.432090    9.121630
  C     -0.292190   21.095080    8.214510
  C      0.966890   22.772940    9.492840
  C      1.962570   23.094780   10.374450
  C      2.775470   22.092250   10.924790
  C      2.580890   20.780790   10.585550
  H      0.991940    6.202510  -11.701110
  H     -2.907910    3.625610   -9.959540
  H     -3.590600    3.130720  -12.232840
  H     -3.241720    3.322450  -14.663010
  H     -1.320730    4.585790  -15.546600
  H      0.267880    5.667710  -14.005620
  H      1.128470    6.975100   -6.486130
  H     -2.655320    6.298830   -6.029760
  H      0.221530    8.675360   -1.716920
  H      1.421930   10.132010   -0.524320
  H      2.008020   11.593890    2.043730
  H      0.442180   11.845130    1.239880
  H      3.005600   12.162810   -0.120850
  H      2.004190   13.371100    0.359850
  H      2.868240    9.177770    1.980490
  H      3.657300   10.026770    0.630410
  H      2.174200    7.537870    0.287180
  H      3.809380    7.694490    0.270200
  H      1.284070   10.251570    3.619960
  H      0.542850    8.779840    5.507450
  H     -1.922930    8.248380    5.786710
  H     -2.798390    7.341440    3.679190
  H     -3.191300    6.503490    1.214750
  H     -3.125800    6.043600   -1.179530
  H     -0.645870   10.460860    6.743680
  H     -0.697080   11.844560    4.014520
  H     -1.232930   12.422770    7.884050
  H     -2.388520   17.070940    5.375140
  H      1.964680   18.282980    9.722650
  H     -0.897570   21.888450    7.805790
  H      0.337660   23.541080    9.067890
  H      2.129490   24.124390   10.652990
  H      3.556970   22.364620   11.617700
  H      3.203590   20.004560   11.005180

----------------------------
CARTESIAN COORDINATES (A.U.)
----------------------------
  NO LB      ZA    FRAG     MASS         X           Y           Z
   0 C     6.0000    0    12.011   -2.067058    9.060708  -15.137141
   1 C     6.0000    0    12.011   -3.189952    7.336692  -13.563188
   2 C     6.0000    0    12.011   -4.887720    5.459721  -14.395272
   3 N     7.0000    0    14.007   -6.287724    3.909201  -14.978498
   4 C     6.0000    0    12.011   -2.634335    7.128803  -10.967876
   5 N     7.0000    0    14.007   -2.172316    6.846440   -8.867332
   6 C     6.0000    0    12.011   -2.202929    9.022479  -17.891133
   7 C     6.0000    0    12.011   -0.124306   10.429115  -18.871353
   8 C     6.0000    0    12.011    0.279982   10.659473  -21.408443
   9 C     6.0000    0    12.011   -1.415688    9.491187  -23.108988
  10 C     6.0000    0    12.011   -3.514947    8.110081  -22.141222
  11 C     6.0000    0    12.011   -3.880572    7.892649  -19.503202
  12 C     6.0000    0    12.011   -5.198939    6.964869  -23.858284
  13 C     6.0000    0    12.011   -4.827608    7.166276  -26.409282
  14 C     6.0000    0    12.011   -2.759397    8.524706  -27.360475
  15 C     6.0000    0    12.011   -1.089843    9.661867  -25.745572
  16 C     6.0000    0    12.011    1.334751   11.506524  -16.759830
  17 O     8.0000    0    15.999    3.272722   12.714833  -16.847891
  18 C     6.0000    0    12.011   -0.151783   10.888243  -14.443479
  19 C     6.0000    0    12.011    0.357574   12.151865  -12.267289
  20 C     6.0000    0    12.011   -1.173180   12.437025  -10.087944
  21 S    16.0000    0    32.060    0.192960   13.294412   -7.223327
  22 C     6.0000    0    12.011   -2.695600   13.366694   -5.700661
  23 C     6.0000    0    12.011   -4.619152   12.820507   -7.396728
  24 C     6.0000    0    12.011   -3.762086   12.284429   -9.842336
  25 C     6.0000    0    12.011   -7.385957   12.920209   -6.842245
  26 F     9.0000    0    18.998   -8.305441   10.763313   -5.851046
  27 F     9.0000    0    18.998   -8.021566   14.774068   -5.229723
  28 F     9.0000    0    18.998   -8.737772   13.332320   -8.952521
  29 C     6.0000    0    12.011   -2.762383   13.927036   -3.028759
  30 C     6.0000    0    12.011   -0.976856   15.528465   -2.032098
  31 C     6.0000    0    12.011   -0.966085   16.049501    0.578143
  32 C     6.0000    0    12.011    0.639918   17.532803    2.019494
  33 C     6.0000    0    12.011    2.818772   19.045794    1.068262
  34 C     6.0000    0    12.011    2.791919   21.789846    2.036860
  35 N     7.0000    0    14.007    3.850374   23.437744    0.118694
  36 C     6.0000    0    12.011    5.330974   17.711194    1.689604
  37 N     7.0000    0    14.007    5.550145   15.449343    0.158472
  38 C     6.0000    0    12.011   -0.176482   17.267769    4.614163
  39 C     6.0000    0    12.011    0.767040   18.183436    6.789219
  40 C     6.0000    0    12.011   -0.401699   17.611076    9.281806
  41 C     6.0000    0    12.011   -2.720582   15.980828    9.155553
  42 C     6.0000    0    12.011   -3.624873   15.056355    6.968101
  43 C     6.0000    0    12.011   -2.408796   15.605623    4.649822
  44 C     6.0000    0    12.011   -2.855773   14.861071    2.192819
  45 C     6.0000    0    12.011   -4.653488   13.208789    1.104054
  46 C     6.0000    0    12.011   -4.600935   12.753478   -1.417597
  47 C     6.0000    0    12.011   -1.038593   19.981964   10.722552
  48 C     6.0000    0    12.011   -1.460928   22.212351    9.618782
  49 C     6.0000    0    12.011   -2.080362   24.499487   10.938226
  50 S    16.0000    0    32.060   -2.451013   27.281201    9.251268
  51 C     6.0000    0    12.011   -2.935954   29.037929   11.981053
  52 C     6.0000    0    12.011   -2.889089   27.466735   14.068444
  53 C     6.0000    0    12.011   -2.413218   24.925318   13.479511
  54 C     6.0000    0    12.011   -3.557485   28.141537   16.732467
  55 F     9.0000    0    18.998   -4.313168   30.530774   17.081386
  56 F     9.0000    0    18.998   -5.507399   26.691323   17.529213
  57 F     9.0000    0    18.998   -1.684710   27.705029   18.373618
  58 C     6.0000    0    12.011   -3.342926   31.701384   11.740377
  59 C     6.0000    0    12.011   -2.280087   33.490464   13.231201
  60 C     6.0000    0    12.011   -2.773721   36.193093   13.221828
  61 C     6.0000    0    12.011   -4.699919   37.392200   11.979749
  62 C     6.0000    0    12.011   -5.135803   40.021565   12.080509
  63 N     7.0000    0    14.007   -5.576752   42.144880   12.070909
  64 C     6.0000    0    12.011   -6.516796   36.180016   10.450129
  65 N     7.0000    0    14.007   -8.056847   35.316827    9.189681
  66 C     6.0000    0    12.011   -0.932466   37.381939   14.886922
  67 C     6.0000    0    12.011    0.647326   35.474109   15.943789
  68 C     6.0000    0    12.011   -0.113743   32.988855   14.972092
  69 O     8.0000    0    15.999    0.901059   30.973859   15.351776
  70 C     6.0000    0    12.011    2.547219   36.034526   17.597848
  71 C     6.0000    0    12.011    2.958026   38.578211   18.293324
  72 C     6.0000    0    12.011    1.394410   40.500781   17.237383
  73 C     6.0000    0    12.011   -0.552159   39.863924   15.523174
  74 C     6.0000    0    12.011    1.827157   43.034620   17.938868
  75 C     6.0000    0    12.011    3.708720   43.642809   19.604869
  76 C     6.0000    0    12.011    5.244878   41.748302   20.644861
  77 C     6.0000    0    12.011    4.877175   39.270002   20.003790
  78 H     1.0000    0     1.008    1.874495   11.721045  -22.111893
  79 H     1.0000    0     1.008   -5.495154    6.851410  -18.820803
  80 H     1.0000    0     1.008   -6.785251    5.916203  -23.116717
  81 H     1.0000    0     1.008   -6.125963    6.278521  -27.709073
  82 H     1.0000    0     1.008   -2.495818    8.665887  -29.378816
  83 H     1.0000    0     1.008    0.506220   10.710420  -26.466786
  84 H     1.0000    0     1.008    2.132499   13.181029  -12.257009
  85 H     1.0000    0     1.008   -5.017828   11.903064  -11.394595
  86 H     1.0000    0     1.008    0.418631   16.394055   -3.244509
  87 H     1.0000    0     1.008    2.687058   19.146724   -0.990821
  88 H     1.0000    0     1.008    3.794608   21.909277    3.862090
  89 H     1.0000    0     1.008    0.835599   22.384052    2.343034
  90 H     1.0000    0     1.008    5.679761   22.984380   -0.228373
  91 H     1.0000    0     1.008    3.787370   25.267717    0.680018
  92 H     1.0000    0     1.008    5.420188   17.343472    3.742584
  93 H     1.0000    0     1.008    6.911295   18.947849    1.191302
  94 H     1.0000    0     1.008    4.108643   14.244510    0.542692
  95 H     1.0000    0     1.008    7.198685   14.540479    0.510604
  96 H     1.0000    0     1.008    2.426541   19.372660    6.840733
  97 H     1.0000    0     1.008    1.025838   16.591493   10.407572
  98 H     1.0000    0     1.008   -3.633811   15.587179   10.935297
  99 H     1.0000    0     1.008   -5.288191   13.873311    6.952661
 100 H     1.0000    0     1.008   -6.030683   12.289815    2.295545
 101 H     1.0000    0     1.008   -5.906906   11.420749   -2.228989
 102 H     1.0000    0     1.008   -1.220517   19.768161   12.743708
 103 H     1.0000    0     1.008   -1.317290   22.382975    7.586343
 104 H     1.0000    0     1.008   -2.329900   23.475633   14.898695
 105 H     1.0000    0     1.008   -4.513649   32.259401   10.157543
 106 H     1.0000    0     1.008    3.712707   34.549825   18.373146
 107 H     1.0000    0     1.008   -1.696161   41.363176   14.750805
 108 H     1.0000    0     1.008    0.638085   44.486194   17.135829
 109 H     1.0000    0     1.008    4.024153   45.588490   20.131234
 110 H     1.0000    0     1.008    6.721699   42.263007   21.954271
 111 H     1.0000    0     1.008    6.053908   37.803140   20.796776

--------------------------------
INTERNAL COORDINATES (ANGSTROEM)
--------------------------------
 C      0   0   0     0.000000000000     0.00000000     0.00000000
 C      1   0   0     1.370809056798     0.00000000     0.00000000
 C      2   1   0     1.409817634058   123.73465551     0.00000000
 N      3   2   1     1.147750604182   177.39901897   187.57152172
 C      2   1   3     1.408801825985   123.62967573   175.21250292
 N      5   2   1     1.147896916147   176.98238670   227.49765586
 C      1   2   3     1.459262788328   125.18488696   352.00990904
 C      7   1   2     1.425848475575   108.54601960   201.76832304
 C      8   7   1     1.364963053896   121.69233478   178.09028201
 C      9   8   7     1.413214626693   119.19177431     0.51207300
 C     10   9   8     1.424943153708   119.37478377     0.30221481
 C      7   1   2     1.368694448078   131.33575034    20.77833154
 C     11  10   9     1.409603275464   118.79570329   179.68106933
 C     13  11  10     1.368313762008   120.77484139     0.15637046
 C     14  13  11     1.402828338572   120.39395072   359.88883865
 C     15  14  13     1.368561128558   120.32566634     0.04185181
 C      8   7   1     1.472994822292   109.29736745   357.39843508
 O     17   8   7     1.209433127130   128.30680849   176.59151803
 C      1   2   3     1.448180321438   126.42705804   185.65954122
 C     19   1   2     1.358655321301   133.02736650   329.46638642
 C     20  19   1     1.417372300844   128.95228204   346.00053411
 S     21  20  19     1.739656012291   119.95192428   160.58509110
 C     22  21  20     1.728354105414    92.54966613   177.74756769
 C     23  22  21     1.387516090465   110.03750837   358.21020411
 C     21  20  19     1.378508383544   129.67668217   336.15631995
 C     24  23  22     1.494173875725   125.76626706   185.57409073
 F     26  24  23     1.347078282692   113.60860479   273.42847254
 F     26  24  23     1.343007639219   113.32676834    34.92943416
 F     26  24  23     1.343996180426   111.35323933   154.36347338
 C     23  22  21     1.445100174417   118.83623015   177.75421675
 C     30  23  22     1.374436714185   119.02221842    32.02430053
 C     31  30  23     1.408541247816   119.98521536   181.64460144
 C     32  31  30     1.385689062308   130.77915308   178.56132589
 C     33  32  31     1.491246044924   126.33652958     1.43522815
 C     34  33  32     1.539962676756   112.75385174   130.50577880
 N     35  34  33     1.450684678178   109.29085914   213.03722495
 C     34  33  32     1.540840269983   110.42413362   256.18970677
 N     37  34  33     1.450019897932   109.15437784    69.69339855
 C     33  32  31     1.446219272621   106.52523388   182.85525233
 C     39  33  32     1.344937614427   131.80942335   176.44126676
 C     40  39  33     1.487970159546   122.07206195   180.96191299
 C     41  40  39     1.501489934099   114.65781649   359.01637256
 C     42  41  40     1.344707919029   122.55834901     1.75407050
 C     43  42  41     1.415482389293   120.63522543   359.66871786
 C     44  43  42     1.379012863247   132.88275726   177.41017309
 C     45  44  43     1.414718156065   132.52362469   357.71427635
 C     46  45  44     1.356262821027   119.78162066   182.24482731
 C     41  40  39     1.506296641900   111.84741478   234.87110830
 C     48  41  40     1.335719349676   123.51043915    24.64528705
 C     49  48  41     1.435194600917   124.79445038   179.74713153
 S     50  49  48     1.732693588030   119.44818114   177.40995826
 C     51  50  49     1.736877364813    92.46074991   183.24053481
 C     52  51  50     1.382768481562   109.87113351   357.99389999
 C     50  49  48     1.374868560736   130.04072841   358.79507643
 C     53  52  51     1.496657551245   127.21013564   188.66702896
 F     55  53  52     1.338855589898   115.20110590     1.02198933
 F     55  53  52     1.353296458024   109.77639697   119.72114868
 F     55  53  52     1.337804026231   113.27870347   237.16463427
 C     52  51  50     1.431475327346   118.37353312   179.08201329
 C     59  52  51     1.354630252357   125.01945548   223.30474281
 C     60  59  52     1.453838615150   127.65656651   185.54029857
 C     61  60  59     1.368806231722   126.26077253    11.21168153
 C     62  61  60     1.411396832220   124.09462485   178.37670785
 N     63  62  61     1.147594350849   176.64940661   171.10958073
 C     62  61  60     1.411045763857   124.89756012   358.82254551
 N     65  62  61     1.147909739483   176.33795043   176.36499805
 C     61  60  59     1.456546391812   107.61563218   188.10419020
 C     67  61  60     1.425101396182   108.89520518   359.10211345
 C     68  67  61     1.468398572323   109.64372361     0.51002901
 O     69  68  67     1.210670454996   127.52066018   175.36352228
 C     68  67  61     1.365602197604   121.97648953   180.41329267
 C     71  68  67     1.412296716912   119.16517791     0.24042559
 C     72  71  68     1.425460472163   119.25823841   359.49486638
 C     67  61  60     1.370732485462   131.35037469   179.29118260
 C     73  72  71     1.410005881761   118.76641393   180.20800178
 C     75  73  72     1.368282076218   120.76319638   359.89478143
 C     76  75  73     1.403120424803   120.41394479     0.04285675
 C     77  76  75     1.368529314849   120.33825962     0.00000000
 H      9   8   7     1.079865291830   120.53018773   180.49338899
 H     12   7   1     1.078888683832   121.87998321     2.48901194
 H     13  11  10     1.080092715881   118.55606814   179.86209375
 H     14  13  11     1.079741193250   120.21159082   179.85863358
 H     15  14  13     1.079716823107   119.41807225   180.05163911
 H     16  15  14     1.080225254010   120.66323930   180.00047829
 H     20  19   1     1.085734870123   115.00767302   170.40095123
 H     25  21  20     1.075654048754   123.56940126   359.96366071
 H     31  30  23     1.080165668081   120.23315425     1.77106249
 H     34  33  32     1.093152533959   108.26381159    12.86153108
 H     35  34  33     1.103827639127   109.92521180    88.36266134
 H     35  34  33     1.094004045514   109.21083707   330.05728436
 H     36  35  34     1.014123921718   110.67577307   297.57664623
 H     36  35  34     1.013461465276   110.89128336   177.62263832
 H     37  34  33     1.104688772596   109.11494924   304.99066065
 H     37  34  33     1.094135447328   109.50377064   186.92508110
 H     38  37  34     1.014748059077   110.27628551   299.14417158
 H     38  37  34     1.013442112308   110.96785798   179.28615224
 H     40  39  33     1.080720469224   122.21086043     0.62824452
 H     41  40  39     1.103021768099   107.07784597   118.32160257
 H     42  41  40     1.078851483616   115.98752391   181.78833989
 H     43  42  41     1.080151501689   120.48745713   179.36685829
 H     46  45  44     1.079421529570   119.64041461     0.93034830
 H     47  46  45     1.076727239137   119.70561504   176.78571610
 H     48  41  40     1.079817473002   115.72252976   202.07551304
 H     49  48  41     1.081976466750   119.77918796   358.87246838
 H     54  50  49     1.074452748007   124.15203019   356.82635346
 H     59  52  51     1.082855010839   115.04886471    39.61657411
 H     71  68  67     1.079805252951   120.39934860   179.85168790
 H     74  67  61     1.078412230875   121.96531619   359.22639186
 H     75  73  72     1.080070347246   118.56224094   180.03318359
 H     76  75  73     1.079603431867   120.20314838   180.04737760
 H     77  76  75     1.079375715402   119.40379962   179.92101479
 H     78  77  76     1.079989648006   120.69518493   179.96070161

---------------------------
INTERNAL COORDINATES (A.U.)
---------------------------
 C      0   0   0     0.000000000000     0.00000000     0.00000000
 C      1   0   0     2.590453699248     0.00000000     0.00000000
 C      2   1   0     2.664169227142   123.73465551     0.00000000
 N      3   2   1     2.168934311947   177.39901897   187.57152172
 C      2   1   3     2.662249628081   123.62967573   175.21250292
 N      5   2   1     2.169210801491   176.98238670   227.49765586
 C      1   2   3     2.757607027363   125.18488696   352.00990904
 C      7   1   2     2.694463127306   108.54601960   201.76832304
 C      8   7   1     2.579406354783   121.69233478   178.09028201
 C      9   8   7     2.670588612902   119.19177431     0.51207300
 C     10   9   8     2.692752316915   119.37478377     0.30221481
 C      7   1   2     2.586457667886   131.33575034    20.77833154
 C     11  10   9     2.663764148106   118.79570329   179.68106933
 C     13  11  10     2.585738275470   120.77484139     0.15637046
 C     14  13  11     2.650961372804   120.39395072   359.88883865
 C     15  14  13     2.586205730505   120.32566634     0.04185181
 C      8   7   1     2.783556810816   109.29736745   357.39843508
 O     17   8   7     2.285497387568   128.30680849   176.59151803
 C      1   2   3     2.736664200052   126.42705804   185.65954122
 C     19   1   2     2.567486467654   133.02736650   329.46638642
 C     20  19   1     2.678445478401   128.95228204   346.00053411
 S     21  20  19     3.287473430459   119.95192428   160.58509110
 C     22  21  20     3.266115921670    92.54966613   177.74756769
 C     23  22  21     2.622025417388   110.03750837   358.21020411
 C     21  20  19     2.605003318212   129.67668217   336.15631995
 C     24  23  22     2.823579421581   125.76626706   185.57409073
 F     26  24  23     2.545609035241   113.60860479   273.42847254
 F     26  24  23     2.537916633888   113.32676834    34.92943416
 F     26  24  23     2.539784706042   111.35323933   154.36347338
 C     23  22  21     2.730843565730   118.83623015   177.75421675
 C     30  23  22     2.597308978216   119.02221842    32.02430053
 C     31  30  23     2.661757206705   119.98521536   181.64460144
 C     32  31  30     2.618572834532   130.77915308   178.56132589
 C     33  32  31     2.818046623199   126.33652958     1.43522815
 C     34  33  32     2.910107715528   112.75385174   130.50577880
 N     35  34  33     2.741396748432   109.29085914   213.03722495
 C     34  33  32     2.911766126384   110.42413362   256.18970677
 N     37  34  33     2.740140495829   109.15437784    69.69339855
 C     33  32  31     2.732958354852   106.52523388   182.85525233
 C     39  33  32     2.541563758476   131.80942335   176.44126676
 C     40  39  33     2.811856096989   122.07206195   180.96191299
 C     41  40  39     2.837404768286   114.65781649   359.01637256
 C     42  41  40     2.541129697080   122.55834901     1.75407050
 C     43  42  41     2.674874063153   120.63522543   359.66871786
 C     44  43  42     2.605956646691   132.88275726   177.41017309
 C     45  44  43     2.673429871649   132.52362469   357.71427635
 C     46  45  44     2.562965297360   119.78162066   182.24482731
 C     41  40  39     2.846488129637   111.84741478   234.87110830
 C     48  41  40     2.524143762668   123.51043915    24.64528705
 C     49  48  41     2.712124744615   124.79445038   179.74713153
 S     50  49  48     3.274316355378   119.44818114   177.40995826
 C     51  50  49     3.282222547704    92.46074991   183.24053481
 C     52  51  50     2.613053736769   109.87113351   357.99389999
 C     50  49  48     2.598125049929   130.04072841   358.79507643
 C     53  52  51     2.828272888119   127.21013564   188.66702896
 F     55  53  52     2.530070397776   115.20110590     1.02198933
 F     55  53  52     2.557359683671   109.77639697   119.72114868
 F     55  53  52     2.528083230434   113.27870347   237.16463427
 C     52  51  50     2.705096336149   118.37353312   179.08201329
 C     59  52  51     2.559880189679   125.01945548   223.30474281
 C     60  59  52     2.747356825552   127.65656651   185.54029857
 C     61  60  59     2.586668908359   126.26077253    11.21168153
 C     62  61  60     2.667153479179   124.09462485   178.37670785
 N     63  62  61     2.168639035939   176.64940661   171.10958073
 C     62  61  60     2.666490056120   124.89756012   358.82254551
 N     65  62  61     2.169235034084   176.33795043   176.36499805
 C     61  60  59     2.752473781875   107.61563218   188.10419020
 C     67  61  60     2.693051351853   108.89520518   359.10211345
 C     68  67  61     2.774871157131   109.64372361     0.51002901
 O     69  68  67     2.287835598372   127.52066018   175.36352228
 C     68  67  61     2.580614161352   121.97648953   180.41329267
 C     71  68  67     2.668854014800   119.16517791     0.24042559
 C     72  71  68     2.693729907119   119.25823841   359.49486638
 C     67  61  60     2.590309000392   131.35037469   179.29118260
 C     73  72  71     2.664524963746   118.76641393   180.20800178
 C     75  73  72     2.585678398006   120.76319638   359.89478143
 C     76  75  73     2.651513335789   120.41394479     0.04285675
 C     77  76  75     2.586145611307   120.33825962     0.00000000
 H      9   8   7     2.040649663086   120.53018773   180.49338899
 H     12   7   1     2.038804141429   121.87998321     2.48901194
 H     13  11  10     2.041079432259   118.55606814   179.86209375
 H     14  13  11     2.040415150755   120.21159082   179.85863358
 H     15  14  13     2.040369097859   119.41807225   180.05163911
 H     16  15  14     2.041329893024   120.66323930   180.00047829
 H     20  19   1     2.051741558580   115.00767302   170.40095123
 H     25  21  20     2.032691566988   123.56940126   359.96366071
 H     31  30  23     2.041217291936   120.23315425     1.77106249
 H     34  33  32     2.065758911784   108.26381159    12.86153108
 H     35  34  33     2.085931937002   109.92521180    88.36266134
 H     35  34  33     2.067368035423   109.21083707   330.05728436
 H     36  35  34     1.916416477905   110.67577307   297.57664623
 H     36  35  34     1.915164616655   110.89128336   177.62263832
 H     37  34  33     2.087559243424   109.11494924   304.99066065
 H     37  34  33     2.067616348866   109.50377064   186.92508110
 H     38  37  34     1.917595926583   110.27628551   299.14417158
 H     38  37  34     1.915128044845   110.96785798   179.28615224
 H     40  39  33     2.042265714156   122.21086043     0.62824452
 H     41  40  39     2.084409061460   107.07784597   118.32160257
 H     42  41  40     2.038733843208   115.98752391   181.78833989
 H     43  42  41     2.041190521335   120.48745713   179.36685829
 H     46  45  44     2.039811073946   119.64041461     0.93034830
 H     47  46  45     2.034719602902   119.70561504   176.78571610
 H     48  41  40     2.040559298596   115.72252976   202.07551304
 H     49  48  41     2.044639205505   119.77918796   358.87246838
 H     54  50  49     2.030421437573   124.15203019   356.82635346
 H     59  52  51     2.046299413231   115.04886471    39.61657411
 H     71  68  67     2.040536206046   120.39934860   179.85168790
 H     74  67  61     2.037903775824   121.96531619   359.22639186
 H     75  73  72     2.041037161664   118.56224094   180.03318359
 H     76  75  73     2.040154819471   120.20314838   180.04737760
 H     77  76  75     2.039724497715   119.40379962   179.92101479
 H     78  77  76     2.040884662201   120.69518493   179.96070161

---------------------
BASIS SET INFORMATION
---------------------
There are 6 groups of distinct atoms

 Group   1 Type C   : 7s4p1d contracted to 3s2p1d pattern {511/31/1}
 Group   2 Type N   : 7s4p1d contracted to 3s2p1d pattern {511/31/1}
 Group   3 Type O   : 7s4p1d contracted to 3s2p1d pattern {511/31/1}
 Group   4 Type S   : 10s7p1d contracted to 4s3p1d pattern {5311/511/1}
 Group   5 Type F   : 7s4p1d contracted to 3s2p1d pattern {511/31/1}
 Group   6 Type H   : 4s1p contracted to 2s1p pattern {31/1}

Atom   0C    basis set group =>   1
Atom   1C    basis set group =>   1
Atom   2C    basis set group =>   1
Atom   3N    basis set group =>   2
Atom   4C    basis set group =>   1
Atom   5N    basis set group =>   2
Atom   6C    basis set group =>   1
Atom   7C    basis set group =>   1
Atom   8C    basis set group =>   1
Atom   9C    basis set group =>   1
Atom  10C    basis set group =>   1
Atom  11C    basis set group =>   1
Atom  12C    basis set group =>   1
Atom  13C    basis set group =>   1
Atom  14C    basis set group =>   1
Atom  15C    basis set group =>   1
Atom  16C    basis set group =>   1
Atom  17O    basis set group =>   3
Atom  18C    basis set group =>   1
Atom  19C    basis set group =>   1
Atom  20C    basis set group =>   1
Atom  21S    basis set group =>   4
Atom  22C    basis set group =>   1
Atom  23C    basis set group =>   1
Atom  24C    basis set group =>   1
Atom  25C    basis set group =>   1
Atom  26F    basis set group =>   5
Atom  27F    basis set group =>   5
Atom  28F    basis set group =>   5
Atom  29C    basis set group =>   1
Atom  30C    basis set group =>   1
Atom  31C    basis set group =>   1
Atom  32C    basis set group =>   1
Atom  33C    basis set group =>   1
Atom  34C    basis set group =>   1
Atom  35N    basis set group =>   2
Atom  36C    basis set group =>   1
Atom  37N    basis set group =>   2
Atom  38C    basis set group =>   1
Atom  39C    basis set group =>   1
Atom  40C    basis set group =>   1
Atom  41C    basis set group =>   1
Atom  42C    basis set group =>   1
Atom  43C    basis set group =>   1
Atom  44C    basis set group =>   1
Atom  45C    basis set group =>   1
Atom  46C    basis set group =>   1
Atom  47C    basis set group =>   1
Atom  48C    basis set group =>   1
Atom  49C    basis set group =>   1
Atom  50S    basis set group =>   4
Atom  51C    basis set group =>   1
Atom  52C    basis set group =>   1
Atom  53C    basis set group =>   1
Atom  54C    basis set group =>   1
Atom  55F    basis set group =>   5
Atom  56F    basis set group =>   5
Atom  57F    basis set group =>   5
Atom  58C    basis set group =>   1
Atom  59C    basis set group =>   1
Atom  60C    basis set group =>   1
Atom  61C    basis set group =>   1
Atom  62C    basis set group =>   1
Atom  63N    basis set group =>   2
Atom  64C    basis set group =>   1
Atom  65N    basis set group =>   2
Atom  66C    basis set group =>   1
Atom  67C    basis set group =>   1
Atom  68C    basis set group =>   1
Atom  69O    basis set group =>   3
Atom  70C    basis set group =>   1
Atom  71C    basis set group =>   1
Atom  72C    basis set group =>   1
Atom  73C    basis set group =>   1
Atom  74C    basis set group =>   1
Atom  75C    basis set group =>   1
Atom  76C    basis set group =>   1
Atom  77C    basis set group =>   1
Atom  78H    basis set group =>   6
Atom  79H    basis set group =>   6
Atom  80H    basis set group =>   6
Atom  81H    basis set group =>   6
Atom  82H    basis set group =>   6
Atom  83H    basis set group =>   6
Atom  84H    basis set group =>   6
Atom  85H    basis set group =>   6
Atom  86H    basis set group =>   6
Atom  87H    basis set group =>   6
Atom  88H    basis set group =>   6
Atom  89H    basis set group =>   6
Atom  90H    basis set group =>   6
Atom  91H    basis set group =>   6
Atom  92H    basis set group =>   6
Atom  93H    basis set group =>   6
Atom  94H    basis set group =>   6
Atom  95H    basis set group =>   6
Atom  96H    basis set group =>   6
Atom  97H    basis set group =>   6
Atom  98H    basis set group =>   6
Atom  99H    basis set group =>   6
Atom 100H    basis set group =>   6
Atom 101H    basis set group =>   6
Atom 102H    basis set group =>   6
Atom 103H    basis set group =>   6
Atom 104H    basis set group =>   6
Atom 105H    basis set group =>   6
Atom 106H    basis set group =>   6
Atom 107H    basis set group =>   6
Atom 108H    basis set group =>   6
Atom 109H    basis set group =>   6
Atom 110H    basis set group =>   6
Atom 111H    basis set group =>   6
---------------------------------
AUXILIARY/J BASIS SET INFORMATION
---------------------------------
There are 6 groups of distinct atoms

 Group   1 Type C   : 12s5p4d2f1g contracted to 6s4p3d1f1g pattern {711111/2111/211/2/1}
 Group   2 Type N   : 12s5p4d2f1g contracted to 6s4p3d1f1g pattern {711111/2111/211/2/1}
 Group   3 Type O   : 12s5p4d2f1g contracted to 6s4p3d1f1g pattern {711111/2111/211/2/1}
 Group   4 Type S   : 14s5p5d2f1g contracted to 8s4p3d1f1g pattern {71111111/2111/311/2/1}
 Group   5 Type F   : 12s5p4d2f1g contracted to 6s4p3d1f1g pattern {711111/2111/211/2/1}
 Group   6 Type H   : 5s2p1d contracted to 3s1p1d pattern {311/2/1}

Atom   0C    basis set group =>   1
Atom   1C    basis set group =>   1
Atom   2C    basis set group =>   1
Atom   3N    basis set group =>   2
Atom   4C    basis set group =>   1
Atom   5N    basis set group =>   2
Atom   6C    basis set group =>   1
Atom   7C    basis set group =>   1
Atom   8C    basis set group =>   1
Atom   9C    basis set group =>   1
Atom  10C    basis set group =>   1
Atom  11C    basis set group =>   1
Atom  12C    basis set group =>   1
Atom  13C    basis set group =>   1
Atom  14C    basis set group =>   1
Atom  15C    basis set group =>   1
Atom  16C    basis set group =>   1
Atom  17O    basis set group =>   3
Atom  18C    basis set group =>   1
Atom  19C    basis set group =>   1
Atom  20C    basis set group =>   1
Atom  21S    basis set group =>   4
Atom  22C    basis set group =>   1
Atom  23C    basis set group =>   1
Atom  24C    basis set group =>   1
Atom  25C    basis set group =>   1
Atom  26F    basis set group =>   5
Atom  27F    basis set group =>   5
Atom  28F    basis set group =>   5
Atom  29C    basis set group =>   1
Atom  30C    basis set group =>   1
Atom  31C    basis set group =>   1
Atom  32C    basis set group =>   1
Atom  33C    basis set group =>   1
Atom  34C    basis set group =>   1
Atom  35N    basis set group =>   2
Atom  36C    basis set group =>   1
Atom  37N    basis set group =>   2
Atom  38C    basis set group =>   1
Atom  39C    basis set group =>   1
Atom  40C    basis set group =>   1
Atom  41C    basis set group =>   1
Atom  42C    basis set group =>   1
Atom  43C    basis set group =>   1
Atom  44C    basis set group =>   1
Atom  45C    basis set group =>   1
Atom  46C    basis set group =>   1
Atom  47C    basis set group =>   1
Atom  48C    basis set group =>   1
Atom  49C    basis set group =>   1
Atom  50S    basis set group =>   4
Atom  51C    basis set group =>   1
Atom  52C    basis set group =>   1
Atom  53C    basis set group =>   1
Atom  54C    basis set group =>   1
Atom  55F    basis set group =>   5
Atom  56F    basis set group =>   5
Atom  57F    basis set group =>   5
Atom  58C    basis set group =>   1
Atom  59C    basis set group =>   1
Atom  60C    basis set group =>   1
Atom  61C    basis set group =>   1
Atom  62C    basis set group =>   1
Atom  63N    basis set group =>   2
Atom  64C    basis set group =>   1
Atom  65N    basis set group =>   2
Atom  66C    basis set group =>   1
Atom  67C    basis set group =>   1
Atom  68C    basis set group =>   1
Atom  69O    basis set group =>   3
Atom  70C    basis set group =>   1
Atom  71C    basis set group =>   1
Atom  72C    basis set group =>   1
Atom  73C    basis set group =>   1
Atom  74C    basis set group =>   1
Atom  75C    basis set group =>   1
Atom  76C    basis set group =>   1
Atom  77C    basis set group =>   1
Atom  78H    basis set group =>   6
Atom  79H    basis set group =>   6
Atom  80H    basis set group =>   6
Atom  81H    basis set group =>   6
Atom  82H    basis set group =>   6
Atom  83H    basis set group =>   6
Atom  84H    basis set group =>   6
Atom  85H    basis set group =>   6
Atom  86H    basis set group =>   6
Atom  87H    basis set group =>   6
Atom  88H    basis set group =>   6
Atom  89H    basis set group =>   6
Atom  90H    basis set group =>   6
Atom  91H    basis set group =>   6
Atom  92H    basis set group =>   6
Atom  93H    basis set group =>   6
Atom  94H    basis set group =>   6
Atom  95H    basis set group =>   6
Atom  96H    basis set group =>   6
Atom  97H    basis set group =>   6
Atom  98H    basis set group =>   6
Atom  99H    basis set group =>   6
Atom 100H    basis set group =>   6
Atom 101H    basis set group =>   6
Atom 102H    basis set group =>   6
Atom 103H    basis set group =>   6
Atom 104H    basis set group =>   6
Atom 105H    basis set group =>   6
Atom 106H    basis set group =>   6
Atom 107H    basis set group =>   6
Atom 108H    basis set group =>   6
Atom 109H    basis set group =>   6
Atom 110H    basis set group =>   6
Atom 111H    basis set group =>   6


           ************************************************************
           *        Program running with 6 parallel MPI-processes     *
           *              working on a common directory               *
           ************************************************************
------------------------------------------------------------------------------
                           ORCA GTO INTEGRAL CALCULATION
                           -- RI-GTO INTEGRALS CHOSEN --
------------------------------------------------------------------------------

                         BASIS SET STATISTICS AND STARTUP INFO

Gaussian basis set:
 # of primitive gaussian shells          ... 1118
 # of primitive gaussian functions       ... 2134
 # of contracted shells                  ...  574
 # of contracted basis functions         ... 1270
 Highest angular momentum                ...    2
 Maximum contraction depth               ...    5
Auxiliary gaussian basis set:
 # of primitive gaussian shells          ... 2150
 # of primitive gaussian functions       ... 6018
 # of contracted shells                  ... 1344
 # of contracted aux-basis functions     ... 4200
 Highest angular momentum                ...    4
 Maximum contraction depth               ...    7
Ratio of auxiliary to basis functions    ...  3.31
Integral package used                  ... LIBINT
 One Electron integrals                  ... done
 Ordering auxiliary basis shells         ... done
 Integral threshhold             Thresh  ...  2.500e-11
 Primitive cut-off               TCut    ...  2.500e-12
 Pre-screening matrix                    ... done
 Shell pair data                         ... 
 Ordering of the shell pairs             ... done (   0.010 sec) 48924 of 165025 pairs
 Determination of significant pairs      ... done (   0.000 sec)
 Creation of shell pair data             ... done (   0.005 sec)
 Storage of shell pair data              ... done (   0.031 sec)
 Shell pair data done in (   0.059 sec)
 Computing two index integrals           ... done
 Cholesky decomposition of the V-matrix  ... done


Timings:
 Total evaluation time                   ...   5.296 sec (  0.088 min)
 One electron matrix time                ...   1.125 sec (  0.019 min) = 21.2%
 Schwartz matrix evaluation time         ...   1.331 sec (  0.022 min) = 25.1%
 Two index repulsion integral time       ...   0.589 sec (  0.010 min) = 11.1%
 Cholesky decomposition of V             ...   2.156 sec (  0.036 min) = 40.7%
 Three index repulsion integral time     ...   0.000 sec (  0.000 min) =  0.0%



           ************************************************************
           *        Program running with 6 parallel MPI-processes     *
           *              working on a common directory               *
           ************************************************************
-------------------------------------------------------------------------------
                                 ORCA SCF
-------------------------------------------------------------------------------

------------
SCF SETTINGS
------------
Hamiltonian:
 Density Functional     Method          .... DFT(GTOs)
 Exchange Functional    Exchange        .... WB88
 Correlation Functional Correlation     .... LYP
 LDA part of GGA corr.  LDAOpt          .... VWN-5
 Gradients option       PostSCFGGA      .... off
 Hybrid DFT is turned on
   Fraction HF Exchange ScalHFX         ....  0.190000
   Scaling of DF-GGA-X  ScalDFX         ....  0.350000
   Scaling of DF-GGA-C  ScalDFC         ....  0.810000
   Scaling of DF-LDA-C  ScalLDAC        ....  1.000000
   Perturbative correction              ....  0.000000
   Density functional embedding theory  .... OFF
 Long-range corrected/Screened/Range-Separated Hybrid DFT is turned on
   Amount of maximum screened exact exchange              ....  0.460000
   Range separation parameter mu (erf(mu*r12)/r12)        ....  0.330000
 RI-approximation to the Coulomb term is turned on
   Number of auxiliary basis functions  .... 4200
   RIJ-COSX (HFX calculated with COS-X)).... on


General Settings:
 Integral files         IntName         .... xtbopt
 Hartree-Fock type      HFTyp           .... RHF
 Total Charge           Charge          ....    0
 Multiplicity           Mult            ....    1
 Number of Electrons    NEL             ....  550
 Basis Dimension        Dim             .... 1270
 Nuclear Repulsion      ENuc            ....  11186.5725601312 Eh

Convergence Acceleration:
 DIIS                   CNVDIIS         .... on
   Start iteration      DIISMaxIt       ....    12
   Startup error        DIISStart       ....  0.200000
   # of expansion vecs  DIISMaxEq       ....     5
   Bias factor          DIISBfac        ....   1.050
   Max. coefficient     DIISMaxC        ....  10.000
 Newton-Raphson         CNVNR           .... off
 SOSCF                  CNVSOSCF        .... on
   Start iteration      SOSCFMaxIt      ....   150
   Startup grad/error   SOSCFStart      ....  0.003300
 Level Shifting         CNVShift        .... on
   Level shift para.    LevelShift      ....    0.2500
   Turn off err/grad.   ShiftErr        ....    0.0010
 Zerner damping         CNVZerner       .... off
 Static damping         CNVDamp         .... on
   Fraction old density DampFac         ....    0.7000
   Max. Damping (<1)    DampMax         ....    0.9800
   Min. Damping (>=0)   DampMin         ....    0.0000
   Turn off err/grad.   DampErr         ....    0.1000
 Fernandez-Rico         CNVRico         .... off

SCF Procedure:
 Maximum # iterations   MaxIter         ....   125
 SCF integral mode      SCFMode         .... Direct
   Integral package                     .... LIBINT
 Reset frequency        DirectResetFreq ....    20
 Integral Threshold     Thresh          ....  2.500e-11 Eh
 Primitive CutOff       TCut            ....  2.500e-12 Eh

Convergence Tolerance:
 Convergence Check Mode ConvCheckMode   .... Total+1el-Energy
 Convergence forced     ConvForced      .... 1
 Energy Change          TolE            ....  1.000e-08 Eh
 1-El. energy change                    ....  1.000e-05 Eh
 Orbital Gradient       TolG            ....  1.000e-05
 Orbital Rotation angle TolX            ....  1.000e-05
 DIIS Error             TolErr          ....  5.000e-07


Diagonalization of the overlap matrix:
Smallest eigenvalue                        ... 1.964e-04
Time for diagonalization                   ...    0.387 sec
Threshold for overlap eigenvalues          ... 1.000e-08
Number of eigenvalues below threshold      ... 0
Time for construction of square roots      ...    0.295 sec
Total time needed                          ...    0.684 sec

-------------------
DFT GRID GENERATION
-------------------

General Integration Accuracy     IntAcc      ...  4.670
Radial Grid Type                 RadialGrid  ... Gauss-Chebyshev
Angular Grid (max. acc.)         AngularGrid ... Lebedev-302
Angular grid pruning method      GridPruning ... 3 (G Style)
Weight generation scheme         WeightScheme... Becke
Basis function cutoff            BFCut       ...    1.0000e-11
Integration weight cutoff        WCut        ...    1.0000e-14
Grids for H and He will be reduced by one unit

# of grid points (after initial pruning)     ... 601560 (   0.0 sec)
# of grid points (after weights+screening)   ... 513517 (   8.5 sec)
nearest neighbour list constructed           ...    0.0 sec
Grid point re-assignment to atoms done       ...    0.1 sec
Grid point division into batches done        ...    1.9 sec
Reduced shell lists constructed in    2.8 sec

Total number of grid points                  ...   513517
Total number of batches                      ...     8079
Average number of points per batch           ...       63
Average number of grid points per atom       ...     4585
Average number of shells per batch           ...    88.70 (15.45%)
Average number of basis functions per batch  ...   188.94 (14.88%)
Average number of large shells per batch     ...    57.09 (64.36%)
Average number of large basis fcns per batch ...   122.65 (64.91%)
Maximum spatial batch extension              ...  21.25, 19.21, 13.75 au
Average spatial batch extension              ...   0.35,  0.36,  0.30 au

Time for grid setup =   11.836 sec

------------------------------
INITIAL GUESS: MODEL POTENTIAL
------------------------------
Loading Hartree-Fock densities                     ... done
Calculating cut-offs                               ... done
Setting up the integral package                    ... done
Initializing the effective Hamiltonian             ... done
Starting the Coulomb interaction                   ... done (   1.5 sec)
Reading the grid                                   ... done
Mapping shells                                     ... done
Starting the XC term evaluation                    ... done (   1.6 sec)
  promolecular density results
     # of electrons  =    549.983620409
     EX              =   -492.673874498
     EC              =    -18.858540894
     EX+EC           =   -511.532415392
Transforming the Hamiltonian                       ... done (   0.2 sec)
Diagonalizing the Hamiltonian                      ... done (   0.4 sec)
Back transforming the eigenvectors                 ... done (   0.1 sec)
Now organizing SCF variables                       ... done
                      ------------------
                      INITIAL GUESS DONE (  15.8 sec)
                      ------------------
--------------------
COSX GRID GENERATION
--------------------

General Integration Accuracy     IntAcc      ...  3.340
Radial Grid Type                 RadialGrid  ... Gauss-Chebyshev
Angular Grid (max. acc.)         AngularGrid ... Lebedev-50
Angular grid pruning method      GridPruning ... 3 (G Style)
Weight generation scheme         WeightScheme... Becke
Basis function cutoff            BFCut       ...    1.0000e-11
Integration weight cutoff        WCut        ...    1.0000e-14
Grids for H and He will be reduced by one unit

# of grid points (after initial pruning)     ...  56288 (   0.0 sec)
# of grid points (after weights+screening)   ...  50289 (   0.8 sec)
nearest neighbour list constructed           ...    0.0 sec
Grid point re-assignment to atoms done       ...    0.0 sec
Grid point division into batches done        ...    0.0 sec
Reduced shell lists constructed in    0.1 sec

Total number of grid points                  ...    50289
Total number of batches                      ...      839
Average number of points per batch           ...       59
Average number of grid points per atom       ...      449
Average number of shells per batch           ...   105.04 (18.30%)
Average number of basis functions per batch  ...   225.92 (17.79%)
Average number of large shells per batch     ...    67.65 (64.40%)
Average number of large basis fcns per batch ...   147.73 (65.39%)
Maximum spatial batch extension              ...  16.18, 17.56, 14.37 au
Average spatial batch extension              ...   0.77,  0.84,  0.53 au

Overlap Fitting                  UseSFitting ... on
Constructing numerical overlap ... done (      0.2 sec)
Inverting numerical overlap    ... done (      0.1 sec)
Obtaining analytic overlap     ... done (      0.0 sec)
Final contraction and storage  ... done (      0.5 sec)


General Integration Accuracy     IntAcc      ...  3.670
Radial Grid Type                 RadialGrid  ... Gauss-Chebyshev
Angular Grid (max. acc.)         AngularGrid ... Lebedev-50
Angular grid pruning method      GridPruning ... 3 (G Style)
Weight generation scheme         WeightScheme... Becke
Basis function cutoff            BFCut       ...    1.0000e-11
Integration weight cutoff        WCut        ...    1.0000e-14
Grids for H and He will be reduced by one unit

# of grid points (after initial pruning)     ...  70268 (   0.0 sec)
# of grid points (after weights+screening)   ...  62499 (   0.9 sec)
nearest neighbour list constructed           ...    0.0 sec
Grid point re-assignment to atoms done       ...    0.0 sec
Grid point division into batches done        ...    0.0 sec
Reduced shell lists constructed in    0.2 sec

Total number of grid points                  ...    62499
Total number of batches                      ...     1032
Average number of points per batch           ...       60
Average number of grid points per atom       ...      558
Average number of shells per batch           ...   103.41 (18.02%)
Average number of basis functions per batch  ...   222.31 (17.50%)
Average number of large shells per batch     ...    67.06 (64.85%)
Average number of large basis fcns per batch ...   146.52 (65.91%)
Maximum spatial batch extension              ...  17.64, 18.86, 15.34 au
Average spatial batch extension              ...   0.71,  0.77,  0.50 au

Overlap Fitting                  UseSFitting ... on
Constructing numerical overlap ... done (      0.2 sec)
Inverting numerical overlap    ... done (      0.1 sec)
Obtaining analytic overlap     ... done (      0.0 sec)
Final contraction and storage  ... done (      0.5 sec)


General Integration Accuracy     IntAcc      ...  4.010
Radial Grid Type                 RadialGrid  ... Gauss-Chebyshev
Angular Grid (max. acc.)         AngularGrid ... Lebedev-110
Angular grid pruning method      GridPruning ... 3 (G Style)
Weight generation scheme         WeightScheme... Becke
Basis function cutoff            BFCut       ...    1.0000e-11
Integration weight cutoff        WCut        ...    1.0000e-14
Grids for H and He will be reduced by one unit

# of grid points (after initial pruning)     ... 137320 (   0.0 sec)
# of grid points (after weights+screening)   ... 120924 (   2.0 sec)
nearest neighbour list constructed           ...    0.0 sec
Grid point re-assignment to atoms done       ...    0.0 sec
Grid point division into batches done        ...    0.1 sec
Reduced shell lists constructed in    0.3 sec

Total number of grid points                  ...   120924
Total number of batches                      ...     1947
Average number of points per batch           ...       62
Average number of grid points per atom       ...     1080
Average number of shells per batch           ...    98.39 (17.14%)
Average number of basis functions per batch  ...   211.31 (16.64%)
Average number of large shells per batch     ...    63.90 (64.95%)
Average number of large basis fcns per batch ...   138.73 (65.65%)
Maximum spatial batch extension              ...  24.08, 21.17, 16.79 au
Average spatial batch extension              ...   0.58,  0.60,  0.45 au

Overlap Fitting                  UseSFitting ... on
Constructing numerical overlap ... done (      0.4 sec)
Inverting numerical overlap    ... done (      0.1 sec)
Obtaining analytic overlap     ... done (      0.0 sec)
Final contraction and storage  ... done (      0.5 sec)

Time for X-Grid setup             =    7.106 sec
--------------
SCF ITERATIONS
--------------
ITER       Energy         Delta-E        Max-DP      RMS-DP      [F,P]     Damp
               ***  Starting incremental Fock matrix formation  ***
  0  -4251.4477890603   0.000000000000 0.07977936  0.00094116  0.2290847 0.7000
  1  -4252.0661019159  -0.618312855619 0.04636221  0.00066183  0.1159550 0.7000
                               ***Turning on DIIS***
  2  -4252.3336069081  -0.267504992175 0.09544404  0.00120010  0.0457925 0.0000
  3  -4252.7865003739  -0.452893465797 0.05388848  0.00046954  0.0603669 0.0000
  4  -4252.8585757193  -0.072075345417 0.01578996  0.00014016  0.0251470 0.0000
  5  -4252.8647301719  -0.006154452562 0.00582687  0.00005182  0.0063177 0.0000
                      *** Initiating the SOSCF procedure ***
                           *** Shutting down DIIS ***
                      *** Re-Reading the Fockian *** 
                      *** Removing any level shift *** 
ITER      Energy       Delta-E        Grad      Rot      Max-DP    RMS-DP
  6  -4252.86561118  -0.0008810083  0.002260  0.002260  0.002810  0.000030
               *** Restarting incremental Fock matrix formation ***
  7  -4252.86590486  -0.0002936752  0.001511  0.008198  0.002901  0.000031
  8  -4252.86613214  -0.0002272893  0.000500  0.007944  0.002929  0.000038
  9  -4252.86614954  -0.0000174000  0.000907  0.001868  0.001738  0.000012
 10  -4252.86619885  -0.0000493040  0.000289  0.000911  0.000717  0.000008
 11  -4252.86619900  -0.0000001517  0.000177  0.000484  0.000331  0.000004
 12  -4252.86620375  -0.0000047482  0.000048  0.000435  0.000174  0.000002
 13  -4252.86620370   0.0000000520  0.000033  0.000063  0.000081  0.000001
 14  -4252.86620405  -0.0000003499  0.000013  0.000087  0.000045  0.000000
 15  -4252.86620412  -0.0000000686  0.000008  0.000078  0.000020  0.000000
 16  -4252.86620412  -0.0000000035  0.000004  0.000049  0.000013  0.000000
 17  -4252.86620408   0.0000000424  0.000005  0.000005  0.000007  0.000000
                  ***Gradient check signals convergence***
              ***Rediagonalizing the Fockian in SOSCF/NRSCF***

               *****************************************************
               *                     SUCCESS                       *
               *           SCF CONVERGED AFTER  18 CYCLES          *
               *****************************************************

Setting up the final grid:

General Integration Accuracy     IntAcc      ...  5.010
Radial Grid Type                 RadialGrid  ... Gauss-Chebyshev
Angular Grid (max. acc.)         AngularGrid ... Lebedev-434
Angular grid pruning method      GridPruning ... 3 (G Style)
Weight generation scheme         WeightScheme... Becke
Basis function cutoff            BFCut       ...    1.0000e-11
Integration weight cutoff        WCut        ...    1.0000e-14
Grids for H and He will be reduced by one unit

# of grid points (after initial pruning)     ... 1064416 (   0.0 sec)
# of grid points (after weights+screening)   ... 905633 (  13.7 sec)
nearest neighbour list constructed           ...    0.0 sec
Grid point re-assignment to atoms done       ...    0.1 sec
Grid point division into batches done        ...    6.4 sec
Reduced shell lists constructed in    7.9 sec

Total number of grid points                  ...   905633
Total number of batches                      ...    14210
Average number of points per batch           ...       63
Average number of grid points per atom       ...     8086
Average number of shells per batch           ...    86.65 (15.09%)
Average number of basis functions per batch  ...   184.28 (14.51%)
Average number of large shells per batch     ...    55.80 (64.40%)
Average number of large basis fcns per batch ...   119.81 (65.01%)
Maximum spatial batch extension              ...  18.57, 18.91, 15.06 au
Average spatial batch extension              ...   0.28,  0.28,  0.25 au

Final grid set up in   22.2 sec
Final integration                            ... done (   3.3 sec)
Change in XC energy                          ...     0.000043130
Integrated number of electrons               ...   550.000021825
Previous integrated no of electrons          ...   550.000151229
Old exchange energy                            =   -138.192579319 Eh
New exchange energy                            =   -138.191246433 Eh
Exchange energy change after final integration =      0.001332887 Eh
Total energy after final integration           =  -4252.864828061 Eh
Final COS-X integration done in                =    67.581 sec

----------------
TOTAL SCF ENERGY
----------------

Total Energy       :        -4252.86482806 Eh         -115726.33538 eV

Components:
Nuclear Repulsion  :        11186.57256013 Eh          304402.11487 eV
Electronic Energy  :       -15439.43738819 Eh         -420128.45025 eV
One Electron Energy:       -28095.97440926 Eh         -764530.33165 eV
Two Electron Energy:        12656.53702107 Eh          344401.88140 eV

Virial components:
Potential Energy   :        -8473.50449778 Eh         -230575.77963 eV
Kinetic Energy     :         4220.63966972 Eh          114849.44425 eV
Virial Ratio       :            2.00763514


DFT components:
N(Alpha)           :      275.000010912617 electrons
N(Beta)            :      275.000010912617 electrons
N(Total)           :      550.000021825235 electrons
E(XC)              :     -382.091773760320 Eh       
DFET-embed. en.    :        0.000000000000 Eh       

---------------
SCF CONVERGENCE
---------------

  Last Energy change         ...   -1.8663e-09  Tolerance :   1.0000e-08
  Last MAX-Density change    ...    9.7700e-15  Tolerance :   1.0000e-07
  Last RMS-Density change    ...    3.7215e-17  Tolerance :   5.0000e-09
  Last Orbital Gradient      ...    1.8707e-06  Tolerance :   1.0000e-05
  Last Orbital Rotation      ...    2.5998e-06  Tolerance :   1.0000e-05

             **** THE GBW FILE WAS UPDATED (xtbopt.gbw) ****
             **** DENSITY FILE WAS UPDATED (xtbopt.scfp) ****
             **** ENERGY FILE WAS UPDATED (xtbopt.en.tmp) ****
             **** THE GBW FILE WAS UPDATED (xtbopt.gbw) ****
             **** DENSITY FILE WAS UPDATED (xtbopt.scfp) ****
----------------
ORBITAL ENERGIES
----------------

  NO   OCC          E(Eh)            E(eV) 
   0   2.0000     -88.978078     -2421.2166 
   1   2.0000     -88.970957     -2421.0228 
   2   2.0000     -24.803758      -674.9446 
   3   2.0000     -24.794973      -674.7055 
   4   2.0000     -24.793970      -674.6782 
   5   2.0000     -24.792939      -674.6502 
   6   2.0000     -24.791964      -674.6236 
   7   2.0000     -24.791097      -674.6000 
   8   2.0000     -19.218598      -522.9646 
   9   2.0000     -19.210926      -522.7559 
  10   2.0000     -14.419367      -392.3709 
  11   2.0000     -14.418456      -392.3461 
  12   2.0000     -14.412078      -392.1726 
  13   2.0000     -14.411218      -392.1492 
  14   2.0000     -14.381518      -391.3410 
  15   2.0000     -14.378335      -391.2544 
  16   2.0000     -10.519290      -286.2444 
  17   2.0000     -10.515414      -286.1390 
  18   2.0000     -10.370289      -282.1899 
  19   2.0000     -10.362318      -281.9730 
  20   2.0000     -10.347065      -281.5579 
  21   2.0000     -10.344226      -281.4807 
  22   2.0000     -10.339748      -281.3589 
  23   2.0000     -10.338606      -281.3278 
  24   2.0000     -10.328451      -281.0514 
  25   2.0000     -10.328153      -281.0433 
  26   2.0000     -10.326383      -280.9952 
  27   2.0000     -10.325390      -280.9682 
  28   2.0000     -10.321523      -280.8629 
  29   2.0000     -10.320834      -280.8442 
  30   2.0000     -10.319667      -280.8124 
  31   2.0000     -10.314683      -280.6768 
  32   2.0000     -10.314454      -280.6706 
  33   2.0000     -10.312391      -280.6144 
  34   2.0000     -10.311320      -280.5853 
  35   2.0000     -10.308370      -280.5050 
  36   2.0000     -10.306521      -280.4547 
  37   2.0000     -10.306043      -280.4417 
  38   2.0000     -10.305430      -280.4250 
  39   2.0000     -10.301628      -280.3215 
  40   2.0000     -10.301082      -280.3067 
  41   2.0000     -10.300842      -280.3002 
  42   2.0000     -10.300724      -280.2970 
  43   2.0000     -10.300103      -280.2801 
  44   2.0000     -10.299974      -280.2766 
  45   2.0000     -10.299016      -280.2505 
  46   2.0000     -10.298666      -280.2410 
  47   2.0000     -10.297807      -280.2176 
  48   2.0000     -10.295351      -280.1507 
  49   2.0000     -10.295236      -280.1476 
  50   2.0000     -10.295013      -280.1415 
  51   2.0000     -10.294639      -280.1314 
  52   2.0000     -10.294403      -280.1250 
  53   2.0000     -10.294072      -280.1159 
  54   2.0000     -10.292441      -280.0715 
  55   2.0000     -10.291896      -280.0567 
  56   2.0000     -10.289596      -279.9941 
  57   2.0000     -10.289074      -279.9799 
  58   2.0000     -10.288863      -279.9742 
  59   2.0000     -10.288620      -279.9676 
  60   2.0000     -10.288351      -279.9603 
  61   2.0000     -10.287909      -279.9482 
  62   2.0000     -10.286519      -279.9104 
  63   2.0000     -10.284221      -279.8479 
  64   2.0000     -10.283778      -279.8358 
  65   2.0000     -10.283533      -279.8292 
  66   2.0000     -10.282996      -279.8145 
  67   2.0000     -10.282357      -279.7971 
  68   2.0000     -10.279146      -279.7098 
  69   2.0000     -10.278160      -279.6830 
  70   2.0000     -10.276817      -279.6464 
  71   2.0000     -10.271788      -279.5096 
  72   2.0000     -10.270469      -279.4737 
  73   2.0000     -10.270373      -279.4710 
  74   2.0000     -10.268098      -279.4091 
  75   2.0000     -10.267996      -279.4064 
  76   2.0000     -10.267404      -279.3903 
  77   2.0000     -10.266207      -279.3577 
  78   2.0000      -8.074029      -219.7055 
  79   2.0000      -8.066530      -219.5015 
  80   2.0000      -6.043182      -164.4433 
  81   2.0000      -6.039094      -164.3321 
  82   2.0000      -6.036255      -164.2548 
  83   2.0000      -6.035720      -164.2403 
  84   2.0000      -6.031507      -164.1256 
  85   2.0000      -6.028825      -164.0527 
  86   2.0000      -1.387691       -37.7610 
  87   2.0000      -1.383498       -37.6469 
  88   2.0000      -1.293200       -35.1898 
  89   2.0000      -1.285924       -34.9918 
  90   2.0000      -1.283401       -34.9231 
  91   2.0000      -1.282533       -34.8995 
  92   2.0000      -1.135248       -30.8917 
  93   2.0000      -1.126270       -30.6474 
  94   2.0000      -1.021904       -27.8074 
  95   2.0000      -1.016497       -27.6603 
  96   2.0000      -1.011318       -27.5194 
  97   2.0000      -1.006052       -27.3761 
  98   2.0000      -1.001618       -27.2554 
  99   2.0000      -0.997244       -27.1364 
 100   2.0000      -0.995086       -27.0777 
 101   2.0000      -0.990553       -26.9543 
 102   2.0000      -0.989032       -26.9129 
 103   2.0000      -0.974551       -26.5189 
 104   2.0000      -0.969828       -26.3904 
 105   2.0000      -0.968632       -26.3578 
 106   2.0000      -0.955088       -25.9893 
 107   2.0000      -0.952913       -25.9301 
 108   2.0000      -0.930955       -25.3326 
 109   2.0000      -0.926719       -25.2173 
 110   2.0000      -0.920734       -25.0544 
 111   2.0000      -0.912616       -24.8336 
 112   2.0000      -0.903184       -24.5769 
 113   2.0000      -0.895418       -24.3656 
 114   2.0000      -0.884642       -24.0723 
 115   2.0000      -0.882392       -24.0111 
 116   2.0000      -0.879968       -23.9451 
 117   2.0000      -0.879191       -23.9240 
 118   2.0000      -0.878064       -23.8933 
 119   2.0000      -0.871420       -23.7125 
 120   2.0000      -0.859746       -23.3949 
 121   2.0000      -0.844314       -22.9750 
 122   2.0000      -0.840080       -22.8598 
 123   2.0000      -0.834565       -22.7097 
 124   2.0000      -0.831562       -22.6279 
 125   2.0000      -0.825742       -22.4696 
 126   2.0000      -0.823505       -22.4087 
 127   2.0000      -0.806210       -21.9381 
 128   2.0000      -0.793164       -21.5831 
 129   2.0000      -0.791104       -21.5270 
 130   2.0000      -0.774549       -21.0766 
 131   2.0000      -0.765441       -20.8287 
 132   2.0000      -0.765082       -20.8189 
 133   2.0000      -0.761379       -20.7182 
 134   2.0000      -0.756997       -20.5989 
 135   2.0000      -0.741062       -20.1653 
 136   2.0000      -0.726531       -19.7699 
 137   2.0000      -0.721838       -19.6422 
 138   2.0000      -0.717725       -19.5303 
 139   2.0000      -0.710125       -19.3235 
 140   2.0000      -0.705934       -19.2094 
 141   2.0000      -0.701517       -19.0893 
 142   2.0000      -0.699456       -19.0332 
 143   2.0000      -0.697711       -18.9857 
 144   2.0000      -0.693506       -18.8713 
 145   2.0000      -0.693198       -18.8629 
 146   2.0000      -0.685090       -18.6422 
 147   2.0000      -0.683008       -18.5856 
 148   2.0000      -0.679685       -18.4952 
 149   2.0000      -0.673224       -18.3194 
 150   2.0000      -0.669115       -18.2075 
 151   2.0000      -0.668211       -18.1829 
 152   2.0000      -0.665864       -18.1191 
 153   2.0000      -0.663804       -18.0630 
 154   2.0000      -0.661281       -17.9944 
 155   2.0000      -0.650548       -17.7023 
 156   2.0000      -0.647966       -17.6320 
 157   2.0000      -0.640387       -17.4258 
 158   2.0000      -0.635640       -17.2966 
 159   2.0000      -0.634798       -17.2737 
 160   2.0000      -0.629147       -17.1200 
 161   2.0000      -0.619454       -16.8562 
 162   2.0000      -0.610766       -16.6198 
 163   2.0000      -0.608443       -16.5566 
 164   2.0000      -0.604892       -16.4599 
 165   2.0000      -0.604114       -16.4388 
 166   2.0000      -0.599339       -16.3088 
 167   2.0000      -0.587417       -15.9844 
 168   2.0000      -0.584934       -15.9169 
[...]
   2   2.220     558.5   0.041393   0.046803  -16.958267  -0.788227     0.65 ( 103-> 104)    0.17 ( 103-> 105)    0.11 ( 103-> 106)
   3   2.769     447.8   0.642493   0.666246  -192.524202  -169.726281     0.81 ( 101-> 104)    0.03 (  91-> 104)    0.02 ( 101-> 107)
   4   2.902     427.2   0.485731   0.494225  216.636448  214.673823     0.84 ( 102-> 105)    0.03 ( 103-> 106)    0.02 ( 101-> 104)
   5   3.271     379.0   0.053155   0.053022  11.210426   2.189719     0.89 (  99-> 104)    0.02 ( 103-> 107)    0.02 ( 101-> 104)
   6   3.293     376.5   0.060204   0.056804  -1.426348   7.756584     0.41 ( 103-> 108)    0.27 ( 100-> 105)    0.07 ( 102-> 108)
   7   3.326     372.7   0.015923   0.016370  -13.745187  -18.932778     0.58 ( 103-> 107)    0.10 ( 103-> 109)    0.06 ( 100-> 105)
   8   3.381     366.7   0.387498   0.370812  -76.211522  -76.429266     0.49 ( 100-> 105)    0.28 ( 103-> 108)    0.04 (  98-> 106)
   9   3.425     362.0   0.024543   0.022864  -51.931297  -52.292388     0.26 (  98-> 105)    0.21 ( 102-> 106)    0.20 (  98-> 106)
  10   3.478     356.4   0.139564   0.132883  -49.350899  -54.468512     0.26 ( 101-> 107)    0.18 (  91-> 104)    0.08 (  91-> 107)
  11   3.538     350.5   0.029468   0.028162  -31.811969  -27.969139     0.20 ( 102-> 106)    0.16 (  96-> 105)    0.09 (  98-> 105)
  12   3.569     347.4   0.138669   0.123100  -6.388753  -7.979215     0.22 (  96-> 105)    0.14 ( 102-> 106)    0.11 (  93-> 105)
  13   3.591     345.2   0.039976   0.038180  -84.351692  -88.964917     0.47 (  95-> 104)    0.22 (  99-> 107)    0.05 (  91-> 104)
  14   3.604     344.0   0.007291   0.005307  -10.408662  -6.723338     0.45 ( 101-> 106)    0.36 ( 101-> 105)    0.02 (  99-> 106)
  15   3.697     335.3   0.050275   0.046542  51.991446  48.474915     0.41 ( 103-> 109)    0.12 ( 103-> 107)    0.11 ( 103-> 111)
  16   3.722     333.1   0.070405   0.064543  -9.885104  -7.869629     0.20 (  93-> 105)    0.15 (  96-> 105)    0.14 ( 100-> 108)
  17   3.785     327.5   0.004296   0.004081  -5.285745  -4.480000     0.42 (  97-> 106)    0.41 (  97-> 105)    0.07 (  98-> 106)
  18   3.799     326.4   0.400708   0.366097  -115.220364  -122.775637     0.39 ( 101-> 107)    0.23 (  91-> 104)    0.08 (  95-> 104)
  19   3.907     317.4   0.031983   0.029001   7.682688   9.498408     0.81 ( 102-> 104)    0.04 ( 103-> 110)    0.02 ( 100-> 104)
  20   3.943     314.4   0.166046   0.155393  14.828305  16.453709     0.49 ( 103-> 110)    0.14 ( 103-> 112)    0.09 ( 102-> 106)
  21   4.128     300.3   0.399249   0.357946  -189.029042  -192.342724     0.61 ( 102-> 108)    0.08 ( 103-> 108)    0.03 (  92-> 108)
  22   4.142     299.3   0.005593   0.005223  30.396540  28.701838     0.62 (  98-> 104)    0.30 (  97-> 104)    0.01 ( 102-> 104)
  23   4.155     298.4   0.729757   0.672168  269.728362  252.928516     0.54 (  99-> 107)    0.28 (  95-> 104)    0.03 ( 101-> 107)
  24   4.173     297.1   0.423645   0.394436  138.024063  136.146772     0.26 ( 100-> 108)    0.23 (  96-> 105)    0.15 (  93-> 108)
  25   4.271     290.3   0.184453   0.161379  -40.516351  -51.302487     0.27 (  94-> 105)    0.12 (  90-> 105)    0.11 (  98-> 106)
  26   4.296     288.6   0.099145   0.088172  -6.250350   1.843848     0.18 (  93-> 108)    0.15 ( 100-> 108)    0.10 (  92-> 108)
  27   4.310     287.7   0.093756   0.081692  -35.377885  -39.323807     0.19 (  90-> 105)    0.14 (  98-> 105)    0.13 (  98-> 106)
  28   4.345     285.4   0.022825   0.019118  -102.914495  -84.542244     0.27 (  91-> 107)    0.15 (  88-> 107)    0.12 (  91-> 104)
  29   4.347     285.2   0.030226   0.025277  65.580120  59.472036     0.18 (  94-> 105)    0.15 (  90-> 105)    0.07 (  91-> 107)
  30   4.393     282.2   0.017405   0.011925  21.881311  17.205285     0.53 (  88-> 104)    0.14 (  91-> 104)    0.11 (  89-> 104)
  31   4.404     281.5   0.002972   0.002509   2.506560   2.604901     0.54 ( 101-> 105)    0.33 ( 101-> 106)    0.01 (  99-> 106)
  32   4.454     278.3   0.000704   0.000607   0.724152   0.467386     0.65 (  97-> 104)    0.29 (  98-> 104)    0.02 ( 100-> 104)
  33   4.487     276.3   0.011681   0.009346  -7.587607  -6.876849     0.11 (  92-> 105)    0.10 (  93-> 105)    0.08 (  92-> 106)
  34   4.626     268.0   0.022646   0.019192  -39.723057  -38.586277     0.13 ( 100-> 104)    0.11 ( 100-> 106)    0.10 (  94-> 105)
  35   4.638     267.3   0.017417   0.014469  36.623357  33.872840     0.61 ( 100-> 104)    0.07 (  97-> 105)    0.06 (  97-> 106)
  36   4.652     266.5   0.013610   0.011854  31.048136  28.304009     0.28 (  97-> 105)    0.26 (  97-> 106)    0.05 ( 100-> 106)
  37   4.665     265.8   0.256838   0.216979  -70.995801  -67.710744     0.19 (  89-> 104)    0.13 (  88-> 104)    0.10 ( 103-> 111)
  38   4.677     265.1   0.003234   0.002339  18.720307  18.221420     0.34 ( 103-> 111)    0.14 ( 100-> 106)    0.10 ( 103-> 109)
  39   4.721     262.6   0.002123   0.002162  -9.450622  -9.112958     0.39 ( 103-> 112)    0.16 ( 103-> 110)    0.06 (  90-> 105)
  40   4.786     259.1   0.025124   0.019993  12.092909  13.067190     0.24 (  99-> 105)    0.11 ( 100-> 106)    0.11 (  94-> 106)
  41   4.808     257.9   0.003507   0.002701  -3.874492  -2.436949     0.57 (  99-> 105)    0.08 (  99-> 106)    0.04 (  94-> 106)
  42   4.862     255.0   0.066850   0.053748  109.114826  101.892800     0.29 (  94-> 104)    0.27 ( 101-> 109)    0.06 (  93-> 104)
  43   4.882     253.9   0.170862   0.147441  788.036137  719.256565     0.27 (  96-> 108)    0.15 ( 100-> 106)    0.09 (  87-> 105)
  44   4.922     251.9   0.611035   0.497475  -961.412079  -868.117060     0.39 ( 101-> 109)    0.24 (  95-> 107)    0.06 (  94-> 104)
  45   4.965     249.7   0.164273   0.141731  -52.192728  -50.972041     0.32 (  95-> 107)    0.13 (  89-> 104)    0.11 (  94-> 104)

-----------------------------------------------------------------------------
         ABSORPTION SPECTRUM VIA TRANSITION ELECTRIC DIPOLE MOMENTS
-----------------------------------------------------------------------------
State   Energy  Wavelength   fosc         T2         TX        TY        TZ  
        (cm-1)    (nm)                  (au**2)     (au)      (au)      (au) 
-----------------------------------------------------------------------------
   0   13835.3    722.8   0.050021818   1.19027   0.73920   0.77276   0.21609
   1   17708.3    564.7   0.459873362   8.54942   0.23224  -1.46140  -2.52187
   2   17904.8    558.5   0.041392536   0.76108  -0.05289  -0.37312   0.78680
   3   22331.2    447.8   0.642493473   9.47177   0.06482  -2.95579  -0.85490
   4   23407.1    427.2   0.485731428   6.83161   0.34583   1.16110   2.31600
   5   26382.7    379.0   0.053154917   0.66329  -0.54651  -0.46552  -0.38458
   6   26560.3    376.5   0.060203545   0.74622   0.15224  -0.41337  -0.74308
   7   26829.4    372.7   0.015923329   0.19539  -0.19026  -0.03415  -0.39752
   8   27268.0    366.7   0.387497948   4.67835  -0.18947  -0.42056  -2.11319
   9   27625.1    362.0   0.024543362   0.29249  -0.48414   0.23292   0.06201
  10   28055.6    356.4   0.139564236   1.63768   0.07667  -1.25004  -0.26308
  11   28532.7    350.5   0.029467822   0.34000  -0.16220  -0.37418  -0.41675
  12   28786.5    347.4   0.138669298   1.58587  -0.14400   0.16071   1.24069
  13   28966.1    345.2   0.039976412   0.45435   0.33041  -0.46308   0.36157
  14   29068.3    344.0   0.007291030   0.08257  -0.13414   0.07597  -0.24251
  15   29820.9    335.3   0.050275165   0.55502  -0.13459  -0.00580   0.73272
  16   30021.2    333.1   0.070405497   0.77207   0.09187   0.02436   0.87352
  17   30530.2    327.5   0.004296330   0.04633   0.03931  -0.20179   0.06376
  18   30640.9    326.4   0.400708430   4.30529   0.95093   1.34343   1.26341
  19   31508.6    317.4   0.031983004   0.33417   0.00312   0.11327   0.56686
  20   31802.2    314.4   0.166046495   1.71889  -0.29314  -0.27297  -1.24838
  21   33295.0    300.3   0.399249150   3.94767  -0.20432   0.00693   1.97633
  22   33408.5    299.3   0.005592788   0.05511   0.23059   0.04231   0.01224
  23   33514.1    298.4   0.729757433   7.16846  -2.02197  -0.83742  -1.54234
  24   33661.2    297.1   0.423644847   4.14332  -0.36274  -0.49180   1.94162
  25   34446.0    290.3   0.184453000   1.76288  -0.13171   0.09123  -1.31803
  26   34648.6    288.6   0.099145471   0.94203  -0.04520  -0.09165   0.96519
  27   34760.1    287.7   0.093755533   0.88796  -0.35006  -0.00644  -0.87485
  28   35041.7    285.4   0.022824617   0.21443   0.00381  -0.07032   0.45768
  29   35059.4    285.2   0.030225644   0.28382  -0.43323  -0.30856   0.03033
  30   35432.6    282.2   0.017404622   0.16171  -0.12879  -0.08005   0.37244
  31   35520.0    281.5   0.002971556   0.02754   0.06893  -0.04118  -0.14524
  32   35926.0    278.3   0.000703818   0.00645  -0.06439  -0.04726  -0.00834
  33   36187.6    276.3   0.011681405   0.10627  -0.23498  -0.09307  -0.20590
  34   37311.2    268.0   0.022645884   0.19981   0.06277   0.08726  -0.43389
  35   37408.2    267.3   0.017416917   0.15328   0.24970   0.30101  -0.01789
  36   37519.5    266.5   0.013610075   0.11942   0.23407   0.24875  -0.05250
  37   37624.8    265.8   0.256837513   2.24729  -0.71881  -0.94678  -0.91336
  38   37719.7    265.1   0.003233664   0.02822  -0.00780  -0.16779  -0.00284
  39   38077.8    262.6   0.002123060   0.01836  -0.08189   0.01089  -0.10738
  40   38599.9    259.1   0.025124165   0.21428   0.18075  -0.19033  -0.38129
  41   38780.1    257.9   0.003506727   0.02977   0.10820  -0.05274  -0.12361
  42   39213.8    255.0   0.066849632   0.56122  -0.34036   0.46357   0.48009
  43   39379.5    253.9   0.170862112   1.42840  -0.72001   0.24323   0.92240
  44   39694.6    251.9   0.611034527   5.06769   0.42071  -2.21036  -0.07079
  45   40041.9    249.7   0.164273167   1.35060   0.13698  -1.14464  -0.14707

-----------------------------------------------------------------------------
         ABSORPTION SPECTRUM VIA TRANSITION VELOCITY DIPOLE MOMENTS
-----------------------------------------------------------------------------
State   Energy  Wavelength   fosc         P2         PX        PY        PZ  
        (cm-1)    (nm)                  (au**2)     (au)      (au)      (au) 
-----------------------------------------------------------------------------
   0   13835.3    722.8   0.048925332   0.00463   0.04274   0.04971   0.01812
   1   17708.3    564.7   0.517147620   0.06259   0.01651  -0.12630  -0.21532
   2   17904.8    558.5   0.046803025   0.00573  -0.00174  -0.02994   0.06948
   3   22331.2    447.8   0.666246219   0.10168   0.01324  -0.30741  -0.08372
   4   23407.1    427.2   0.494225003   0.07906   0.03696   0.12367   0.24981
   5   26382.7    379.0   0.053021606   0.00956  -0.06653  -0.05353  -0.04762
   6   26560.3    376.5   0.056803806   0.01031   0.01552  -0.04979  -0.08713
   7   26829.4    372.7   0.016370017   0.00300  -0.02165  -0.00362  -0.05020
   8   27268.0    366.7   0.370812133   0.06911  -0.02292  -0.04946  -0.25717
   9   27625.1    362.0   0.022864407   0.00432  -0.05729   0.03114   0.00803
  10   28055.6    356.4   0.132883491   0.02548   0.00644  -0.15633  -0.03163
  11   28532.7    350.5   0.028161518   0.00549  -0.02236  -0.04761  -0.05220
  12   28786.5    347.4   0.123100326   0.02422  -0.01834   0.01944   0.15331
  13   28966.1    345.2   0.038179654   0.00756   0.04095  -0.06121   0.04621
  14   29068.3    344.0   0.005306794   0.00105  -0.01626   0.01166  -0.02557
  15   29820.9    335.3   0.046542213   0.00949  -0.01819  -0.00120   0.09567
  16   30021.2    333.1   0.064542549   0.01324   0.01299   0.00265   0.11431
  17   30530.2    327.5   0.004080828   0.00085   0.00565  -0.02756   0.00776
  18   30640.9    326.4   0.366096992   0.07667   0.12702   0.17808   0.16976
  19   31508.6    317.4   0.029000555   0.00625   0.00181   0.01517   0.07753
  20   31802.2    314.4   0.155393457   0.03378  -0.04192  -0.03704  -0.17506
  21   33295.0    300.3   0.357945579   0.08145  -0.03139  -0.00005   0.28367
  22   33408.5    299.3   0.005223374   0.00119   0.03388   0.00632   0.00220
  23   33514.1    298.4   0.672168011   0.15396  -0.29638  -0.12224  -0.22623
  24   33661.2    297.1   0.394435776   0.09074  -0.05214  -0.07315   0.28753
  25   34446.0    290.3   0.161378772   0.03799  -0.01467   0.01308  -0.19392
  26   34648.6    288.6   0.088172085   0.02088  -0.00260  -0.01389   0.14381
  27   34760.1    287.7   0.081691771   0.01941  -0.04878  -0.00161  -0.13048
  28   35041.7    285.4   0.019118036   0.00458   0.00364  -0.00808   0.06708
  29   35059.4    285.2   0.025276901   0.00606  -0.06246  -0.04625   0.00408
  30   35432.6    282.2   0.011924650   0.00289  -0.01756  -0.01025   0.04974
  31   35520.0    281.5   0.002508913   0.00061   0.00936  -0.00658  -0.02187
  32   35926.0    278.3   0.000607103   0.00015  -0.00961  -0.00732  -0.00176
  33   36187.6    276.3   0.009345529   0.00231  -0.03472  -0.01287  -0.03067
  34   37311.2    268.0   0.019191859   0.00489   0.01102   0.01424  -0.06760
  35   37408.2    267.3   0.014468618   0.00370   0.03818   0.04724  -0.00302
  36   37519.5    266.5   0.011853797   0.00304   0.03785   0.03929  -0.00793
  37   37624.8    265.8   0.216979468   0.05580  -0.11288  -0.14929  -0.14411
  38   37719.7    265.1   0.002338582   0.00060   0.00032  -0.02451   0.00142
  39   38077.8    262.6   0.002162442   0.00056  -0.01359   0.00237  -0.01930
  40   38599.9    259.1   0.019993266   0.00527   0.02649  -0.03079  -0.06021
  41   38780.1    257.9   0.002700795   0.00072   0.01570  -0.00861  -0.01988
  42   39213.8    255.0   0.053747970   0.01440  -0.05426   0.07001   0.08099
  43   39379.5    253.9   0.147440718   0.03968  -0.12289   0.03543   0.15272
  44   39694.6    251.9   0.497474815   0.13496   0.06775  -0.36085  -0.01256
  45   40041.9    249.7   0.141730835   0.03879   0.02406  -0.19425  -0.02176

-------------------------------------------------------------------
                             CD SPECTRUM
-------------------------------------------------------------------
State   Energy Wavelength       R         MX        MY        MZ   
        (cm-1)   (nm)       (1e40*cgs)   (au)      (au)      (au)  
-------------------------------------------------------------------
   0   13835.3    722.8     30.49253  -0.83329   0.46328   0.59513
   1   17708.3    564.7     79.12505   2.82231   0.58152   0.05603
   2   17904.8    558.5    -16.95827  -1.83458  -0.23410  -0.14290
   3   22331.2    447.8    -192.52420  -1.53344  -0.21442  -0.33028
   4   23407.1    427.2    216.63645  -5.33429  -0.11921   0.45946
   5   26382.7    379.0     11.21043   0.85985   0.92321  -2.21575
   6   26560.3    376.5     -1.42635   1.53699   0.84492  -0.16329
   7   26829.4    372.7    -13.74519   0.97240   0.20656  -0.62984
   8   27268.0    366.7    -76.21152   3.05212   0.29716  -0.48579
   9   27625.1    362.0    -51.93130  -0.25117   0.76121  -1.26747
  10   28055.6    356.4    -49.35090  -1.09777  -0.21851  -0.07747
  11   28532.7    350.5    -31.81197   0.77779  -0.14596  -0.49549
  12   28786.5    347.4     -6.38875  -1.44780  -0.70679  -0.05464
  13   28966.1    345.2    -84.35169  -1.76255  -0.89991   1.44778
  14   29068.3    344.0    -10.40866   0.74612   0.19276  -0.53440
  15   29820.9    335.3     51.99145  -1.21274  -0.25563  -0.52581
  16   30021.2    333.1     -9.88510  -0.99861  -0.08488   0.15540
  17   30530.2    327.5     -5.28574  -0.30112  -0.05809   0.35351
  18   30640.9    326.4    -115.22036  -2.64699  -2.07710   4.58785
  19   31508.6    317.4      7.68269  -0.98018  -0.10267  -0.03159
  20   31802.2    314.4     14.82831   2.29884   0.46893  -0.59195
  21   33295.0    300.3    -189.02904  -3.77205  -0.86222   0.01882
  22   33408.5    299.3     30.39654  -0.54693  -0.39009   1.11748
  23   33514.1    298.4    269.72836   7.04017   4.40446 -10.87903
  24   33661.2    297.1    138.02406  -1.36148  -0.82835  -0.76574
  25   34446.0    290.3    -40.51635   1.90203   0.23599  -0.30414
  26   34648.6    288.6     -6.25035  -1.28417  -0.50512  -0.08063
  27   34760.1    287.7    -35.37788   1.18738   0.06076  -0.64712
  28   35041.7    285.4    -102.91450  -1.56942  -0.84526   0.83711
  29   35059.4    285.2     65.58012   0.31278   0.33018  -1.34575
  30   35432.6    282.2     21.88131  -1.36174   0.26603  -0.66295
  31   35520.0    281.5      2.50656   0.18711  -0.00469   0.16334
  32   35926.0    278.3      0.72415   0.01811   0.09441  -0.30635
  33   36187.6    276.3     -7.58761   0.26887  -0.06118  -0.43552
  34   37311.2    268.0    -39.72306   0.97778   0.55009  -0.13630
  35   37408.2    267.3     36.62336  -0.16657  -0.30054   1.30301
  36   37519.5    266.5     31.04814  -0.17633  -0.11158   1.19404
  37   37624.8    265.8    -70.99580   2.95926   1.71721  -4.43873
  38   37719.7    265.1     18.72031   0.03234   0.48778  -0.94512
  39   38077.8    262.6     -9.45062  -0.39330  -0.12924  -0.08654
  40   38599.9    259.1     12.09291   0.85077  -0.12516   0.60032
  41   38780.1    257.9     -3.87449   0.49530  -0.21900   0.39403
  42   39213.8    255.0    109.11483  -0.19808  -0.18043  -0.93038
  43   39379.5    253.9    788.03614   1.26280  -2.20653  -2.05674
  44   39694.6    251.9    -961.41208  -3.90388  -2.69691   3.39274
  45   40041.9    249.7    -52.19273  -2.25166  -0.61212   1.16138

sTD-DFT done

Total run time:        4.169 sec

           *** ORCA-CIS/TD-DFT FINISHED WITHOUT ERROR ***

-------------------------   --------------------
FINAL SINGLE POINT ENERGY     -4252.864828061308
-------------------------   --------------------


                            ***************************************
                            *     ORCA property calculations      *
                            ***************************************

                                    ---------------------
                                    Active property flags
                                    ---------------------
   (+) Dipole Moment


------------------------------------------------------------------------------
                       ORCA ELECTRIC PROPERTIES CALCULATION
------------------------------------------------------------------------------

Dipole Moment Calculation                       ... on
Quadrupole Moment Calculation                   ... off
Polarizability Calculation                      ... off
GBWName                                         ... xtbopt.gbw
Electron density file                           ... xtbopt.scfp
The origin for moment calculation is the CENTER OF MASS  = (-1.802312, 20.892078  1.010694)

-------------
DIPOLE MOMENT
-------------
                                X             Y             Z
Electronic contribution:    -45.82034       4.42502      16.02736
Nuclear contribution   :     49.09313      -3.60005     -14.96206
                        -----------------------------------------
Total Dipole Moment    :      3.27279       0.82496       1.06530
                        -----------------------------------------
Magnitude (a.u.)       :      3.53930
Magnitude (Debye)      :      8.99618



--------------------
Rotational spectrum 
--------------------
 
Rotational constants in cm-1:     0.001815     0.000185     0.000179 
Rotational constants in MHz :    54.398926     5.533298     5.372874 

 Dipole components along the rotational axes: 
x,y,z [a.u.] :     1.488059     0.457994    -3.178449 
x,y,z [Debye]:     3.782345     1.164129    -8.078975 

 

Timings for individual modules:

Sum of individual times         ...      737.395 sec (=  12.290 min)
GTO integral calculation        ...        7.992 sec (=   0.133 min)   1.1 %
SCF iterations                  ...      724.485 sec (=  12.075 min)  98.2 %
CIS module                      ...        4.918 sec (=   0.082 min)   0.7 %
                             ****ORCA TERMINATED NORMALLY****
TOTAL RUN TIME: 0 days 0 hours 12 minutes 18 seconds 453 msec
