
                                 *****************
                                 * O   R   C   A *
                                 *****************

           --- An Ab Initio, DFT and Semiempirical electronic structure package ---

                  #######################################################
                  #                        -***-                        #
                  #          Department of theory and spectroscopy      #
                  #               Directorship: Frank Neese             #
                  #        Max Planck Institute fuer Kohlenforschung    #
                  #                Kaiser Wilhelm Platz 1               #
                  #                 D-45470 Muelheim/Ruhr               #
                  #                      Germany                        #
                  #                                                     #
                  #                  All rights reserved                #
                  #                        -***-                        #
                  #######################################################


                         Program Version 4.2.0 -  RELEASE  -


 With contributions from (in alphabetic order):
   Daniel Aravena         : Magnetic Suceptibility
   Michael Atanasov       : Ab Initio Ligand Field Theory (pilot matlab implementation)
   Alexander A. Auer      : GIAO ZORA, VPT2
   Ute Becker             : Parallelization
   Giovanni Bistoni       : ED, misc. LED, open-shell LED, HFLED
   Martin Brehm           : Molecular dynamics
   Dmytro Bykov           : SCF Hessian
   Vijay G. Chilkuri      : MRCI spin determinant printing, contributions to CSF-ICE
   Dipayan Datta          : RHF DLPNO-CCSD density
   Achintya Kumar Dutta   : EOM-CC, STEOM-CC
   Dmitry Ganyushin       : Spin-Orbit,Spin-Spin,Magnetic field MRCI
   Miquel Garcia          : C-PCM Hessian, Gaussian charge scheme
   Yang Guo               : DLPNO-NEVPT2, CIM, IAO-localization
   Andreas Hansen         : Spin unrestricted coupled pair/coupled cluster methods
   Benjamin Helmich-Paris : CASSCF linear response (MC-RPA)
   Lee Huntington         : MR-EOM, pCC
   Robert Izsak           : Overlap fitted RIJCOSX, COSX-SCS-MP3, EOM
   Christian Kollmar      : KDIIS, OOCD, Brueckner-CCSD(T), CCSD density
   Simone Kossmann        : Meta GGA functionals, TD-DFT gradient, OOMP2, MP2 Hessian
   Martin Krupicka        : AUTO-CI
   Lucas Lang             : DCDCAS
   Dagmar Lenk            : GEPOL surface, SMD
   Dimitrios Liakos       : Extrapolation schemes; Compound Job, initial MDCI parallelization
   Dimitrios Manganas     : Further ROCIS development; embedding schemes
   Dimitrios Pantazis     : SARC Basis sets
   Taras Petrenko         : DFT Hessian,TD-DFT gradient, ASA, ECA, R-Raman, ABS, FL, XAS/XES, NRVS
   Peter Pinski           : DLPNO-MP2, DLPNO-MP2 Gradient
   Christoph Reimann      : Effective Core Potentials
   Marius Retegan         : Local ZFS, SOC
   Christoph Riplinger    : Optimizer, TS searches, QM/MM, DLPNO-CCSD(T), (RO)-DLPNO pert. Triples
   Tobias Risthaus        : Range-separated hybrids, TD-DFT gradient, RPA, STAB
   Michael Roemelt        : Original ROCIS implementation
   Masaaki Saitow         : Open-shell DLPNO-CCSD energy and density
   Barbara Sandhoefer     : DKH picture change effects
   Avijit Sen             : IP-ROCIS
   Kantharuban Sivalingam : CASSCF convergence, NEVPT2, FIC-MRCI
   Bernardo de Souza      : ESD, SOC TD-DFT
   Georgi Stoychev        : AutoAux, RI-MP2 NMR
   Willem Van den Heuvel  : Paramagnetic NMR
   Boris Wezisla          : Elementary symmetry handling
   Frank Wennmohs         : Technical directorship


 We gratefully acknowledge several colleagues who have allowed us to
 interface, adapt or use parts of their codes:
   Stefan Grimme, W. Hujo, H. Kruse,             : VdW corrections, initial TS optimization,
                  C. Bannwarth                     DFT functionals, gCP, sTDA/sTD-DF
   Ed Valeev, F. Pavosevic, A. Kumar             : LibInt (2-el integral package), F12 methods
   Garnet Chan, S. Sharma, J. Yang, R. Olivares  : DMRG
   Ulf Ekstrom                                   : XCFun DFT Library
   Mihaly Kallay                                 : mrcc  (arbitrary order and MRCC methods)
   Andreas Klamt, Michael Diedenhofen            : otool_cosmo (COSMO solvation model)
   Jiri Pittner, Ondrej Demel                    : Mk-CCSD
   Frank Weinhold                                : gennbo (NPA and NBO analysis)
   Christopher J. Cramer and Donald G. Truhlar   : smd solvation model
   Lars Goerigk                                  : TD-DFT with DH, B97 family of functionals
   V. Asgeirsson, H. Jonsson                     : NEB implementation
   FAccTs GmbH                                   : IRC, NEB, NEB-TS, Multilevel, MM, QM/MM, CI optimization
   S Lehtola, MJT Oliveira, MAL Marques          : LibXC Library


 Your calculation uses the libint2 library for the computation of 2-el integrals
 For citations please refer to: http://libint.valeyev.net

 Your ORCA version has been built with support for libXC version: 4.2.3
 For citations please refer to: https://tddft.org/programs/libxc/

 This ORCA versions uses:
   CBLAS   interface :  Fast vector & matrix operations
   LAPACKE interface :  Fast linear algebra routines
   SCALAPACK package :  Parallel linear algebra routines


XCFun DFT library Copyright 2009-2010 Ulf Ekstrom and contributors.
See http://admol.org/xcfun for more information. This is free soft-
ware; see the source code for copying conditions. There is ABSOLUTELY
NO WARRANTY; not even for MERCHANTABILITY or FITNESS FOR A PARTICULAR
PURPOSE. For details see the documentation. Scientific users of this 
library should cite U. Ekstrom, L. Visscher, R. Bast, A. J. Thorvald-
sen and K. Ruud; J.Chem.Theor.Comp. 2010, DOI: 10.1021/ct100117s
XCFun Version 0.99 
----- Orbital basis set information -----
Your calculation utilizes the basis: def2-SVP
   F. Weigend and R. Ahlrichs, Phys. Chem. Chem. Phys. 7, 3297 (2005).

----- AuxJ basis set information -----
Your calculation utilizes the auxiliary basis: def2/J
   F. Weigend, Phys. Chem. Chem. Phys. 8, 1057 (2006).

================================================================================
                                        WARNINGS
                       Please study these warnings very carefully!
================================================================================

INFO   : Checking CIS options ...

WARNING: CIS/ROCIS methods need fully converged wavefunctions
  ===> : Setting SCFConvForced true
         You can overwrite this default with %scf ConvForced false 


INFO   : the flag for use of LIBINT has been found!

================================================================================
                                       INPUT FILE
================================================================================
NAME = 90_30_28_30_90.inp
|  1> # ORCA input file
|  2> # SCF done       -265.071281848884          0.000684219799
|  3> ! CAM-B3LYP def2-SVP def2/J RIJCOSX Grid4 TightSCF
|  4> %maxcore 5000
|  5> %tddft
|  6>     Mode sTDDFT
|  7>     Ethresh 5.0
|  8>     maxcore 5000
|  9> end
| 10> 
| 11> %pal
| 12>   nprocs 6
| 13>   end
| 14> * xyz 0 1
| 15>    C        4.10984         3.66899         3.08302
| 16>    C        4.48641         4.93857         3.44021
| 17>    C        4.80288         5.32923         4.75521
| 18>    N        5.02855         5.71501         5.81312
| 19>    C        4.65190         5.97973         2.50522
| 20>    N        4.83700         6.84576         1.77469
| 21>    C        4.22527         2.48719         3.93066
| 22>    C        4.23227         1.33278         3.09417
| 23>    C        4.37930         0.07715         3.60774
| 24>    C        4.51294        -0.08465         5.00565
| 25>    C        4.48636         1.06391         5.84836
| 26>    C        4.34451         2.35430         5.28741
| 27>    C        4.60957         0.88664         7.24127
| 28>    C        4.75636        -0.36342         7.77806
| 29>    C        4.78611        -1.49331         6.94739
| 30>    C        4.66739        -1.35664         5.59084
| 31>    C        4.04483         1.74669         1.69106
| 32>    O        4.04481         1.05110         0.70165
| 33>    C        3.78636         3.21431         1.74881
| 34>    C        3.20562         3.81971         0.67601
| 35>    C        2.50431         5.04679         0.60583
| 36>    C        1.96769         5.80720         1.61796
| 37>    C        1.25223         6.93177         1.17088
| 38>    C        0.61428         7.91291         1.96679
| 39>    C        0.78357         7.91723         3.40239
| 40>    C        1.93671         7.68684         4.10252
| 41>    C        1.76994         7.76676         5.49792
| 42>    C        0.49293         8.05542         5.87171
| 43>    S       -0.53591         8.25229         4.48820
| 44>    C       -0.05466         8.21518         7.24393
| 45>    C       -0.13830         8.85957         1.28914
| 46>    C       -0.21463         8.91315        -0.12728
| 47>    C        0.51340         8.00007        -0.92785
| 48>    C        1.20073         7.00250        -0.24608
| 49>    S        2.10302         5.70371        -0.96925
| 50>    C        0.52597         8.12626        -2.36599
| 51>    C        0.56551         9.27649        -3.10901
| 52>    C        0.56195         9.04494        -4.49616
| 53>    C        0.51351         7.72400        -4.82557
| 54>    S        0.48966         6.72833        -3.40752
| 55>    C        0.48704         7.10921        -6.17749
| 56>    C       -1.09078         9.92384        -0.56335
| 57>    C       -1.64113        10.66390         0.45587
| 58>    S       -1.09128        10.11957         2.02616
| 59>    C       -2.57550        11.73934         0.37139
| 60>    C       -3.09222        12.27033        -0.83477
| 61>    C       -4.09377        13.30883        -0.85351
| 62>    N       -4.55925        13.74288        -2.04423
| 63>    C       -4.10214        13.23969        -3.14246
| 64>    C       -3.10149        12.24048        -3.12461
| 65>    N       -2.63185        11.78795        -2.00925
| 66>    F       -2.60098        11.73454        -4.25368
| 67>    F       -4.60566        13.70244        -4.28901
| 68>    C       -4.61022        13.88255         0.33316
| 69>    C       -4.05126        13.38881         1.52979
| 70>    C       -3.06410        12.34224         1.54884
| 71>    N       -2.69973        12.03158         2.79326
| 72>    S       -3.50663        12.95544         3.82823
| 73>    N       -4.36164        13.79561         2.76116
| 74>    C       -5.64636        14.86236         0.38289
| 75>    C       -6.33968        15.42548        -0.66135
| 76>    C       -7.35319        16.31519        -0.26395
| 77>    C       -8.23038        17.05099        -1.09664
| 78>    C       -8.22818        16.92629        -2.53601
| 79>    C       -8.45637        17.90613        -3.46612
| 80>    C       -8.40899        17.44051        -4.79248
| 81>    C       -8.16488        16.10362        -4.89144
| 82>    S       -7.97619        15.39093        -3.32656
| 83>    C       -8.03637        15.26888        -6.11299
| 84>    C       -9.12477        17.89421        -0.44506
| 85>    C       -9.18043        18.03255         0.96870
| 86>    C       -8.27076        17.32486         1.79482
| 87>    C       -7.40192        16.45776         1.14863
| 88>    S       -6.20873        15.45228         1.92978
| 89>    C       -8.25748        17.52409         3.22535
| 90>    C       -8.42061        18.69707         3.91312
| 91>    C       -8.32641        18.54283         5.30795
| 92>    C       -8.09977        17.25735         5.69680
| 93>    S       -7.97977        16.20285         4.32709
| 94>    C       -7.95205        16.72130         7.07498
| 95>    C      -10.24790        18.84648         1.38469
| 96>    C      -10.99666        19.35728         0.34987
| 97>    S      -10.36795        18.83546        -1.21193
| 98>    C      -12.12921        20.19975         0.31515
| 99>    C      -12.91423        20.71146         1.31120
|100>    C      -14.07256        21.55682         1.05386
|101>    C      -14.38984        22.19268        -0.11850
|102>    C      -15.52564        23.01330        -0.28499
|103>    N      -16.42973        23.69059        -0.49097
|104>    C      -13.63533        22.17613        -1.31110
|105>    N      -13.08442        22.24358        -2.31703
|106>    C      -14.82494        21.67791         2.29708
|107>    C      -14.09341        21.02599         3.32780
|108>    C      -12.85684        20.45160         2.77094
|109>    O      -11.99107        19.89274         3.41402
|110>    C      -14.54296        20.97594         4.61551
|111>    C      -15.77726        21.58288         4.93690
|112>    C      -16.52012        22.23345         3.91007
|113>    C      -16.02514        22.27180         2.58605
|114>    C      -17.75141        22.83486         4.24103
|115>    C      -18.22780        22.79567         5.52317
|116>    C      -17.49653        22.15234         6.53278
|117>    C      -16.29706        21.55937         6.24590
|118>    H        4.39326        -0.78397         2.95633
|119>    H        4.32246         3.20774         5.94749
|120>    H        4.58974         1.75996         7.87672
|121>    H        4.85118        -0.48839         8.84636
|122>    H        4.90312        -2.47237         7.38741
|123>    H        4.68925        -2.22302         4.94605
|124>    H        3.21325         3.23061        -0.23622
|125>    H        2.01648         5.52640         2.65441
|126>    H        2.88711         7.52782         3.62598
|127>    H        2.57461         7.61313         6.19503
|128>    H       -0.88628         7.53100         7.40968
|129>    H       -0.42422         9.22943         7.39262
|130>    H        0.72103         8.01277         7.97815
|131>    H        0.64163        10.25607        -2.67325
|132>    H        0.58962         9.83367        -5.22658
|133>    H        0.46069         7.88577        -6.93805
|134>    H       -0.38893         6.47176        -6.29327
|135>    H        1.37064         6.49103        -6.33558
|136>    H       -1.34558        10.09203        -1.59099
|137>    H       -6.10148        15.19459        -1.68013
|138>    H       -8.60947        18.93928        -3.21184
|139>    H       -8.55096        18.07787        -5.64697
|140>    H       -8.13830        15.88835        -7.00059
|141>    H       -8.80362        14.49475        -6.13405
|142>    H       -7.06534        14.77458        -6.13414
|143>    H       -8.56042        19.64860         3.43331
|144>    H       -8.42563        19.36007         5.99998
|145>    H       -8.05862        17.52464         7.79992
|146>    H       -6.97435        16.25753         7.20348
|147>    H       -8.70836        15.96310         7.27597
|148>    H      -10.49385        19.02975         2.41359
|149>    H      -12.42770        20.44957        -0.69666
|150>    H      -13.96479        20.47565         5.37830
|151>    H      -16.61591        22.76653         1.83194
|152>    H      -18.31074        23.32939         3.46043
|153>    H      -19.17157        23.26032         5.76653
|154>    H      -17.88836        22.12892         7.53872
|155>    H      -15.72900        21.06249         7.01891
|156> *
|157> 
|158>                          ****END OF INPUT****
================================================================================

                       ****************************
                       * Single Point Calculation *
                       ****************************

---------------------------------
CARTESIAN COORDINATES (ANGSTROEM)
---------------------------------
  C      4.109840    3.668990    3.083020
  C      4.486410    4.938570    3.440210
  C      4.802880    5.329230    4.755210
  N      5.028550    5.715010    5.813120
  C      4.651900    5.979730    2.505220
  N      4.837000    6.845760    1.774690
  C      4.225270    2.487190    3.930660
  C      4.232270    1.332780    3.094170
  C      4.379300    0.077150    3.607740
  C      4.512940   -0.084650    5.005650
  C      4.486360    1.063910    5.848360
  C      4.344510    2.354300    5.287410
  C      4.609570    0.886640    7.241270
  C      4.756360   -0.363420    7.778060
  C      4.786110   -1.493310    6.947390
  C      4.667390   -1.356640    5.590840
  C      4.044830    1.746690    1.691060
  O      4.044810    1.051100    0.701650
  C      3.786360    3.214310    1.748810
  C      3.205620    3.819710    0.676010
  C      2.504310    5.046790    0.605830
  C      1.967690    5.807200    1.617960
  C      1.252230    6.931770    1.170880
  C      0.614280    7.912910    1.966790
  C      0.783570    7.917230    3.402390
  C      1.936710    7.686840    4.102520
  C      1.769940    7.766760    5.497920
  C      0.492930    8.055420    5.871710
  S     -0.535910    8.252290    4.488200
  C     -0.054660    8.215180    7.243930
  C     -0.138300    8.859570    1.289140
  C     -0.214630    8.913150   -0.127280
  C      0.513400    8.000070   -0.927850
  C      1.200730    7.002500   -0.246080
  S      2.103020    5.703710   -0.969250
  C      0.525970    8.126260   -2.365990
  C      0.565510    9.276490   -3.109010
  C      0.561950    9.044940   -4.496160
  C      0.513510    7.724000   -4.825570
  S      0.489660    6.728330   -3.407520
  C      0.487040    7.109210   -6.177490
  C     -1.090780    9.923840   -0.563350
  C     -1.641130   10.663900    0.455870
  S     -1.091280   10.119570    2.026160
  C     -2.575500   11.739340    0.371390
  C     -3.092220   12.270330   -0.834770
  C     -4.093770   13.308830   -0.853510
  N     -4.559250   13.742880   -2.044230
  C     -4.102140   13.239690   -3.142460
  C     -3.101490   12.240480   -3.124610
  N     -2.631850   11.787950   -2.009250
  F     -2.600980   11.734540   -4.253680
  F     -4.605660   13.702440   -4.289010
  C     -4.610220   13.882550    0.333160
  C     -4.051260   13.388810    1.529790
  C     -3.064100   12.342240    1.548840
  N     -2.699730   12.031580    2.793260
  S     -3.506630   12.955440    3.828230
  N     -4.361640   13.795610    2.761160
  C     -5.646360   14.862360    0.382890
  C     -6.339680   15.425480   -0.661350
  C     -7.353190   16.315190   -0.263950
  C     -8.230380   17.050990   -1.096640
  C     -8.228180   16.926290   -2.536010
  C     -8.456370   17.906130   -3.466120
  C     -8.408990   17.440510   -4.792480
  C     -8.164880   16.103620   -4.891440
  S     -7.976190   15.390930   -3.326560
  C     -8.036370   15.268880   -6.112990
  C     -9.124770   17.894210   -0.445060
  C     -9.180430   18.032550    0.968700
  C     -8.270760   17.324860    1.794820
  C     -7.401920   16.457760    1.148630
  S     -6.208730   15.452280    1.929780
  C     -8.257480   17.524090    3.225350
  C     -8.420610   18.697070    3.913120
  C     -8.326410   18.542830    5.307950
  C     -8.099770   17.257350    5.696800
  S     -7.979770   16.202850    4.327090
  C     -7.952050   16.721300    7.074980
  C    -10.247900   18.846480    1.384690
  C    -10.996660   19.357280    0.349870
  S    -10.367950   18.835460   -1.211930
  C    -12.129210   20.199750    0.315150
  C    -12.914230   20.711460    1.311200
  C    -14.072560   21.556820    1.053860
  C    -14.389840   22.192680   -0.118500
  C    -15.525640   23.013300   -0.284990
  N    -16.429730   23.690590   -0.490970
  C    -13.635330   22.176130   -1.311100
  N    -13.084420   22.243580   -2.317030
  C    -14.824940   21.677910    2.297080
  C    -14.093410   21.025990    3.327800
  C    -12.856840   20.451600    2.770940
  O    -11.991070   19.892740    3.414020
  C    -14.542960   20.975940    4.615510
  C    -15.777260   21.582880    4.936900
  C    -16.520120   22.233450    3.910070
  C    -16.025140   22.271800    2.586050
  C    -17.751410   22.834860    4.241030
  C    -18.227800   22.795670    5.523170
  C    -17.496530   22.152340    6.532780
  C    -16.297060   21.559370    6.245900
  H      4.393260   -0.783970    2.956330
  H      4.322460    3.207740    5.947490
  H      4.589740    1.759960    7.876720
  H      4.851180   -0.488390    8.846360
  H      4.903120   -2.472370    7.387410
  H      4.689250   -2.223020    4.946050
  H      3.213250    3.230610   -0.236220
  H      2.016480    5.526400    2.654410
  H      2.887110    7.527820    3.625980
  H      2.574610    7.613130    6.195030
  H     -0.886280    7.531000    7.409680
  H     -0.424220    9.229430    7.392620
  H      0.721030    8.012770    7.978150
  H      0.641630   10.256070   -2.673250
  H      0.589620    9.833670   -5.226580
  H      0.460690    7.885770   -6.938050
  H     -0.388930    6.471760   -6.293270
  H      1.370640    6.491030   -6.335580
  H     -1.345580   10.092030   -1.590990
  H     -6.101480   15.194590   -1.680130
  H     -8.609470   18.939280   -3.211840
  H     -8.550960   18.077870   -5.646970
  H     -8.138300   15.888350   -7.000590
  H     -8.803620   14.494750   -6.134050
  H     -7.065340   14.774580   -6.134140
  H     -8.560420   19.648600    3.433310
  H     -8.425630   19.360070    5.999980
  H     -8.058620   17.524640    7.799920
  H     -6.974350   16.257530    7.203480
  H     -8.708360   15.963100    7.275970
  H    -10.493850   19.029750    2.413590
  H    -12.427700   20.449570   -0.696660
  H    -13.964790   20.475650    5.378300
  H    -16.615910   22.766530    1.831940
  H    -18.310740   23.329390    3.460430
  H    -19.171570   23.260320    5.766530
  H    -17.888360   22.128920    7.538720
  H    -15.729000   21.062490    7.018910

----------------------------
CARTESIAN COORDINATES (A.U.)
----------------------------
  NO LB      ZA    FRAG     MASS         X           Y           Z
   0 C     6.0000    0    12.011    7.766472    6.933386    5.826063
   1 C     6.0000    0    12.011    8.478086    9.332545    6.501055
   2 C     6.0000    0    12.011    9.076128   10.070785    8.986045
   3 N     7.0000    0    14.007    9.502582   10.799804   10.985205
   4 C     6.0000    0    12.011    8.790817   11.300052    4.734180
   5 N     7.0000    0    14.007    9.140605   12.936612    3.353678
   6 C     6.0000    0    12.011    7.984603    4.700108    7.427871
   7 C     6.0000    0    12.011    7.997831    2.518589    5.847134
   8 C     6.0000    0    12.011    8.275678    0.145792    6.817641
   9 C     6.0000    0    12.011    8.528221   -0.159965    9.459308
  10 C     6.0000    0    12.011    8.477992    2.010499   11.051799
  11 C     6.0000    0    12.011    8.209934    4.448982    9.991757
  12 C     6.0000    0    12.011    8.710825    1.675507   13.684017
  13 C     6.0000    0    12.011    8.988218   -0.686764   14.698403
  14 C     6.0000    0    12.011    9.044437   -2.821947   13.128664
  15 C     6.0000    0    12.011    8.820089   -2.563678   10.565156
  16 C     6.0000    0    12.011    7.643621    3.300766    3.195640
  17 O     8.0000    0    15.999    7.643583    1.986291    1.325926
  18 C     6.0000    0    12.011    7.155183    6.074166    3.304772
  19 C     6.0000    0    12.011    6.057744    7.218206    1.277474
  20 C     6.0000    0    12.011    4.732460    9.537051    1.144853
  21 C     6.0000    0    12.011    3.718395   10.974018    3.057501
  22 C     6.0000    0    12.011    2.366372   13.099147    2.212643
  23 C     6.0000    0    12.011    1.160821   14.953233    3.716694
  24 C     6.0000    0    12.011    1.480733   14.961396    6.429585
  25 C     6.0000    0    12.011    3.659852   14.526022    7.752639
  26 C     6.0000    0    12.011    3.344702   14.677049   10.389563
  27 C     6.0000    0    12.011    0.931503   15.222538   11.095924
  28 S    16.0000    0    32.060   -1.012723   15.594568    8.481469
  29 C     6.0000    0    12.011   -0.103292   15.524440   13.689044
  30 C     6.0000    0    12.011   -0.261349   16.742161    2.436122
  31 C     6.0000    0    12.011   -0.405592   16.843412   -0.240524
  32 C     6.0000    0    12.011    0.970185   15.117941   -1.753382
  33 C     6.0000    0    12.011    2.269051   13.232807   -0.465024
  34 S    16.0000    0    32.060    3.974132   10.778450   -1.831617
  35 C     6.0000    0    12.011    0.993939   15.356406   -4.471073
  36 C     6.0000    0    12.011    1.068659   17.530026   -5.875177
  37 C     6.0000    0    12.011    1.061932   17.092459   -8.496511
  38 C     6.0000    0    12.011    0.970393   14.596245   -9.119006
  39 S    16.0000    0    32.060    0.925323   12.714701   -6.439280
  40 C     6.0000    0    12.011    0.920372   13.434460  -11.673764
  41 C     6.0000    0    12.011   -2.061275   18.753340   -1.064577
  42 C     6.0000    0    12.011   -3.101286   20.151851    0.861469
  43 S    16.0000    0    32.060   -2.062220   19.123216    3.828888
  44 C     6.0000    0    12.011   -4.866990   22.184138    0.701825
  45 C     6.0000    0    12.011   -5.843449   23.187563   -1.577487
  46 C     6.0000    0    12.011   -7.736104   25.150044   -1.612900
  47 N     7.0000    0    14.007   -8.615734   25.970279   -3.863035
  48 C     6.0000    0    12.011   -7.751921   25.019388   -5.938389
  49 C     6.0000    0    12.011   -5.860967   23.131155   -5.904657
  50 N     7.0000    0    14.007   -4.973476   22.275997   -3.796932
  51 F     9.0000    0    18.998   -4.915140   22.175067   -8.038290
  52 F     9.0000    0    18.998   -8.703436   25.893859   -8.105054
  53 C     6.0000    0    12.011   -8.712053   26.234218    0.629581
  54 C     6.0000    0    12.011   -7.655772   25.301184    2.890884
  55 C     6.0000    0    12.011   -5.790310   23.323453    2.926883
  56 N     7.0000    0    14.007   -5.101750   22.736391    5.278496
  57 S    16.0000    0    32.060   -6.626570   24.482234    7.234306
  58 N     7.0000    0    14.007   -8.242305   26.069925    5.217836
  59 C     6.0000    0    12.011  -10.670074   28.085790    0.723557
  60 C     6.0000    0    12.011  -11.980259   29.149933   -1.249770
  61 C     6.0000    0    12.011  -13.895515   30.831241   -0.498793
  62 C     6.0000    0    12.011  -15.553164   32.221701   -2.072349
  63 C     6.0000    0    12.011  -15.549007   31.986053   -4.792364
  64 C     6.0000    0    12.011  -15.980223   33.837682   -6.550018
  65 C     6.0000    0    12.011  -15.890688   32.957788   -9.056475
  66 C     6.0000    0    12.011  -15.429387   30.431432   -9.243482
  67 S    16.0000    0    32.060  -15.072815   29.084643   -6.286287
  68 C     6.0000    0    12.011  -15.186538   28.854002  -11.551877
  69 C     6.0000    0    12.011  -17.243316   33.815156   -0.841042
  70 C     6.0000    0    12.011  -17.348498   34.076581    1.830578
  71 C     6.0000    0    12.011  -15.629471   32.739241    3.391718
  72 C     6.0000    0    12.011  -13.987602   31.100659    2.170596
  73 S    16.0000    0    32.060  -11.732799   29.200577    3.646756
  74 C     6.0000    0    12.011  -15.604376   33.115731    6.095028
  75 C     6.0000    0    12.011  -15.912647   35.332342    7.394725
  76 C     6.0000    0    12.011  -15.734635   35.040870   10.030572
  77 C     6.0000    0    12.011  -15.306347   32.611665   10.765392
  78 S    16.0000    0    32.060  -15.079580   30.618949    8.177015
  79 C     6.0000    0    12.011  -15.027197   31.598678   13.369775
  80 C     6.0000    0    12.011  -19.365724   35.614686    2.616685
  81 C     6.0000    0    12.011  -20.780676   36.579958    0.661158
  82 S    16.0000    0    32.060  -19.592586   35.593861   -2.290216
  83 C     6.0000    0    12.011  -22.920885   38.171995    0.595547
  84 C     6.0000    0    12.011  -24.404358   39.138987    2.477809
  85 C     6.0000    0    12.011  -26.593284   40.736486    1.991507
  86 C     6.0000    0    12.011  -27.192857   41.938087   -0.223933
  87 C     6.0000    0    12.011  -29.339208   43.488834   -0.538553
  88 N     7.0000    0    14.007  -31.047690   44.768727   -0.927799
  89 C     6.0000    0    12.011  -25.767039   41.906812   -2.477620
  90 N     7.0000    0    14.007  -24.725970   42.034274   -4.378552
  91 C     6.0000    0    12.011  -28.015077   40.965313    4.340852
  92 C     6.0000    0    12.011  -26.632685   39.733363    6.288631
  93 C     6.0000    0    12.011  -24.295907   38.647923    5.236318
  94 O     8.0000    0    15.999  -22.659838   37.591831    6.451563
  95 C     6.0000    0    12.011  -27.482212   39.638782    8.722050
  96 C     6.0000    0    12.011  -29.814701   40.785732    9.329389
  97 C     6.0000    0    12.011  -31.218502   42.015132    7.388961
  98 C     6.0000    0    12.011  -30.283126   42.087603    4.886926
  99 C     6.0000    0    12.011  -33.545303   43.151632    8.014385
 100 C     6.0000    0    12.011  -34.445550   43.077573   10.437279
 101 C     6.0000    0    12.011  -33.063650   41.861856   12.345165
 102 C     6.0000    0    12.011  -30.796980   40.741305   11.803040
 103 H     1.0000    0     1.008    8.302058   -1.481489    5.586654
 104 H     1.0000    0     1.008    8.168266    6.061750   11.239127
 105 H     1.0000    0     1.008    8.673352    3.325842   14.884844
 106 H     1.0000    0     1.008    9.167402   -0.922923   16.717198
 107 H     1.0000    0     1.008    9.265554   -4.672102   13.960182
 108 H     1.0000    0     1.008    8.861398   -4.200899    9.346680
 109 H     1.0000    0     1.008    6.072162    6.104968   -0.446391
 110 H     1.0000    0     1.008    3.810595   10.443383    5.016108
 111 H     1.0000    0     1.008    5.455847   14.225518    6.852109
 112 H     1.0000    0     1.008    4.865308   14.386731   11.706910
 113 H     1.0000    0     1.008   -1.674826   14.231528   14.002266
 114 H     1.0000    0     1.008   -0.801660   17.441095   13.970027
 115 H     1.0000    0     1.008    1.362549   15.141941   15.076519
 116 H     1.0000    0     1.008    1.212505   19.381164   -5.051710
 117 H     1.0000    0     1.008    1.114220   18.582943   -9.876805
 118 H     1.0000    0     1.008    0.870578   14.901946  -13.111014
 119 H     1.0000    0     1.008   -0.734971   12.229854  -11.892557
 120 H     1.0000    0     1.008    2.590134   12.266269  -11.972511
 121 H     1.0000    0     1.008   -2.542778   19.071173   -3.006535
 122 H     1.0000    0     1.008  -11.530126   28.713614   -3.174986
 123 H     1.0000    0     1.008  -16.269540   35.790052   -6.069498
 124 H     1.0000    0     1.008  -16.158973   34.162223  -10.671227
 125 H     1.0000    0     1.008  -15.379158   30.024630  -13.229198
 126 H     1.0000    0     1.008  -16.636431   27.391108  -11.591675
 127 H     1.0000    0     1.008  -13.351558   27.919910  -11.591845
 128 H     1.0000    0     1.008  -16.176849   37.130473    6.488016
 129 H     1.0000    0     1.008  -15.922133   36.585230   11.338319
 130 H     1.0000    0     1.008  -15.228585   33.116770   14.739713
 131 H     1.0000    0     1.008  -13.179611   30.722279   13.612604
 132 H     1.0000    0     1.008  -16.456415   30.165887   13.749591
 133 H     1.0000    0     1.008  -19.830503   35.961016    4.561024
 134 H     1.0000    0     1.008  -23.484949   38.644087   -1.316497
 135 H     1.0000    0     1.008  -26.389629   38.693371   10.163514
 136 H     1.0000    0     1.008  -31.399519   43.022507    3.461865
 137 H     1.0000    0     1.008  -34.602284   44.086158    6.539265
 138 H     1.0000    0     1.008  -36.229017   43.955635   10.897162
 139 H     1.0000    0     1.008  -33.804101   41.817598   14.246116
 140 H     1.0000    0     1.008  -29.723502   39.802338   13.263818

--------------------------------
INTERNAL COORDINATES (ANGSTROEM)
--------------------------------
 C      0   0   0     0.000000000000     0.00000000     0.00000000
 C      1   0   0     1.371576843418     0.00000000     0.00000000
 C      2   1   0     1.407832907876   124.18194238     0.00000000
 N      3   2   1     1.148445351508   176.20734285   216.14947115
 C      2   1   3     1.409115817029   122.91364313   177.16590355
 N      5   2   1     1.148017444031   176.91570126   220.71956978
 C      1   2   3     1.458927309533   125.22434811   347.49059719
 C      7   1   2     1.425632129338   108.38638288   201.93868938
 C      8   7   1     1.364543389819   121.65588979   177.59136753
 C      9   8   7     1.413573930751   119.19014847     0.72536082
 C     10   9   8     1.424800587486   119.39782820     0.23484964
 C      7   1   2     1.368447475134   131.42152786    20.48535419
 C     11  10   9     1.409540217624   118.78133112   179.47827029
 C     13  11  10     1.368335051002   120.79292064     0.20102835
 C     14  13  11     1.402693524438   120.38766770   359.97142456
 C     15  14  13     1.368576278400   120.31221080   359.94458929
 C      8   7   1     1.474846742479   109.28896137   356.85103231
 O     17   8   7     1.209453428868   128.08776394   177.10871049
 C      1   2   3     1.446198304832   126.34772379   180.57376009
 C     19   1   2     1.361861941461   133.02880239   326.98029921
 C     20  19   1     1.415092320275   129.48525861   347.08902390
 C     21  20  19     1.374987828819   129.52863193   344.02858066
 C     22  21  20     1.405852489737   114.01061594   184.22943214
 C     23  22  21     1.415305136781   127.23528588   181.44466890
 C     24  23  22     1.445553570955   120.51547038     7.32902742
 C     25  24  23     1.368573501351   127.31716814    41.05705060
 C     26  25  24     1.407601008560   113.43797491   179.83668029
 C     27  26  25     1.361542544249   113.28557603     0.10101660
 S     28  27  26     1.735329784969   111.17674169   359.40748850
 C     28  27  26     1.486057130160   128.45528366   179.90285133
 C     24  23  22     1.386272460413   116.30850116   185.98101308
 C     31  24  23     1.419486774049   122.87043428   356.24142951
 C     32  31  24     1.415858429434   120.81162323   358.59613304
 C     33  32  31     1.390100272175   116.08611709     5.11572495
 S     34  33  32     1.738953006007   126.05582656   176.57646540
 C     33  32  31     1.443720395575   120.75409092   185.32546178
 C     36  33  32     1.369916488294   127.87403251    38.09059815
 C     37  36  33     1.406347467236   113.36977151   180.21848841
 C     38  37  36     1.362255433206   113.46908553     0.29411974
 S     39  38  37     1.732856997533   111.08567934   359.33271968
 C     39  38  37     1.485380453419   128.46674576   179.58788728
 C     32  31  24     1.406872468812   111.70894476   177.24122648
 C     42  32  31     1.374548411115   113.97262957     2.16404217
 S     31  24  23     1.743263996301   125.70979008   176.51552334
 C     43  42  32     1.427149382826   128.60602216   181.09930470
 C     45  43  42     1.415546496622   124.89671375   358.33101952
 C     46  45  43     1.442891485906   122.30509406   176.36643135
 N     47  46  45     1.350142641094   118.82576867   181.47517673
 C     48  47  46     1.291610955784   120.17352085   359.42006295
 C     49  48  47     1.414227587448   120.99309306   359.33397690
 N     50  49  48     1.292042205232   121.03394925     1.10983727
 F     50  49  48     1.334647747010   121.50028355   181.49256590
 F     49  48  47     1.335008185518   117.49858032   179.60798533
 C     47  46  45     1.415648589799   122.27802841     1.11074671
 C     54  47  46     1.410013768053   115.14196923     1.49348097
 C     45  43  42     1.410179730566   119.97292947   177.51432529
 N     56  45  43     1.333362767179   125.80110249     2.37780726
 S     57  56  45     1.604919876661   109.28978082   180.31531159
 N     55  54  47     1.333451934379   125.77452475   178.66925945
 C     54  47  46     1.426915137140   124.91810946   183.28940907
 C     60  54  47     1.374130246520   128.41010205     0.51662767
 C     61  60  54     1.405956316604   114.09474531   176.79845836
 C     62  61  60     1.415710624457   127.53930849   179.75111794
 C     63  62  61     1.444763277115   122.69585085     2.88204098
 C     64  63  62     1.370132005976   127.90354832   215.24311841
 C     65  64  63     1.406512601579   113.44112023   181.32721608
 C     66  65  64     1.362592252216   113.53590980     0.89891750
 S     67  66  65     1.729849810417   110.98143177   359.60160524
 C     67  66  65     1.485089253277   128.80847845   180.48085903
 C     63  62  61     1.391226055284   115.96837911   181.70746549
 C     70  63  62     1.421602380696   123.36135537     0.02748625
 C     71  70  63     1.418026409980   120.37704115     1.97975888
 C     72  71  70     1.387193883961   116.25484041   356.54020666
 S     73  72  71     1.744960666892   125.44543769   181.10177860
 C     72  71  70     1.444397809539   120.93405940   175.83448597
 C     75  72  71     1.369496641179   127.91049031   321.16249851
 C     76  75  72     1.406490080484   113.33698306   181.15696944
 C     77  76  75     1.361994435561   113.43952106   359.63414058
 S     78  77  76     1.732765343057   111.11366831     0.62962983
 C     78  77  76     1.486119414213   128.44369490   180.35084986
 C     71  70  63     1.405354733119   112.36280929   185.57618776
 C     81  71  70     1.375649159488   113.94245226   358.85373344
 S     70  63  62     1.737681694615   125.55933311   183.83406418
 C     82  81  71     1.411959872588   132.58128848   180.02171966
 C     84  82  81     1.367559551537   131.74263658   354.64714293
 C     85  84  82     1.456909672595   123.01451267   181.20343217
 C     86  85  84     1.370916666906   127.17025082   345.07596178
 C     87  86  85     1.411090976691   123.84295969   180.90964033
 N     88  87  86     1.148271846124   176.30991389   181.51087274
 C     87  86  85     1.411330578780   126.40314203   358.58429064
 N     90  87  86     1.148889244227   174.58369513   192.41905235
 C     86  85  84     1.458195604471   107.92755327   168.04135687
 C     92  86  85     1.422153137218   108.32711525     4.99479570
 C     93  92  86     1.472794044189   109.67148716   359.26392629
 O     94  93  92     1.214674474458   125.28885662   176.03803902
 C     93  92  86     1.364843305695   122.08552247   179.67900992
 C     96  93  92     1.412502809095   119.12653747     0.38330786
 C     97  96  93     1.424591925219   119.20213305   359.89360672
 C     92  86  85     1.369923002581   131.90389606   185.15814412
 C     98  97  96     1.409717551072   118.75453454   179.93523071
 C    100  98  97     1.368344352786   120.78693252   359.95246915
 C    101 100  98     1.402833437690   120.39799213   359.91865489
 C    102 101 100     1.368445043179   120.31496880     0.13489031
 H      9   8   7     1.079841434702   120.54076260   180.69852509
 H     12   7   1     1.079143939658   121.86108934     2.85588260
 H     13  11  10     1.080221159671   118.55734144   179.95223413
 H     14  13  11     1.079756094356   120.21774543   179.92393323
 H     15  14  13     1.079753408932   119.43018366   179.96916893
 H     16  15  14     1.080206604359   120.65168689   180.02032239
 H     20  19   1     1.085937659260   114.68233501   172.82692509
 H     22  21  20     1.074922186300   123.20074962   359.28109426
 H     26  25  24     1.075005996262   122.89115263     3.78586610
 H     27  26  25     1.075666462199   123.07364020   180.03999111
 H     30  28  27     1.089572007396   110.74514032   236.49808179
 H     30  28  27     1.089672598628   110.55074047   117.14779346
 H     30  28  27     1.087080398407   109.92050158   356.95350965
 H     37  36  33     1.074829292679   123.18731306     3.11673145
 H     38  37  36     1.075348324126   123.30809638   179.99517802
 H     41  39  38     1.087286194937   109.96671992   357.10188844
 H     41  39  38     1.089527857285   110.68332431   236.72471711
 H     41  39  38     1.089902711484   110.62962526   117.38658586
 H     42  32  31     1.072033061850   123.90709801   184.33036680
 H     61  60  54     1.071429941947   121.47338525   356.31408721
 H     65  64  63     1.074940394115   123.39979236     4.13543234
 H     66  65  64     1.075423828358   123.27357752   180.94149136
 H     69  67  66     1.087182857573   110.06946776     1.67885265
 H     69  67  66     1.090134552704   110.74036368   241.28750978
 H     69  67  66     1.089806897299   110.36543409   122.07574036
 H     76  75  72     1.074790125141   123.33798693   358.43106217
 H     77  76  75     1.075467966469   123.27260605   179.74824478
 H     80  78  77     1.087313351385   110.00234834     0.40309184
 H     80  78  77     1.089721135383   110.61262100   240.07065036
 H     80  78  77     1.089618757272   110.67459566   120.72557231
 H     81  71  70     1.073645428156   123.81632325   176.45684193
 H     84  82  81     1.084096761641   112.41400454   176.62913248
 H     96  93  92     1.080008896769   120.46581900   180.14710820
 H     99  92  86     1.078169215801   122.10283019     0.51677294
 H    100  98  97     1.080160325970   118.55077876   179.84773959
 H    101 100  98     1.079734006596   120.21026542   179.93441883
 H    102 101 100     1.079812265581   119.42261915   180.13947735
 H    103 102 101     1.080336224562   120.67602122   179.99015874

---------------------------
INTERNAL COORDINATES (A.U.)
---------------------------
 C      0   0   0     0.000000000000     0.00000000     0.00000000
 C      1   0   0     2.591904605688     0.00000000     0.00000000
 C      2   1   0     2.660418638209   124.18194238     0.00000000
 N      3   2   1     2.170247194125   176.20734285   216.14947115
 C      2   1   3     2.662842985161   122.91364313   177.16590355
 N      5   2   1     2.169438566183   176.91570126   220.71956978
 C      1   2   3     2.756973064315   125.22434811   347.49059719
 C      7   1   2     2.694054292167   108.38638288   201.93868938
 C      8   7   1     2.578613304611   121.65588979   177.59136753
 C      9   8   7     2.671267599171   119.19014847     0.72536082
 C     10   9   8     2.692482905798   119.39782820     0.23484964
 C      7   1   2     2.585990956659   131.42152786    20.48535419
 C     11  10   9     2.663644986057   118.78133112   179.47827029
 C     13  11  10     2.585778505839   120.79292064     0.20102835
 C     14  13  11     2.650706611012   120.38766770   359.97142456
 C     15  14  13     2.586234359558   120.31221080   359.94458929
 C      8   7   1     2.787056432791   109.28896137   356.85103231
 O     17   8   7     2.285535752292   128.08776394   177.10871049
 C      1   2   3     2.732918731474   126.34772379   180.57376009
 C     19   1   2     2.573546101572   133.02880239   326.98029921
 C     20  19   1     2.674136939534   129.48525861   347.08902390
 C     21  20  19     2.598350433943   129.52863193   344.02858066
 C     22  21  20     2.656676190294   114.01061594   184.22943214
 C     23  22  21     2.674539104449   127.23528588   181.44466890
 C     24  23  22     2.731700361016   120.51547038     7.32902742
 C     25  24  23     2.586229111695   127.31716814    41.05705060
 C     26  25  24     2.659980412010   113.43797491   179.83668029
 C     27  26  25     2.572942528313   113.28557603     0.10101660
 S     28  27  26     3.279298045628   111.17674169   359.40748850
 C     28  27  26     2.808240995364   128.45528366   179.90285133
 C     24  23  22     2.619675297178   116.30850116   185.98101308
 C     31  24  23     2.682441253676   122.87043428   356.24142951
 C     32  31  24     2.675584676035   120.81162323   358.59613304
 C     33  32  31     2.626908813099   116.08611709     5.11572495
 S     34  33  32     3.286144941112   126.05582656   176.57646540
 C     33  32  31     2.728236161594   120.75409092   185.32546178
 C     36  33  32     2.588766989219   127.87403251    38.09059815
 C     37  36  33     2.657611562209   113.36977151   180.21848841
 C     38  37  36     2.574289693206   113.46908553     0.29411974
 S     39  38  37     3.274625154587   111.08567934   359.33271968
 C     39  38  37     2.806962261642   128.46674576   179.58788728
 C     32  31  24     2.658603671408   111.70894476   177.24122648
 C     42  32  31     2.597520054825   113.97262957     2.16404217
 S     31  24  23     3.294291532134   125.70979008   176.51552334
 C     43  42  32     2.696921485735   128.60602216   181.09930470
 C     45  43  42     2.674995208448   124.89671375   358.33101952
 C     46  45  43     2.726669749329   122.30509406   176.36643135
 N     47  46  45     2.551399833397   118.82576867   181.47517673
 C     48  47  46     2.440790978003   120.17352085   359.42006295
 C     49  48  47     2.672502831314   120.99309306   359.33397690
 N     50  49  48     2.441605921356   121.03394925     1.10983727
 F     50  49  48     2.522118727105   121.50028355   181.49256590
 F     49  48  47     2.522799857172   117.49858032   179.60798533
 C     47  46  45     2.675188136592   122.27802841     1.11074671
 C     54  47  46     2.664539866679   115.14196923     1.49348097
 C     45  43  42     2.664853490377   119.97292947   177.51432529
 N     56  45  43     2.519690467136   125.80110249     2.37780726
 S     57  56  45     3.032859033775   109.28978082   180.31531159
 N     55  54  47     2.519858968724   125.77452475   178.66925945
 C     54  47  46     2.696478825542   124.91810946   183.28940907
 C     60  54  47     2.596729838260   128.41010205     0.51662767
 C     61  60  54     2.656872394639   114.09474531   176.79845836
 C     62  61  60     2.675305365106   127.53930849   179.75111794
 C     63  62  61     2.730206922094   122.69585085     2.88204098
 C     64  63  62     2.589174258615   127.90354832   215.24311841
 C     65  64  63     2.657923620893   113.44112023   181.32721608
 C     66  65  64     2.574926188892   113.53590980     0.89891750
 S     67  66  65     3.268942394504   110.98143177   359.60160524
 C     67  66  65     2.806411973124   128.80847845   180.48085903
 C     63  62  61     2.629036234862   115.96837911   181.70746549
 C     70  63  62     2.686439170846   123.36135537     0.02748625
 C     71  70  63     2.679681565529   120.37704115     1.97975888
 C     72  71  70     2.621416535338   116.25484041   356.54020666
 S     73  72  71     3.297497774890   125.44543769   181.10177860
 C     72  71  70     2.729516288464   120.93405940   175.83448597
 C     75  72  71     2.587973593153   127.91049031   321.16249851
 C     76  75  72     2.657881062192   113.33698306   181.15696944
 C     77  76  75     2.573796479136   113.43952106   359.63414058
 S     78  77  76     3.274451952728   111.11366831     0.62962983
 C     78  77  76     2.808358695166   128.44369490   180.35084986
 C     71  70  63     2.655735566605   112.36280929   185.57618776
 C     81  71  70     2.599600167791   113.94245226   358.85373344
 S     70  63  62     3.283742510751   125.55933311   183.83406418
 C     82  81  71     2.668217471279   132.58128848   180.02171966
 C     84  82  81     2.584313024233   131.74263658   354.64714293
 C     85  84  82     2.753160283065   123.01451267   181.20343217
 C     86  85  84     2.590657052880   127.17025082   345.07596178
 C     87  86  85     2.666575495994   123.84295969   180.90964033
 N     88  87  86     2.169919316466   176.30991389   181.51087274
 C     87  86  85     2.667028278323   126.40314203   358.58429064
 N     90  87  86     2.171086029796   174.58369513   192.41905235
 C     86  85  84     2.755590342139   107.92755327   168.04135687
 C     92  86  85     2.687479949840   108.32711525     4.99479570
 C     93  92  86     2.783177395188   109.67148716   359.26392629
 O     94  93  92     2.295402098590   125.28885662   176.03803902
 C     93  92  86     2.579180063479   122.08552247   179.67900992
 C     96  93  92     2.669243472583   119.12653747     0.38330786
 C     97  96  93     2.692088591260   119.20213305   359.89360672
 C     92  86  85     2.588779299437   131.90389606   185.15814412
 C     98  97  96     2.663980097708   118.75453454   179.93523071
 C    100  98  97     2.585796083662   120.78693252   359.95246915
 C    101 100  98     2.650971008741   120.39799213   359.91865489
 C    102 101 100     2.585986360930   120.31496880     0.13489031
 H      9   8   7     2.040604579648   120.54076260   180.69852509
 H     12   7   1     2.039286505034   121.86108934     2.85588260
 H     13  11  10     2.041322155844   118.55734144   179.95223413
 H     14  13  11     2.040443309766   120.21774543   179.92393323
 H     15  14  13     2.040438235049   119.43018366   179.96916893
 H     16  15  14     2.041294650291   120.65168689   180.02032239
 H     20  19   1     2.052124774514   114.68233501   172.82692509
 H     22  21  20     2.031308547383   123.20074962   359.28109426
 H     26  25  24     2.031466925259   122.89115263     3.78586610
 H     27  26  25     2.032715025000   123.07364020   180.03999111
 H     30  28  27     2.058992697164   110.74514032   236.49808179
 H     30  28  27     2.059182787045   110.55074047   117.14779346
 H     30  28  27     2.054284238543   109.92050158   356.95350965
 H     37  36  33     2.031133003879   123.18731306     3.11673145
 H     38  37  36     2.032113831169   123.30809638   179.99517802
 H     41  39  38     2.054673137624   109.96671992   357.10188844
 H     41  39  38     2.058909265547   110.68332431   236.72471711
 H     41  39  38     2.059617637323   110.62962526   117.38658586
 H     42  32  31     2.025848893406   123.90709801   184.33036680
 H     61  60  54     2.024709161962   121.47338525   356.31408721
 H     65  64  63     2.031342955167   123.39979236     4.13543234
 H     66  65  64     2.032256513490   123.27357752   180.94149136
 H     69  67  66     2.054477858306   110.06946776     1.67885265
 H     69  67  66     2.060055753736   110.74036368   241.28750978
 H     69  67  66     2.059436574753   110.36543409   122.07574036
 H     76  75  72     2.031058987959   123.33798693   358.43106217
 H     77  76  75     2.032339922431   123.27260605   179.74824478
 H     80  78  77     2.054724455874   110.00234834     0.40309184
 H     80  78  77     2.059274508219   110.61262100   240.07065036
 H     80  78  77     2.059081041629   110.67459566   120.72557231
 H     81  71  70     2.028895824151   123.81632325   176.45684193
 H     84  82  81     2.048645982172   112.41400454   176.62913248
 H     96  93  92     2.040921037092   120.46581900   180.14710820
 H     99  92  86     2.037444543888   122.10283019     0.51677294
 H    100  98  97     2.041207196811   118.55077876   179.84773959
 H    101 100  98     2.040401569948   120.21026542   179.93441883
 H    102 101 100     2.040549457998   119.42261915   180.13947735
 H    103 102 101     2.041539596976   120.67602122   179.99015874

---------------------
BASIS SET INFORMATION
---------------------
There are 6 groups of distinct atoms

 Group   1 Type C   : 7s4p1d contracted to 3s2p1d pattern {511/31/1}
 Group   2 Type N   : 7s4p1d contracted to 3s2p1d pattern {511/31/1}
 Group   3 Type O   : 7s4p1d contracted to 3s2p1d pattern {511/31/1}
 Group   4 Type S   : 10s7p1d contracted to 4s3p1d pattern {5311/511/1}
 Group   5 Type F   : 7s4p1d contracted to 3s2p1d pattern {511/31/1}
 Group   6 Type H   : 4s1p contracted to 2s1p pattern {31/1}

Atom   0C    basis set group =>   1
Atom   1C    basis set group =>   1
Atom   2C    basis set group =>   1
Atom   3N    basis set group =>   2
Atom   4C    basis set group =>   1
Atom   5N    basis set group =>   2
Atom   6C    basis set group =>   1
Atom   7C    basis set group =>   1
Atom   8C    basis set group =>   1
Atom   9C    basis set group =>   1
Atom  10C    basis set group =>   1
Atom  11C    basis set group =>   1
Atom  12C    basis set group =>   1
Atom  13C    basis set group =>   1
Atom  14C    basis set group =>   1
Atom  15C    basis set group =>   1
Atom  16C    basis set group =>   1
Atom  17O    basis set group =>   3
Atom  18C    basis set group =>   1
Atom  19C    basis set group =>   1
Atom  20C    basis set group =>   1
Atom  21C    basis set group =>   1
Atom  22C    basis set group =>   1
Atom  23C    basis set group =>   1
Atom  24C    basis set group =>   1
Atom  25C    basis set group =>   1
Atom  26C    basis set group =>   1
Atom  27C    basis set group =>   1
Atom  28S    basis set group =>   4
Atom  29C    basis set group =>   1
Atom  30C    basis set group =>   1
Atom  31C    basis set group =>   1
Atom  32C    basis set group =>   1
Atom  33C    basis set group =>   1
Atom  34S    basis set group =>   4
Atom  35C    basis set group =>   1
Atom  36C    basis set group =>   1
Atom  37C    basis set group =>   1
Atom  38C    basis set group =>   1
Atom  39S    basis set group =>   4
Atom  40C    basis set group =>   1
Atom  41C    basis set group =>   1
Atom  42C    basis set group =>   1
Atom  43S    basis set group =>   4
Atom  44C    basis set group =>   1
Atom  45C    basis set group =>   1
Atom  46C    basis set group =>   1
Atom  47N    basis set group =>   2
Atom  48C    basis set group =>   1
Atom  49C    basis set group =>   1
Atom  50N    basis set group =>   2
Atom  51F    basis set group =>   5
Atom  52F    basis set group =>   5
Atom  53C    basis set group =>   1
Atom  54C    basis set group =>   1
Atom  55C    basis set group =>   1
Atom  56N    basis set group =>   2
Atom  57S    basis set group =>   4
Atom  58N    basis set group =>   2
Atom  59C    basis set group =>   1
Atom  60C    basis set group =>   1
Atom  61C    basis set group =>   1
Atom  62C    basis set group =>   1
Atom  63C    basis set group =>   1
Atom  64C    basis set group =>   1
Atom  65C    basis set group =>   1
Atom  66C    basis set group =>   1
Atom  67S    basis set group =>   4
Atom  68C    basis set group =>   1
Atom  69C    basis set group =>   1
Atom  70C    basis set group =>   1
Atom  71C    basis set group =>   1
Atom  72C    basis set group =>   1
Atom  73S    basis set group =>   4
Atom  74C    basis set group =>   1
Atom  75C    basis set group =>   1
Atom  76C    basis set group =>   1
Atom  77C    basis set group =>   1
Atom  78S    basis set group =>   4
Atom  79C    basis set group =>   1
Atom  80C    basis set group =>   1
Atom  81C    basis set group =>   1
Atom  82S    basis set group =>   4
Atom  83C    basis set group =>   1
Atom  84C    basis set group =>   1
Atom  85C    basis set group =>   1
Atom  86C    basis set group =>   1
Atom  87C    basis set group =>   1
Atom  88N    basis set group =>   2
Atom  89C    basis set group =>   1
Atom  90N    basis set group =>   2
Atom  91C    basis set group =>   1
Atom  92C    basis set group =>   1
Atom  93C    basis set group =>   1
Atom  94O    basis set group =>   3
Atom  95C    basis set group =>   1
Atom  96C    basis set group =>   1
Atom  97C    basis set group =>   1
Atom  98C    basis set group =>   1
Atom  99C    basis set group =>   1
Atom 100C    basis set group =>   1
Atom 101C    basis set group =>   1
Atom 102C    basis set group =>   1
Atom 103H    basis set group =>   6
Atom 104H    basis set group =>   6
Atom 105H    basis set group =>   6
Atom 106H    basis set group =>   6
Atom 107H    basis set group =>   6
Atom 108H    basis set group =>   6
Atom 109H    basis set group =>   6
Atom 110H    basis set group =>   6
Atom 111H    basis set group =>   6
Atom 112H    basis set group =>   6
Atom 113H    basis set group =>   6
Atom 114H    basis set group =>   6
Atom 115H    basis set group =>   6
Atom 116H    basis set group =>   6
Atom 117H    basis set group =>   6
Atom 118H    basis set group =>   6
Atom 119H    basis set group =>   6
Atom 120H    basis set group =>   6
Atom 121H    basis set group =>   6
Atom 122H    basis set group =>   6
Atom 123H    basis set group =>   6
Atom 124H    basis set group =>   6
Atom 125H    basis set group =>   6
Atom 126H    basis set group =>   6
Atom 127H    basis set group =>   6
Atom 128H    basis set group =>   6
Atom 129H    basis set group =>   6
Atom 130H    basis set group =>   6
Atom 131H    basis set group =>   6
Atom 132H    basis set group =>   6
Atom 133H    basis set group =>   6
Atom 134H    basis set group =>   6
Atom 135H    basis set group =>   6
Atom 136H    basis set group =>   6
Atom 137H    basis set group =>   6
Atom 138H    basis set group =>   6
Atom 139H    basis set group =>   6
Atom 140H    basis set group =>   6
---------------------------------
AUXILIARY/J BASIS SET INFORMATION
---------------------------------
There are 6 groups of distinct atoms

 Group   1 Type C   : 12s5p4d2f1g contracted to 6s4p3d1f1g pattern {711111/2111/211/2/1}
 Group   2 Type N   : 12s5p4d2f1g contracted to 6s4p3d1f1g pattern {711111/2111/211/2/1}
 Group   3 Type O   : 12s5p4d2f1g contracted to 6s4p3d1f1g pattern {711111/2111/211/2/1}
 Group   4 Type S   : 14s5p5d2f1g contracted to 8s4p3d1f1g pattern {71111111/2111/311/2/1}
 Group   5 Type F   : 12s5p4d2f1g contracted to 6s4p3d1f1g pattern {711111/2111/211/2/1}
 Group   6 Type H   : 5s2p1d contracted to 3s1p1d pattern {311/2/1}

Atom   0C    basis set group =>   1
Atom   1C    basis set group =>   1
Atom   2C    basis set group =>   1
Atom   3N    basis set group =>   2
Atom   4C    basis set group =>   1
Atom   5N    basis set group =>   2
Atom   6C    basis set group =>   1
Atom   7C    basis set group =>   1
Atom   8C    basis set group =>   1
Atom   9C    basis set group =>   1
Atom  10C    basis set group =>   1
Atom  11C    basis set group =>   1
Atom  12C    basis set group =>   1
Atom  13C    basis set group =>   1
Atom  14C    basis set group =>   1
Atom  15C    basis set group =>   1
Atom  16C    basis set group =>   1
Atom  17O    basis set group =>   3
Atom  18C    basis set group =>   1
Atom  19C    basis set group =>   1
Atom  20C    basis set group =>   1
Atom  21C    basis set group =>   1
Atom  22C    basis set group =>   1
Atom  23C    basis set group =>   1
Atom  24C    basis set group =>   1
Atom  25C    basis set group =>   1
Atom  26C    basis set group =>   1
Atom  27C    basis set group =>   1
Atom  28S    basis set group =>   4
Atom  29C    basis set group =>   1
Atom  30C    basis set group =>   1
Atom  31C    basis set group =>   1
Atom  32C    basis set group =>   1
Atom  33C    basis set group =>   1
Atom  34S    basis set group =>   4
Atom  35C    basis set group =>   1
Atom  36C    basis set group =>   1
Atom  37C    basis set group =>   1
Atom  38C    basis set group =>   1
Atom  39S    basis set group =>   4
Atom  40C    basis set group =>   1
Atom  41C    basis set group =>   1
Atom  42C    basis set group =>   1
Atom  43S    basis set group =>   4
Atom  44C    basis set group =>   1
Atom  45C    basis set group =>   1
Atom  46C    basis set group =>   1
Atom  47N    basis set group =>   2
Atom  48C    basis set group =>   1
Atom  49C    basis set group =>   1
Atom  50N    basis set group =>   2
Atom  51F    basis set group =>   5
Atom  52F    basis set group =>   5
Atom  53C    basis set group =>   1
Atom  54C    basis set group =>   1
Atom  55C    basis set group =>   1
Atom  56N    basis set group =>   2
Atom  57S    basis set group =>   4
Atom  58N    basis set group =>   2
Atom  59C    basis set group =>   1
Atom  60C    basis set group =>   1
Atom  61C    basis set group =>   1
Atom  62C    basis set group =>   1
Atom  63C    basis set group =>   1
Atom  64C    basis set group =>   1
Atom  65C    basis set group =>   1
Atom  66C    basis set group =>   1
Atom  67S    basis set group =>   4
Atom  68C    basis set group =>   1
Atom  69C    basis set group =>   1
Atom  70C    basis set group =>   1
Atom  71C    basis set group =>   1
Atom  72C    basis set group =>   1
Atom  73S    basis set group =>   4
Atom  74C    basis set group =>   1
Atom  75C    basis set group =>   1
Atom  76C    basis set group =>   1
Atom  77C    basis set group =>   1
Atom  78S    basis set group =>   4
Atom  79C    basis set group =>   1
Atom  80C    basis set group =>   1
Atom  81C    basis set group =>   1
Atom  82S    basis set group =>   4
Atom  83C    basis set group =>   1
Atom  84C    basis set group =>   1
Atom  85C    basis set group =>   1
Atom  86C    basis set group =>   1
Atom  87C    basis set group =>   1
Atom  88N    basis set group =>   2
Atom  89C    basis set group =>   1
Atom  90N    basis set group =>   2
Atom  91C    basis set group =>   1
Atom  92C    basis set group =>   1
Atom  93C    basis set group =>   1
Atom  94O    basis set group =>   3
Atom  95C    basis set group =>   1
Atom  96C    basis set group =>   1
Atom  97C    basis set group =>   1
Atom  98C    basis set group =>   1
Atom  99C    basis set group =>   1
Atom 100C    basis set group =>   1
Atom 101C    basis set group =>   1
Atom 102C    basis set group =>   1
Atom 103H    basis set group =>   6
Atom 104H    basis set group =>   6
Atom 105H    basis set group =>   6
Atom 106H    basis set group =>   6
Atom 107H    basis set group =>   6
Atom 108H    basis set group =>   6
Atom 109H    basis set group =>   6
Atom 110H    basis set group =>   6
Atom 111H    basis set group =>   6
Atom 112H    basis set group =>   6
Atom 113H    basis set group =>   6
Atom 114H    basis set group =>   6
Atom 115H    basis set group =>   6
Atom 116H    basis set group =>   6
Atom 117H    basis set group =>   6
Atom 118H    basis set group =>   6
Atom 119H    basis set group =>   6
Atom 120H    basis set group =>   6
Atom 121H    basis set group =>   6
Atom 122H    basis set group =>   6
Atom 123H    basis set group =>   6
Atom 124H    basis set group =>   6
Atom 125H    basis set group =>   6
Atom 126H    basis set group =>   6
Atom 127H    basis set group =>   6
Atom 128H    basis set group =>   6
Atom 129H    basis set group =>   6
Atom 130H    basis set group =>   6
Atom 131H    basis set group =>   6
Atom 132H    basis set group =>   6
Atom 133H    basis set group =>   6
Atom 134H    basis set group =>   6
Atom 135H    basis set group =>   6
Atom 136H    basis set group =>   6
Atom 137H    basis set group =>   6
Atom 138H    basis set group =>   6
Atom 139H    basis set group =>   6
Atom 140H    basis set group =>   6


           ************************************************************
           *        Program running with 6 parallel MPI-processes     *
           *              working on a common directory               *
           ************************************************************
------------------------------------------------------------------------------
                           ORCA GTO INTEGRAL CALCULATION
                           -- RI-GTO INTEGRALS CHOSEN --
------------------------------------------------------------------------------

                         BASIS SET STATISTICS AND STARTUP INFO

Gaussian basis set:
 # of primitive gaussian shells          ... 1480
 # of primitive gaussian functions       ... 2846
 # of contracted shells                  ...  750
 # of contracted basis functions         ... 1668
 Highest angular momentum                ...    2
 Maximum contraction depth               ...    5
Auxiliary gaussian basis set:
 # of primitive gaussian shells          ... 2803
 # of primitive gaussian functions       ... 7881
 # of contracted shells                  ... 1753
 # of contracted aux-basis functions     ... 5483
 Highest angular momentum                ...    4
 Maximum contraction depth               ...    7
Ratio of auxiliary to basis functions    ...  3.29
Integral package used                  ... LIBINT
 One Electron integrals                  ... done
 Ordering auxiliary basis shells         ... done
 Integral threshhold             Thresh  ...  2.500e-11
 Primitive cut-off               TCut    ...  2.500e-12
 Pre-screening matrix                    ... done
 Shell pair data                         ... 
 Ordering of the shell pairs             ... done (   0.015 sec) 69930 of 281625 pairs
 Determination of significant pairs      ... done (   0.000 sec)
 Creation of shell pair data             ... done (   0.009 sec)
 Storage of shell pair data              ... done (   0.015 sec)
 Shell pair data done in (   0.039 sec)
 Computing two index integrals           ... done
 Cholesky decomposition of the V-matrix  ... done


Timings:
 Total evaluation time                   ...   4.571 sec (  0.076 min)
 One electron matrix time                ...   1.167 sec (  0.019 min) = 25.5%
 Schwartz matrix evaluation time         ...   1.265 sec (  0.021 min) = 27.7%
 Two index repulsion integral time       ...   0.707 sec (  0.012 min) = 15.5%
 Cholesky decomposition of V             ...   1.374 sec (  0.023 min) = 30.1%
 Three index repulsion integral time     ...   0.000 sec (  0.000 min) =  0.0%



           ************************************************************
           *        Program running with 6 parallel MPI-processes     *
           *              working on a common directory               *
           ************************************************************
-------------------------------------------------------------------------------
                                 ORCA SCF
-------------------------------------------------------------------------------

------------
SCF SETTINGS
------------
Hamiltonian:
 Density Functional     Method          .... DFT(GTOs)
 Exchange Functional    Exchange        .... WB88
 Correlation Functional Correlation     .... LYP
 LDA part of GGA corr.  LDAOpt          .... VWN-5
 Gradients option       PostSCFGGA      .... off
 Hybrid DFT is turned on
   Fraction HF Exchange ScalHFX         ....  0.190000
   Scaling of DF-GGA-X  ScalDFX         ....  0.350000
   Scaling of DF-GGA-C  ScalDFC         ....  0.810000
   Scaling of DF-LDA-C  ScalLDAC        ....  1.000000
   Perturbative correction              ....  0.000000
   Density functional embedding theory  .... OFF
 Long-range corrected/Screened/Range-Separated Hybrid DFT is turned on
   Amount of maximum screened exact exchange              ....  0.460000
   Range separation parameter mu (erf(mu*r12)/r12)        ....  0.330000
 RI-approximation to the Coulomb term is turned on
   Number of auxiliary basis functions  .... 5483
   RIJ-COSX (HFX calculated with COS-X)).... on


General Settings:
 Integral files         IntName         .... 90_30_28_30_90
 Hartree-Fock type      HFTyp           .... RHF
 Total Charge           Charge          ....    0
 Multiplicity           Mult            ....    1
 Number of Electrons    NEL             ....  764
 Basis Dimension        Dim             .... 1668
 Nuclear Repulsion      ENuc            ....  19514.6660446452 Eh

Convergence Acceleration:
 DIIS                   CNVDIIS         .... on
   Start iteration      DIISMaxIt       ....    12
   Startup error        DIISStart       ....  0.200000
   # of expansion vecs  DIISMaxEq       ....     5
   Bias factor          DIISBfac        ....   1.050
   Max. coefficient     DIISMaxC        ....  10.000
 Newton-Raphson         CNVNR           .... off
 SOSCF                  CNVSOSCF        .... on
   Start iteration      SOSCFMaxIt      ....   150
   Startup grad/error   SOSCFStart      ....  0.003300
 Level Shifting         CNVShift        .... on
   Level shift para.    LevelShift      ....    0.2500
   Turn off err/grad.   ShiftErr        ....    0.0010
 Zerner damping         CNVZerner       .... off
 Static damping         CNVDamp         .... on
   Fraction old density DampFac         ....    0.7000
   Max. Damping (<1)    DampMax         ....    0.9800
   Min. Damping (>=0)   DampMin         ....    0.0000
   Turn off err/grad.   DampErr         ....    0.1000
 Fernandez-Rico         CNVRico         .... off

SCF Procedure:
 Maximum # iterations   MaxIter         ....   125
 SCF integral mode      SCFMode         .... Direct
   Integral package                     .... LIBINT
 Reset frequency        DirectResetFreq ....    20
 Integral Threshold     Thresh          ....  2.500e-11 Eh
 Primitive CutOff       TCut            ....  2.500e-12 Eh

Convergence Tolerance:
 Convergence Check Mode ConvCheckMode   .... Total+1el-Energy
 Convergence forced     ConvForced      .... 1
 Energy Change          TolE            ....  1.000e-08 Eh
 1-El. energy change                    ....  1.000e-05 Eh
 Orbital Gradient       TolG            ....  1.000e-05
 Orbital Rotation angle TolX            ....  1.000e-05
 DIIS Error             TolErr          ....  5.000e-07


Diagonalization of the overlap matrix:
Smallest eigenvalue                        ... 1.172e-04
Time for diagonalization                   ...    0.437 sec
Threshold for overlap eigenvalues          ... 1.000e-08
Number of eigenvalues below threshold      ... 0
Time for construction of square roots      ...    0.311 sec
Total time needed                          ...    0.754 sec

-------------------
DFT GRID GENERATION
-------------------

General Integration Accuracy     IntAcc      ...  4.670
Radial Grid Type                 RadialGrid  ... Gauss-Chebyshev
Angular Grid (max. acc.)         AngularGrid ... Lebedev-302
Angular grid pruning method      GridPruning ... 3 (G Style)
Weight generation scheme         WeightScheme... Becke
Basis function cutoff            BFCut       ...    1.0000e-11
Integration weight cutoff        WCut        ...    1.0000e-14
Grids for H and He will be reduced by one unit

# of grid points (after initial pruning)     ... 774634 (   0.1 sec)
# of grid points (after weights+screening)   ... 658810 (  17.6 sec)
nearest neighbour list constructed           ...    0.0 sec
Grid point re-assignment to atoms done       ...    0.1 sec
Grid point division into batches done        ...    2.3 sec
Reduced shell lists constructed in    3.9 sec

Total number of grid points                  ...   658810
Total number of batches                      ...    10364
Average number of points per batch           ...       63
Average number of grid points per atom       ...     4672
Average number of shells per batch           ...   106.63 (14.22%)
Average number of basis functions per batch  ...   224.47 (13.46%)
Average number of large shells per batch     ...    64.83 (60.80%)
Average number of large basis fcns per batch ...   138.88 (61.87%)
Maximum spatial batch extension              ...  22.48, 17.60, 17.79 au
Average spatial batch extension              ...   0.33,  0.28,  0.28 au

Time for grid setup =   21.963 sec

------------------------------
INITIAL GUESS: MODEL POTENTIAL
------------------------------
Loading Hartree-Fock densities                     ... done
Calculating cut-offs                               ... done
Setting up the integral package                    ... done
Initializing the effective Hamiltonian             ... done
Starting the Coulomb interaction                   ... done (   2.9 sec)
Reading the grid                                   ... done
Mapping shells                                     ... done
Starting the XC term evaluation                    ... done (   2.1 sec)
  promolecular density results
     # of electrons  =    763.980512718
     EX              =   -743.878249389
     EC              =    -26.782880935
     EX+EC           =   -770.661130325
Transforming the Hamiltonian                       ... done (   0.2 sec)
Diagonalizing the Hamiltonian                      ... done (   0.4 sec)
Back transforming the eigenvectors                 ... done (   0.1 sec)
Now organizing SCF variables                       ... done
                      ------------------
                      INITIAL GUESS DONE (  27.8 sec)
                      ------------------
--------------------
COSX GRID GENERATION
--------------------

General Integration Accuracy     IntAcc      ...  3.340
Radial Grid Type                 RadialGrid  ... Gauss-Chebyshev
Angular Grid (max. acc.)         AngularGrid ... Lebedev-50
Angular grid pruning method      GridPruning ... 3 (G Style)
Weight generation scheme         WeightScheme... Becke
Basis function cutoff            BFCut       ...    1.0000e-11
Integration weight cutoff        WCut        ...    1.0000e-14
Grids for H and He will be reduced by one unit

# of grid points (after initial pruning)     ...  72922 (   0.0 sec)
# of grid points (after weights+screening)   ...  65048 (   1.7 sec)
nearest neighbour list constructed           ...    0.0 sec
Grid point re-assignment to atoms done       ...    0.0 sec
Grid point division into batches done        ...    0.0 sec
Reduced shell lists constructed in    0.2 sec

Total number of grid points                  ...    65048
Total number of batches                      ...     1094
Average number of points per batch           ...       59
Average number of grid points per atom       ...      461
Average number of shells per batch           ...   125.79 (16.77%)
Average number of basis functions per batch  ...   266.81 (16.00%)
Average number of large shells per batch     ...    75.93 (60.36%)
Average number of large basis fcns per batch ...   164.85 (61.79%)
Maximum spatial batch extension              ...  35.18, 17.19, 15.04 au
Average spatial batch extension              ...   0.90,  0.55,  0.52 au

Overlap Fitting                  UseSFitting ... on
Constructing numerical overlap ... done (      0.1 sec)
Inverting numerical overlap    ... done (      0.1 sec)
Obtaining analytic overlap     ... done (      0.0 sec)
Final contraction and storage  ... done (      0.2 sec)


General Integration Accuracy     IntAcc      ...  3.670
Radial Grid Type                 RadialGrid  ... Gauss-Chebyshev
Angular Grid (max. acc.)         AngularGrid ... Lebedev-50
Angular grid pruning method      GridPruning ... 3 (G Style)
Weight generation scheme         WeightScheme... Becke
Basis function cutoff            BFCut       ...    1.0000e-11
Integration weight cutoff        WCut        ...    1.0000e-14
Grids for H and He will be reduced by one unit

# of grid points (after initial pruning)     ...  90810 (   0.0 sec)
# of grid points (after weights+screening)   ...  80668 (   2.0 sec)
nearest neighbour list constructed           ...    0.0 sec
Grid point re-assignment to atoms done       ...    0.0 sec
Grid point division into batches done        ...    0.0 sec
Reduced shell lists constructed in    0.3 sec

Total number of grid points                  ...    80668
Total number of batches                      ...     1329
Average number of points per batch           ...       60
Average number of grid points per atom       ...      572
Average number of shells per batch           ...   123.76 (16.50%)
Average number of basis functions per batch  ...   262.70 (15.75%)
Average number of large shells per batch     ...    74.31 (60.04%)
Average number of large basis fcns per batch ...   161.04 (61.30%)
Maximum spatial batch extension              ...  21.56, 17.69, 16.93 au
Average spatial batch extension              ...   0.85,  0.52,  0.49 au

Overlap Fitting                  UseSFitting ... on
Constructing numerical overlap ... done (      0.2 sec)
Inverting numerical overlap    ... done (      0.1 sec)
Obtaining analytic overlap     ... done (      0.0 sec)
Final contraction and storage  ... done (      0.2 sec)


General Integration Accuracy     IntAcc      ...  4.010
Radial Grid Type                 RadialGrid  ... Gauss-Chebyshev
Angular Grid (max. acc.)         AngularGrid ... Lebedev-110
Angular grid pruning method      GridPruning ... 3 (G Style)
Weight generation scheme         WeightScheme... Becke
Basis function cutoff            BFCut       ...    1.0000e-11
Integration weight cutoff        WCut        ...    1.0000e-14
Grids for H and He will be reduced by one unit

# of grid points (after initial pruning)     ... 177928 (   0.0 sec)
# of grid points (after weights+screening)   ... 156163 (   4.1 sec)
nearest neighbour list constructed           ...    0.0 sec
Grid point re-assignment to atoms done       ...    0.0 sec
Grid point division into batches done        ...    0.1 sec
Reduced shell lists constructed in    0.5 sec

Total number of grid points                  ...   156163
Total number of batches                      ...     2512
Average number of points per batch           ...       62
Average number of grid points per atom       ...     1108
Average number of shells per batch           ...   116.97 (15.60%)
Average number of basis functions per batch  ...   247.80 (14.86%)
Average number of large shells per batch     ...    71.59 (61.20%)
Average number of large basis fcns per batch ...   154.67 (62.41%)
Maximum spatial batch extension              ...  22.03, 19.86, 17.53 au
Average spatial batch extension              ...   0.61,  0.45,  0.43 au

Overlap Fitting                  UseSFitting ... on
Constructing numerical overlap ... done (      0.3 sec)
Inverting numerical overlap    ... done (      0.1 sec)
Obtaining analytic overlap     ... done (      0.0 sec)
Final contraction and storage  ... done (      0.2 sec)

Time for X-Grid setup             =   10.667 sec
--------------
SCF ITERATIONS
--------------
ITER       Energy         Delta-E        Max-DP      RMS-DP      [F,P]     Damp
               ***  Starting incremental Fock matrix formation  ***
  0  -7511.3455857017   0.000000000000 0.08784636  0.00088254  0.2271882 0.7000
  1  -7512.2702872294  -0.924701527703 0.04636701  0.00060658  0.0987907 0.7000
                               ***Turning on DIIS***
  2  -7512.6542310493  -0.383943819943 0.09732858  0.00106881  0.0429512 0.0000
  3  -7513.2618455312  -0.607614481894 0.07572979  0.00049399  0.0488650 0.0000
  4  -7513.3974817673  -0.135636236089 0.01677176  0.00013309  0.0205831 0.0000
  5  -7513.4050517267  -0.007569959391 0.00853639  0.00005425  0.0121768 0.0000
                      *** Initiating the SOSCF procedure ***
                           *** Shutting down DIIS ***
                      *** Re-Reading the Fockian *** 
                      *** Removing any level shift *** 
ITER      Energy       Delta-E        Grad      Rot      Max-DP    RMS-DP
  6  -7513.40672580  -0.0016740689  0.002179  0.002179  0.003023  0.000031
               *** Restarting incremental Fock matrix formation ***
  7  -7513.40718837  -0.0004625753  0.001497  0.008785  0.001867  0.000028
  8  -7513.40747625  -0.0002878835  0.000473  0.008408  0.002239  0.000031
  9  -7513.40748399  -0.0000077347  0.000896  0.003046  0.001817  0.000012
 10  -7513.40755696  -0.0000729686  0.000191  0.001080  0.000620  0.000006
 11  -7513.40755569   0.0000012650  0.000179  0.000767  0.000393  0.000003
 12  -7513.40756197  -0.0000062793  0.000039  0.000125  0.000149  0.000001
 13  -7513.40756177   0.0000001974  0.000050  0.000072  0.000080  0.000001
 14  -7513.40756210  -0.0000003275  0.000005  0.000036  0.000030  0.000000
 15  -7513.40756208   0.0000000206  0.000007  0.000014  0.000019  0.000000
                  ***Gradient check signals convergence***
              ***Rediagonalizing the Fockian in SOSCF/NRSCF***

               *****************************************************
               *                     SUCCESS                       *
               *           SCF CONVERGED AFTER  16 CYCLES          *
               *****************************************************

Setting up the final grid:

General Integration Accuracy     IntAcc      ...  5.010
Radial Grid Type                 RadialGrid  ... Gauss-Chebyshev
Angular Grid (max. acc.)         AngularGrid ... Lebedev-434
Angular grid pruning method      GridPruning ... 3 (G Style)
Weight generation scheme         WeightScheme... Becke
Basis function cutoff            BFCut       ...    1.0000e-11
Integration weight cutoff        WCut        ...    1.0000e-14
Grids for H and He will be reduced by one unit

# of grid points (after initial pruning)     ... 1365232 (   0.1 sec)
# of grid points (after weights+screening)   ... 1157329 (  30.9 sec)
nearest neighbour list constructed           ...    0.0 sec
[...]
  63   35200.0    284.1   0.064256653   0.60097  -0.13631   0.11781   0.75400
  64   35343.5    282.9   0.017020588   0.15854   0.25414  -0.06613   0.29930
  65   35521.0    281.5   0.231017883   2.14109  -0.23843  -1.16834   0.84807
  66   35714.0    280.0   0.283490735   2.61322  -0.09675  -0.44043   1.55238
  67   35851.3    278.9   0.112326403   1.03146   0.26645  -0.66367  -0.72112
  68   36134.0    276.7   0.020868522   0.19013   0.09044   0.10482   0.41348
  69   36323.1    275.3   0.041279964   0.37414   0.22396  -0.10791  -0.55887
  70   36499.6    274.0   0.078638376   0.70929  -0.26734   0.11120   0.79085
  71   36700.0    272.5   0.091735712   0.82290   0.07449   0.86095  -0.27590
  72   36778.0    271.9   0.070421056   0.63036   0.15376   0.24412  -0.73968
  73   37169.3    269.0   0.026608524   0.23567   0.09195  -0.33549  -0.33862
  74   37278.3    268.3   0.023194949   0.20484  -0.19526   0.09090  -0.39806
  75   37633.7    265.7   0.035624879   0.31164  -0.03175   0.27614   0.48413
  76   37931.6    263.6   0.035856806   0.31120  -0.05872  -0.51709   0.20094
  77   38053.4    262.8   0.021536920   0.18632  -0.14118   0.05741  -0.40385
  78   38295.5    261.1   0.017901172   0.15389  -0.00792   0.02482  -0.39142
  79   38398.4    260.4   0.007932089   0.06801  -0.08490   0.19722   0.14799
  80   38459.8    260.0   0.069008368   0.59070   0.06800  -0.01266  -0.76545
  81   38492.4    259.8   0.004670859   0.03995   0.00918   0.16112  -0.11792
  82   38637.1    258.8   0.091612142   0.78059   0.52062  -0.60135   0.38461
  83   38856.2    257.4   0.069788180   0.59129   0.40858  -0.36688  -0.53828
  84   38948.0    256.8   0.015817930   0.13370   0.09138  -0.01674  -0.35366
  85   39065.4    256.0   0.010202328   0.08598   0.13035   0.19613   0.17470
  86   39385.5    253.9   0.019717260   0.16481  -0.18070   0.35484   0.07902
  87   39398.4    253.8   0.003597617   0.03006  -0.12600   0.11897   0.00551
  88   39548.1    252.9   0.037576341   0.31280  -0.26084   0.35848   0.34097
  89   39660.2    252.1   0.110916776   0.92070   0.65562  -0.55996   0.42107
  90   39764.9    251.5   0.074939177   0.62042  -0.05210  -0.04209  -0.78481
  91   40011.0    249.9   0.059401136   0.48876   0.01255   0.14675   0.68342
  92   40116.2    249.3   0.025923407   0.21274  -0.38434   0.14102  -0.21245
  93   40130.5    249.2   0.022646888   0.18578  -0.26831   0.06199  -0.33159
  94   40289.7    248.2   0.084841966   0.69325  -0.27893   0.40910  -0.66939
  95   40326.0    248.0   0.012865673   0.10503  -0.05680   0.23770   0.21285

-----------------------------------------------------------------------------
         ABSORPTION SPECTRUM VIA TRANSITION VELOCITY DIPOLE MOMENTS
-----------------------------------------------------------------------------
State   Energy  Wavelength   fosc         P2         PX        PY        PZ  
        (cm-1)    (nm)                  (au**2)     (au)      (au)      (au) 
-----------------------------------------------------------------------------
   0    9568.6   1045.1   1.647368556   0.10773   0.23096  -0.23280   0.01395
   1   12266.6    815.2   0.037676522   0.00316   0.00771   0.02101   0.05155
   2   15431.1    648.0   0.370903071   0.03912  -0.13645   0.14310  -0.00451
   3   15982.5    625.7   0.262151043   0.02864  -0.11138   0.12455  -0.02679
   4   16732.7    597.6   0.356426905   0.04076   0.16165  -0.11370   0.04127
   5   21596.3    463.0   0.235726359   0.03479   0.02929  -0.06759   0.17137
   6   21957.5    455.4   0.593909424   0.08913   0.22626  -0.19305  -0.02580
   7   22606.3    442.4   0.103069226   0.01592   0.08894  -0.07874  -0.04260
   8   22891.5    436.8   0.030146664   0.00472  -0.01168   0.00202  -0.06765
   9   23092.3    433.0   0.004145417   0.00065  -0.00658   0.00579   0.02403
  10   23606.7    423.6   0.043545205   0.00703  -0.06372   0.05428   0.00435
  11   24009.5    416.5   0.003684734   0.00060   0.01331  -0.00946   0.01838
  12   24697.8    404.9   0.113250577   0.01912   0.00595   0.04815   0.12947
  13   24981.1    400.3   0.007670360   0.00131  -0.01398  -0.01375  -0.03042
  14   25467.1    392.7   0.147186467   0.02562   0.12205  -0.10352   0.00232
  15   25865.9    386.6   0.064722213   0.01144  -0.07801   0.07312   0.00323
  16   26524.3    377.0   0.019669584   0.00357  -0.02658   0.00925   0.05267
  17   26681.5    374.8   0.129589838   0.02363  -0.06474   0.13827  -0.01793
  18   26811.4    373.0   0.121815005   0.02232  -0.13101   0.03159   0.06451
  19   26915.8    371.5   0.005347212   0.00098  -0.00641   0.03054  -0.00317
  20   27087.2    369.2   0.028177352   0.00522  -0.00002   0.04411  -0.05719
  21   27364.3    365.4   0.014479546   0.00271  -0.04086   0.03008  -0.01156
  22   27560.3    362.8   0.012287945   0.00231   0.03094  -0.03421  -0.01368
  23   27826.0    359.4   0.039356051   0.00748  -0.05202   0.03280   0.06085
  24   27979.5    357.4   0.000678784   0.00013   0.00389   0.00943  -0.00507
  25   28234.6    354.2   0.001146213   0.00022   0.01487  -0.00037  -0.00003
  26   28518.0    350.7   0.013702753   0.00267  -0.00046  -0.04842  -0.01807
  27   28737.7    348.0   0.019249382   0.00378  -0.04422   0.03154  -0.02882
  28   28765.3    347.6   0.011807676   0.00232   0.00639  -0.04492   0.01620
  29   28918.0    345.8   0.072290825   0.01429   0.04616  -0.04141   0.10218
  30   29242.7    342.0   0.454941006   0.09092   0.01934  -0.02508  -0.29987
  31   29293.6    341.4   0.195755694   0.03919   0.00225  -0.03275  -0.19523
  32   29817.1    335.4   0.058668415   0.01196   0.02626  -0.08037   0.06933
  33   30111.5    332.1   0.000729533   0.00015   0.00824   0.00398   0.00815
  34   30145.7    331.7   0.058491760   0.01205  -0.04491   0.09922  -0.01381
  35   30209.5    331.0   0.028983035   0.00598  -0.01620   0.07109  -0.02585
  36   30506.6    327.8   0.048177492   0.01004   0.05980  -0.06725   0.04412
  37   30818.2    324.5   0.034309989   0.00723  -0.03437   0.06754  -0.03852
  38   30972.4    322.9   0.003637028   0.00077   0.00128   0.02380   0.01420
  39   31197.9    320.5   0.034971807   0.00746   0.05886  -0.04860  -0.04038
  40   31330.9    319.2   0.034158576   0.00731  -0.01949   0.01464  -0.08198
  41   31438.8    318.1   0.064172287   0.01379  -0.00592  -0.09047   0.07463
  42   31503.9    317.4   0.166226391   0.03579  -0.03416  -0.03249   0.18322
  43   31807.2    314.4   0.072856974   0.01584   0.05236   0.02397  -0.11190
  44   31963.3    312.9   0.030536307   0.00667  -0.05358   0.04614   0.04088
  45   32060.2    311.9   0.003766784   0.00083  -0.01580   0.00805   0.02260
  46   32188.8    310.7   0.155799761   0.03428   0.12967  -0.13214   0.00108
  47   32786.5    305.0   0.158418088   0.03550  -0.03607   0.11796  -0.14241
  48   32963.9    303.4   0.209846192   0.04728   0.14051  -0.00277  -0.16591
  49   33182.3    301.4   0.069410794   0.01574  -0.00069  -0.03840  -0.11944
  50   33373.5    299.6   0.040478858   0.00923   0.03881   0.04103  -0.07774
  51   33420.3    299.2   0.630501822   0.14401  -0.11900   0.36009  -0.01375
  52   33596.2    297.7   0.354629060   0.08143   0.15490  -0.02034  -0.23879
  53   33797.3    295.9   0.004658360   0.00108   0.00492  -0.02147  -0.02431
  54   34017.6    294.0   0.002910547   0.00068   0.00730   0.00539  -0.02438
  55   34110.5    293.2   0.114508264   0.02670  -0.08604   0.09543  -0.10092
  56   34209.6    292.3   0.039249328   0.00918  -0.05109   0.07998  -0.01303
  57   34398.4    290.7   0.038030863   0.00894  -0.03088   0.06227  -0.06410
  58   34569.7    289.3   0.001473671   0.00035  -0.01831  -0.00356  -0.00057
  59   34652.2    288.6   0.439795396   0.10416  -0.00142  -0.05511   0.31799
  60   34702.2    288.2   0.085718240   0.02033  -0.00755  -0.04842   0.13390
  61   34853.2    286.9   0.003067794   0.00073  -0.00864   0.01985   0.01619
  62   34925.0    286.3   0.049088098   0.01172  -0.02597  -0.01037  -0.10457
  63   35200.0    284.1   0.054748359   0.01317  -0.01781   0.01854   0.11185
  64   35343.5    282.9   0.012022001   0.00290   0.03510  -0.00873   0.03994
  65   35521.0    281.5   0.198119052   0.04810  -0.03786  -0.17383   0.12824
  66   35714.0    280.0   0.245641032   0.05996  -0.01390  -0.06608   0.23537
  67   35851.3    278.9   0.093598520   0.02293   0.03965  -0.09719  -0.10916
  68   36134.0    276.7   0.017176144   0.00424   0.01366   0.01711   0.06134
  69   36323.1    275.3   0.032322113   0.00802   0.03387  -0.01378  -0.08178
  70   36499.6    274.0   0.067783014   0.01691  -0.04087   0.01683   0.12229
  71   36700.0    272.5   0.086099015   0.02160   0.01384   0.13958  -0.04384
  72   36778.0    271.9   0.059837352   0.01504   0.02059   0.03294  -0.11632
  73   37169.3    269.0   0.025529556   0.00649   0.02125  -0.05517  -0.05469
  74   37278.3    268.3   0.019101279   0.00487  -0.02974   0.01494  -0.06131
  75   37633.7    265.7   0.029643773   0.00762  -0.00284   0.04434   0.07517
  76   37931.6    263.6   0.028335844   0.00735  -0.00908  -0.07990   0.02966
  77   38053.4    262.8   0.017028825   0.00443  -0.02175   0.00969  -0.06214
  78   38295.5    261.1   0.014336647   0.00375  -0.00137   0.00371  -0.06113
  79   38398.4    260.4   0.006426217   0.00169  -0.01247   0.02981   0.02534
  80   38459.8    260.0   0.055915523   0.01470   0.01046   0.00085  -0.12078
  81   38492.4    259.8   0.004401244   0.00116   0.00010   0.02714  -0.02053
  82   38637.1    258.8   0.077963099   0.02059   0.08373  -0.09864   0.06201
  83   38856.2    257.4   0.059370954   0.01577   0.06769  -0.06094  -0.08644
  84   38948.0    256.8   0.011392462   0.00303   0.01672  -0.00285  -0.05239
  85   39065.4    256.0   0.008128799   0.00217   0.02286   0.03016   0.02716
  86   39385.5    253.9   0.016718600   0.00450  -0.02860   0.05935   0.01263
  87   39398.4    253.8   0.002648809   0.00071  -0.02120   0.01614  -0.00173
  88   39548.1    252.9   0.032462774   0.00877  -0.04345   0.05994   0.05738
  89   39660.2    252.1   0.090430930   0.02451   0.10742  -0.09185   0.06735
  90   39764.9    251.5   0.065353755   0.01776  -0.00832  -0.00768  -0.13279
  91   40011.0    249.9   0.049617734   0.01357   0.00002   0.02441   0.11390
  92   40116.2    249.3   0.020006711   0.00549  -0.06267   0.02046  -0.03376
  93   40130.5    249.2   0.019164814   0.00526  -0.04447   0.01145  -0.05610
  94   40289.7    248.2   0.073553233   0.02025  -0.04427   0.06746  -0.11723
  95   40326.0    248.0   0.010242381   0.00282  -0.00888   0.03991   0.03393

-------------------------------------------------------------------
                             CD SPECTRUM
-------------------------------------------------------------------
State   Energy Wavelength       R         MX        MY        MZ   
        (cm-1)   (nm)       (1e40*cgs)   (au)      (au)      (au)  
-------------------------------------------------------------------
   0    9568.6   1045.1    -11.93720  -0.65552  -0.40099   4.19255
   1   12266.6    815.2    -20.86797  -1.33538  -0.51489   0.44280
   2   15431.1    648.0     -4.53439  -0.83413  -0.85745  -2.36816
   3   15982.5    625.7    -11.17645  -0.14757  -0.43072  -1.64481
   4   16732.7    597.6     -2.93307  -1.26082  -0.54636   3.53659
   5   21596.3    463.0    302.16482  -2.74674  -0.15198  -0.28514
   6   21957.5    455.4    -95.78201   1.56683   1.02558   4.25351
   7   22606.3    442.4    -20.74146   1.46006   0.69082   1.72930
   8   22891.5    436.8      2.24557   0.78290  -0.21804  -0.09388
   9   23092.3    433.0      0.60885  -0.71252  -0.31135  -0.12605
  10   23606.7    423.6      1.97435  -0.17396  -0.08265  -1.19860
  11   24009.5    416.5      1.61448  -0.66490  -0.21764   0.53453
  12   24697.8    404.9     21.01370  -1.23953   0.65696  -0.25522
  13   24981.1    400.3    -32.93779   0.26992  -0.20900  -0.54685
  14   25467.1    392.7    -50.15603   0.27854   0.07601   1.68200
  15   25865.9    386.6     21.66980   0.30312   0.27816  -1.51067
  16   26524.3    377.0     29.43297  -1.82805  -0.86704  -0.97777
  17   26681.5    374.8     44.06433  -0.30750  -0.61980  -2.16251
  18   26811.4    373.0    -49.96799  -1.85516  -0.76354  -3.04520
  19   26915.8    371.5     16.37711  -0.49908  -0.39255  -0.02167
  20   27087.2    369.2    -41.70124   1.72986   0.85762   0.35113
  21   27364.3    365.4    -23.49743  -0.45589  -0.67666  -1.23098
  22   27560.3    362.8    -10.55557   1.05687   0.54137   0.84691
  23   27826.0    359.4    -25.34534  -2.35045  -1.21007  -1.15425
  24   27979.5    357.4      2.96413   0.07334  -0.09604   0.20364
  25   28234.6    354.2      4.41042  -0.10089   0.13800   0.07705
  26   28518.0    350.7    -13.81212   0.08179  -0.19420   0.11211
  27   28737.7    348.0    -20.00459   0.86983   0.27612  -1.15660
  28   28765.3    347.6      9.74698  -0.23805   0.33050   0.56445
  29   28918.0    345.8    -14.38044  -6.00580  -4.02601   1.00543
  30   29242.7    342.0    -13.58328   6.60285   1.77782   0.29098
  31   29293.6    341.4    -67.43945   4.27368   1.01999  -0.27252
  32   29817.1    335.4    -37.68240  -1.04891   0.04703   0.82995
  33   30111.5    332.1      4.63334   0.08639   0.08010  -0.39616
  34   30145.7    331.7     89.34996  -0.65005  -0.91645  -1.24812
  35   30209.5    331.0     39.75710   0.32215  -0.28043  -0.22181
  36   30506.6    327.8    -19.27141  -0.57156   0.20950   1.40510
  37   30818.2    324.5     19.98934  -0.24926  -1.00244  -1.06104
  38   30972.4    322.9     35.17982  -0.87896  -0.70046  -0.29670
  39   31197.9    320.5    -35.31215   3.02903   2.22437   1.36559
  40   31330.9    319.2    129.39907   2.39964   1.17450   0.61847
  41   31438.8    318.1    -25.94216  -1.20781   0.26547   0.43168
  42   31503.9    317.4    -66.29344  -4.92238  -1.79411  -0.99476
  43   31807.2    314.4    -93.87407   3.75566   1.78610   1.68867
  44   31963.3    312.9      5.43348  -2.50040  -1.90170  -1.32167
  45   32060.2    311.9      8.67777  -0.10568   0.02017  -0.29991
  46   32188.8    310.7     21.64338   1.80143   1.87683   3.29653
  47   32786.5    305.0    130.45284   4.88663   2.65335   1.51368
  48   32963.9    303.4    -491.42440   6.86929   4.13883   3.99308
  49   33182.3    301.4    -107.28603   2.07461  -0.21915  -0.51373
  50   33373.5    299.6    -108.49676   3.16661   1.42841   1.42720
  51   33420.3    299.2    1497.96756  -2.16016  -3.45321  -5.01792
  52   33596.2    297.7    -758.27161   8.23154   3.94857   3.11747
  53   33797.3    295.9     37.72631   0.32055   0.43226   0.63861
  54   34017.6    294.0     -1.11958   0.84577   1.11488   0.43984
  55   34110.5    293.2     61.17519   1.74963   0.18122  -1.01110
  56   34209.6    292.3    -31.73190   0.96794   0.73525  -0.80231
  57   34398.4    290.7     -0.71999   1.72329   0.82280   0.01015
  58   34569.7    289.3     -1.90347  -0.13851  -0.10508  -0.36220
  59   34652.2    288.6    -263.42299  -7.82348  -2.19465   0.13349
  60   34702.2    288.2    -59.11203  -3.32386  -0.93815  -0.22900
  61   34853.2    286.9     -4.17978  -0.34005  -0.06879   0.07031
  62   34925.0    286.3     48.18158   1.97067   0.37635  -0.21563
  63   35200.0    284.1    -65.40438  -2.91663  -1.00022  -0.00301
  64   35343.5    282.9    -54.52053  -0.13596   0.76147   1.05644
  65   35521.0    281.5    -591.48137  -4.30409  -1.61880  -0.48143
  66   35714.0    280.0    -165.65187  -7.04774  -2.87778  -0.80300
  67   35851.3    278.9    1127.30009   6.25819   5.55931   3.82777
  68   36134.0    276.7     24.30941  -0.68720   0.01443  -0.10276
  69   36323.1    275.3    -34.40318   2.35854   0.80143   0.52928
  70   36499.6    274.0    -24.06721  -3.16826  -1.05005  -0.79427
  71   36700.0    272.5    -287.30851   2.62546   1.13836  -0.15664
  72   36778.0    271.9    -159.80136   4.60701   2.71593   0.93752
  73   37169.3    269.0    107.31227   1.12070   0.56655   1.08743
  74   37278.3    268.3     87.48313   2.00067   1.17807   0.21997
  75   37633.7    265.7    -60.29107  -1.21411   0.30683   0.27369
  76   37931.6    263.6    -84.14612  -1.25745  -0.76131  -0.55007
  77   38053.4    262.8    -32.35146   0.96533  -0.23548  -0.71079
  78   38295.5    261.1     15.83542   2.22719   1.14739   0.19930
  79   38398.4    260.4     25.75588  -0.33113  -0.26140  -0.57992
  80   38459.8    260.0     42.55522   2.90285   0.96392   0.47777
  81   38492.4    259.8     42.19339  -0.85720  -1.41703  -0.48484
  82   38637.1    258.8      1.31323  -1.71459  -0.59473   1.37653
  83   38856.2    257.4     37.39705   3.07033   1.68311   1.47808
  84   38948.0    256.8      9.03219   2.67626   2.00858   0.70474
  85   39065.4    256.0     28.95816  -0.15087  -0.34188  -0.20681
  86   39385.5    253.9    -11.17901   0.15134   0.34151  -0.58729
  87   39398.4    253.8     -5.26219  -0.13259   0.07450  -0.58936
  88   39548.1    252.9     61.07401  -0.63180  -0.12899  -1.10759
  89   39660.2    252.1     -2.99080  -3.87792  -3.29018   1.69273
  90   39764.9    251.5      6.65447   2.12980   0.20265  -0.11628
  91   40011.0    249.9    114.59798  -2.73833  -1.01547  -0.44304
  92   40116.2    249.3    -37.02917   0.04799   0.42223  -0.54596
  93   40130.5    249.2     38.15074   1.48679   0.81850  -0.56193
  94   40289.7    248.2    -90.10444   4.21314   1.93547  -1.14374
  95   40326.0    248.0     -5.24785   0.77462   0.64652  -0.41070

sTD-DFT done

Total run time:        9.604 sec

           *** ORCA-CIS/TD-DFT FINISHED WITHOUT ERROR ***

-------------------------   --------------------
FINAL SINGLE POINT ENERGY     -7513.403550156081
-------------------------   --------------------


                            ***************************************
                            *     ORCA property calculations      *
                            ***************************************

                                    ---------------------
                                    Active property flags
                                    ---------------------
   (+) Dipole Moment


------------------------------------------------------------------------------
                       ORCA ELECTRIC PROPERTIES CALCULATION
------------------------------------------------------------------------------

Dipole Moment Calculation                       ... on
Quadrupole Moment Calculation                   ... off
Polarizability Calculation                      ... off
GBWName                                         ... 90_30_28_30_90.gbw
Electron density file                           ... 90_30_28_30_90.scfp
The origin for moment calculation is the CENTER OF MASS  = (-8.113379, 23.348508  2.427723)

-------------
DIPOLE MOMENT
-------------
                                X             Y             Z
Electronic contribution:     10.46454       9.77138     -35.35915
Nuclear contribution   :    -11.00484     -12.05102      38.29197
                        -----------------------------------------
Total Dipole Moment    :     -0.54030      -2.27964       2.93282
                        -----------------------------------------
Magnitude (a.u.)       :      3.75368
Magnitude (Debye)      :      9.54110



--------------------
Rotational spectrum 
--------------------
 
Rotational constants in cm-1:     0.000905     0.000128     0.000114 
Rotational constants in MHz :    27.125504     3.824765     3.430522 

 Dipole components along the rotational axes: 
x,y,z [a.u.] :     1.373985     3.080254    -1.647522 
x,y,z [Debye]:     3.492393     7.829383    -4.187667 

 

Timings for individual modules:

Sum of individual times         ...     1224.825 sec (=  20.414 min)
GTO integral calculation        ...        5.291 sec (=   0.088 min)   0.4 %
SCF iterations                  ...     1208.284 sec (=  20.138 min)  98.6 %
CIS module                      ...       11.250 sec (=   0.187 min)   0.9 %
                             ****ORCA TERMINATED NORMALLY****
TOTAL RUN TIME: 0 days 0 hours 20 minutes 26 seconds 835 msec
