      -----------------------------------------------------------      
     |                   =====================                   |     
     |                           x T B                           |     
     |                   =====================                   |     
     |                         S. Grimme                         |     
     |          Mulliken Center for Theoretical Chemistry        |     
     |                    University of Bonn                     |     
     |                Version 6.2 RC2 (SAW190805)                |     
      -----------------------------------------------------------      

   This program is distributed in the hope that it will be useful,
   but WITHOUT ANY WARRANTY; without even the implied warranty of
   MERCHANTABILITY or FITNESS FOR A PARTICULAR PURPOSE.
   
   FOR NON-COMMERCIAL, ACADEMIA USE ONLY.
   
   Cite this work as:
   * S. Grimme, C. Bannwarth, P. Shushkov, J. Chem. Theory Comput., 2017,
     13, 1989-2009. DOI: 10.1021/acs.jctc.7b00118
   * C. Bannwarth, S. Ehlert and S. Grimme., J. Chem. Theory Comput., 2019,
     15, 1652-1671. DOI: 10.1021/acs.jctc.8b01176
   * P. Pracht, E. Caldeweyher, S. Ehlert, S. Grimme, ChemRxiv, 2019, preprint.
     DOI: 10.26434/chemrxiv.8326202.v1
   
   for DFT-D4:
   * E. Caldeweyher, C. Bannwarth and S. Grimme, J. Chem. Phys., 2017,
     147, 034112. DOI: 10.1063/1.4993215
   * E. Caldeweyher, S. Ehlert, A. Hansen, H. Neugebauer, S. Spicher,
     C. Bannwarth and S. Grimme, J. Chem. Phys., 2019, 150, 154122.
     DOI: 10.1063/1.5090222
   
   for sTDA-xTB:
   * S. Grimme and C. Bannwarth, J. Chem. Phys., 2016, 145, 054103.
     DOI: 10.1063/1.4959605
   
   in the mass-spec context:
   * V. Asgeirsson, C. Bauer and S. Grimme, Chem. Sci., 2017, 8, 4879.
     DOI: 10.1039/c7sc00601b
   
   for metadynamics refer to:
   * S. Grimme, J. Chem. Theory Comput., 2019, 155, 2847-2862
     DOI: 10.1021/acs.jctc.9b00143
   
   with help from (in alphabetical order)
   C. Bannwarth, F. Bohle, G. Brandenburg, E. Caldeweyher, M. Checinski,
   S. Dohm, S. Ehlert, S. Ehrlich, F. März, H. Neugebauer, J. Pisarek,
   P. Pracht, P. Shushkov, and S. Spicher.
   
 * started run on 2021/06/17 at 23:26:57.065     

           -------------------------------------------------
          |                Calculation Setup                |
           -------------------------------------------------

          program call               : /ihome/ghutchison/geoffh/xtb/xtb /ihome/ghutchison/blp62/GA/running_GA/opt_GA/generations/2/2_44_44_44_2_10001.xyz -opt
          hostname                   : smp-n40
          coordinate file            : /ihome/ghutchison/blp62/GA/running_GA/opt_GA/generations/2/2_44_44_44_2_10001.xyz
          omp threads                :                    12
          number of atoms            :                    90
          number of electrons        :                   312
          charge                     :                     0
          spin                       :                   0.0
          first test random number   :      0.26520592046087


########################################################################
# WARNING! Please study the warnings concerning your input carefully
#  - XTBPATH is not set, using XTBHOME instead
#  - the use of '-opt' is discouraged, please use '--opt' next time
########################################################################

           ------------------------------------------------- 
          |                 G F N 2 - x T B                 |
          | Geometry, Frequencies, Noncovalent interactions |
          |            JCTC 2019 parametrisation            |
           ------------------------------------------------- 
             KAB for C  - Si     :                1.0500
             KAB for H  - Pd     :                0.9500
             k(s)              :                1.8500
             k(p)              :                2.2300
             k(d)              :                2.2300
             k(f)              :                2.0000
             kEN (H0ij)        :               -2.0000
             D4 a1             :                0.5200
             D4 a2             :                5.0000
             D4 s6             :                1.0000
             D4 s8             :                2.7000
             D4 s9             :                5.0000
             alphaj            :                2.0000

  Z AO/shell   Hii/eV     exponent
  1     Wed Apr 25 08:07:45 CEST 2018   EN: 2.200 GM2: 0.406  GM3: 0.0800  RAES: 1.40
     1s    -10.707211    1.230000
  6     Wed Apr 25 08:07:45 CEST 2018   EN: 2.550 GM2: 0.538  GM3: 0.1500  RAES: 3.00
     2s    -13.970922    2.096432
     2p    -10.063292    1.800000
  7     Wed Apr 25 08:07:45 CEST 2018   EN: 3.040 GM2: 0.461  GM3:-0.0640  RAES: 1.90
     2s    -16.686243    2.339881
     2p    -12.523956    2.014332
  8     Wed Apr 25 08:07:45 CEST 2018   EN: 3.440 GM2: 0.452  GM3:-0.0517  RAES: 1.80
     2s    -20.229985    2.439742
     2p    -15.503117    2.137023
 16     Tue Apr 24 11:44:34 CEST 2018   EN: 2.580 GM2: 0.340  GM3:-0.0502  RAES: 3.10
     3s    -20.029654    1.981333
     3p    -11.377694    2.025643
     3d     -0.420282    1.702555

           ------------------------------------------------- 
          |        Self-Consistent Charge Iterations        |
           ------------------------------------------------- 

          ...................................................
          :                      SETUP                      :
          :.................................................:
          :  # basis functions                 336          :
          :  # atomic orbitals                 328          :
          :  # shells                          164          :
          :  # electrons                       312          :
          :  max. iterations                   250          :
          :  Hamiltonian                  GFN2-xTB          :
          :  restarted?                      false          :
          :  GBSA solvation                  false          :
          :  PC potential                    false          :
          :  electronic temp.          300.0000000     K    :
          :  accuracy                    1.0000000          :
          :  -> integral cutoff          0.2500000E+02      :
          :  -> integral neglect         0.1000000E-07      :
          :  -> SCF convergence          0.1000000E-05 Eh   :
          :  -> wf. convergence          0.1000000E-03 e    :
          :  Broyden damping             0.4000000          :
          ...................................................

 iter      E             dE          RMSdq      gap      omega  full diag
   1   -171.4931348 -0.171493E+03  0.537E+00    0.88       0.0  T
   2   -171.5088737 -0.157389E-01  0.330E+00    0.74       1.0  T
   3   -171.1452515  0.363622E+00  0.253E+00    0.38       1.0  T
   4   -171.6760967 -0.530845E+00  0.710E-01    0.72       1.0  T
   5   -171.7044131 -0.283163E-01  0.338E-01    0.58       1.0  T
   6   -171.7099904 -0.557735E-02  0.194E-01    0.64       1.0  T
   7   -171.7137162 -0.372577E-02  0.800E-02    0.62       1.0  T
   8   -171.7140464 -0.330187E-03  0.474E-02    0.63       1.0  T
   9   -171.7142704 -0.224052E-03  0.177E-02    0.63       1.0  T
  10   -171.7142888 -0.184069E-04  0.934E-03    0.63       1.1  T
  11   -171.7142912 -0.241926E-05  0.393E-03    0.63       2.7  T
  12   -171.7142924 -0.116734E-05  0.175E-03    0.63       6.0  T
  13   -171.7142925 -0.971564E-07  0.101E-03    0.63      10.5  T
  14   -171.7142925 -0.387037E-07  0.562E-04    0.63      18.8  T
  15   -171.7142926 -0.845668E-08  0.312E-04    0.63      33.8  T

   *** convergence criteria satisfied after 15 iterations ***

         #    Occupation            Energy/Eh            Energy/eV
      -------------------------------------------------------------
         1        2.0000           -0.7634380             -20.7742
       ...           ...                  ...                  ...
       150        2.0000           -0.4052964             -11.0287
       151        2.0000           -0.3997896             -10.8788
       152        2.0000           -0.3964177             -10.7871
       153        2.0000           -0.3944129             -10.7325
       154        2.0000           -0.3752784             -10.2118
       155        2.0000           -0.3633463              -9.8872
       156        2.0000           -0.3530567              -9.6072 (HOMO)
       157        0.0000           -0.3299844              -8.9793 (LUMO)
       158        0.0000           -0.3270779              -8.9002
       159                         -0.3155526              -8.5866
       160                         -0.3116046              -8.4792
       161                         -0.3059258              -8.3247
       ...                                ...                  ...
       328                          1.0958800              29.8204
      -------------------------------------------------------------
                  HL-Gap            0.0230723 Eh            0.6278 eV
             Fermi-level           -0.3415424 Eh           -9.2938 eV

 SCC (total)                   0 d,  0 h,  0 min,  0.273 sec
 SCC setup                      ...        0 min,  0.002 sec (  0.828%)
 Dispersion                     ...        0 min,  0.005 sec (  1.796%)
 integral evaluation            ...        0 min,  0.023 sec (  8.514%)
 zeroth order Hamiltonian       ...        0 min,  0.001 sec (  0.399%)
 iterations                     ...        0 min,  0.221 sec ( 81.033%)
 molecular gradient             ...        0 min,  0.019 sec (  6.926%)
 printout                       ...        0 min,  0.001 sec (  0.443%)

         :::::::::::::::::::::::::::::::::::::::::::::::::::::
         ::                     SUMMARY                     ::
         :::::::::::::::::::::::::::::::::::::::::::::::::::::
         :: total energy            -168.964197945531 Eh    ::
         :: gradient norm              0.184328860218 Eh/a0 ::
         :: HOMO-LUMO gap              0.627829061983 eV    ::
         ::.................................................::
         :: SCC energy              -171.714292550420 Eh    ::
         :: -> isotropic ES            0.091580753816 Eh    ::
         :: -> anisotropic ES          0.011633244021 Eh    ::
         :: -> anisotropic XC          0.131637676563 Eh    ::
         :: -> dispersion             -0.132796312695 Eh    ::
         :: repulsion energy           2.750556825813 Eh    ::
         :: add. restraining           0.000000000000 Eh    ::
         :::::::::::::::::::::::::::::::::::::::::::::::::::::

      ----------------------------------------------------------- 
     |                   =====================                   |
     |                        A N C O P T                        |
     |                   =====================                   |
     |               Approximate Normal Coordinate               |
     |                Rational Function Optimizer                |
      ----------------------------------------------------------- 

          ...................................................
          :                      SETUP                      :
          :.................................................:
          :   optimization level            normal          :
          :   max. optcycles                   270          :
          :   ANC micro-cycles                  20          :
          :   degrees of freedom               264          :
          :.................................................:
          :   RF solver                   davidson          :
          :   input Hessian                  false          :
          :   write xtbopt.log                true          :
          :   linear?                        false          :
          :   energy convergence         0.5000000E-05 Eh   :
          :   grad. convergence          0.1000000E-02 Eh/α :
          :   maximium RF displ.         2.0000000          :
          :   Hlow (freq-cutoff)         0.5000000E-02      :
          :   Hmax (freq-cutoff)         5.0000000          :
          :   S6 in model hess.         20.0000000          :
          ...................................................

generating ANC from model Hessian ...
Using Lindh-Hessian (1995)
 Shifting diagonal of input Hessian by   4.994856819433828E-003
 Lowest  eigenvalues of input Hessian
   -0.000000   -0.000000   -0.000000    0.000000    0.000000    0.000000
    0.005000    0.005011    0.005017    0.005023    0.005046    0.005064
    0.005083    0.005228    0.005251    0.005375    0.005560    0.005657
 Highest eigenvalues
    2.279039    2.287454    2.516277    2.517926    2.575276    2.576363
 

........................................................................
.............................. CYCLE    1 ..............................
........................................................................
   1   -171.7142926 -0.171714E+03  0.129E-04    0.63       0.0  T
   2   -171.7142926  0.295984E-09  0.114E-04    0.63      92.7  T
   3   -171.7142926 -0.875701E-09  0.677E-05    0.63     155.6  T
     SCC iter.                  ...        0 min,  0.043 sec
     gradient                   ...        0 min,  0.018 sec
 * total energy  :  -168.9641980 Eh     change       -0.3610603E-07 Eh
   gradient norm :     0.1843283 Eh/α   predicted     0.0000000E+00 (-100.00%)
   displ. norm   :     0.4398911 α      lambda       -0.3820289E-01
   maximum displ.:     0.1280884 α      in ANC's #67, #74, #100, ...

........................................................................
.............................. CYCLE    2 ..............................
........................................................................
   1   -171.7877829 -0.171788E+03  0.473E-01    0.50       0.0  T
   2   -171.7848533  0.292958E-02  0.281E-01    0.55       1.0  T
   3   -171.7640466  0.208067E-01  0.410E-01    0.52       1.0  T
   4   -171.7893695 -0.253229E-01  0.720E-02    0.53       1.0  T
   5   -171.7897828 -0.413254E-03  0.386E-02    0.54       1.0  T
   6   -171.7898858 -0.103065E-03  0.226E-02    0.54       1.0  T
   7   -171.7899209 -0.350910E-04  0.106E-02    0.54       1.0  T
   8   -171.7899313 -0.103834E-04  0.515E-03    0.54       2.0  T
   9   -171.7899326 -0.132234E-05  0.295E-03    0.54       3.6  T
  10   -171.7899336 -0.952789E-06  0.134E-03    0.54       7.9  T
     SCC iter.                  ...        0 min,  0.136 sec
     gradient                   ...        0 min,  0.018 sec
 * total energy  :  -168.9927401 Eh     change       -0.2854215E-01 Eh
   gradient norm :     0.1088436 Eh/α   predicted    -0.2279766E-01 ( -20.13%)
   displ. norm   :     0.5083990 α      lambda       -0.2408502E-01
   maximum displ.:     0.1581180 α      in ANC's #50, #67, #56, ...

........................................................................
.............................. CYCLE    3 ..............................
........................................................................
   1   -171.8068734 -0.171807E+03  0.452E-01    0.36       0.0  T
   2   -171.7768603  0.300131E-01  0.448E-01    0.40       1.0  T
   3   -171.7712400  0.562028E-02  0.470E-01    0.44       1.0  T
   4   -171.8087889 -0.375489E-01  0.145E-01    0.38       1.0  T
   5   -171.8107543 -0.196538E-02  0.854E-02    0.38       1.0  T
   6   -171.8115824 -0.828066E-03  0.371E-02    0.38       1.0  T
   7   -171.8116165 -0.341487E-04  0.273E-02    0.38       1.0  T
   8   -171.8116846 -0.680561E-04  0.142E-02    0.38       1.0  T
   9   -171.8117014 -0.168428E-04  0.849E-03    0.38       1.2  T
  10   -171.8117131 -0.116887E-04  0.341E-03    0.38       3.1  T
  11   -171.8117142 -0.112985E-05  0.120E-03    0.38       8.8  T
  12   -171.8117143 -0.636959E-07  0.641E-04    0.38      16.4  T
     SCC iter.                  ...        0 min,  0.169 sec
     gradient                   ...        0 min,  0.018 sec
 * total energy  :  -169.0090200 Eh     change       -0.1627985E-01 Eh
   gradient norm :     0.0471779 Eh/α   predicted    -0.1515513E-01 (  -6.91%)
   displ. norm   :     0.5572299 α      lambda       -0.9284166E-02
   maximum displ.:     0.2350867 α      in ANC's #50, #25, #38, ...

........................................................................
.............................. CYCLE    4 ..............................
........................................................................
   1   -171.8119609 -0.171812E+03  0.377E-01    0.27       0.0  T
   2   -171.8076620  0.429884E-02  0.235E-01    0.28       1.0  T
   3   -171.7538666  0.537954E-01  0.492E-01    0.37       1.0  T
   4   -171.7994050 -0.455384E-01  0.240E-01    0.28       1.0  T
   5   -171.8110391 -0.116341E-01  0.105E-01    0.28       1.0  T
   6   -171.8132046 -0.216547E-02  0.292E-02    0.28       1.0  T
   7   -171.8132859 -0.812981E-04  0.180E-02    0.28       1.0  T
   8   -171.8132879 -0.200465E-05  0.136E-02    0.28       1.0  T
   9   -171.8133267 -0.388458E-04  0.533E-03    0.28       2.0  T
  10   -171.8133292 -0.252807E-05  0.326E-03    0.28       3.2  T
  11   -171.8133315 -0.228305E-05  0.948E-04    0.28      11.1  T
     SCC iter.                  ...        0 min,  0.161 sec
     gradient                   ...        0 min,  0.021 sec
 * total energy  :  -169.0163307 Eh     change       -0.7310763E-02 Eh
   gradient norm :     0.0383409 Eh/α   predicted    -0.6083477E-02 ( -16.79%)
   displ. norm   :     0.6632506 α      lambda       -0.8087815E-02
   maximum displ.:     0.2710125 α      in ANC's #50, #25, #30, ...

........................................................................
.............................. CYCLE    5 ..............................
........................................................................
   1   -171.8093491 -0.171809E+03  0.390E-01    0.19       0.0  T
   2   -171.7516460  0.577031E-01  0.495E-01    0.29       1.0  T
   3   -171.7034635  0.481825E-01  0.618E-01    0.34       1.0  T
   4   -171.7910493 -0.875858E-01  0.300E-01    0.23       1.0  T
   5   -171.8081384 -0.170891E-01  0.135E-01    0.19       1.0  T
   6   -171.8113148 -0.317641E-02  0.581E-02    0.20       1.0  T
   7   -171.8115144 -0.199589E-03  0.401E-02    0.20       1.0  T
   8   -171.8115692 -0.548381E-04  0.262E-02    0.19       1.0  T
   9   -171.8115981 -0.288414E-04  0.172E-02    0.19       1.0  T
  10   -171.8116545 -0.564906E-04  0.817E-03    0.19       1.3  T
  11   -171.8116736 -0.190685E-04  0.263E-03    0.19       4.0  T
  12   -171.8116735  0.817520E-07  0.214E-03    0.19       4.9  T
  13   -171.8116748 -0.125668E-05  0.460E-04    0.19      22.9  T
     SCC iter.                  ...        0 min,  0.181 sec
     gradient                   ...        0 min,  0.018 sec
 * total energy  :  -169.0224891 Eh     change       -0.6158376E-02 Eh
   gradient norm :     0.0386409 Eh/α   predicted    -0.5822832E-02 (  -5.45%)
   displ. norm   :     0.7177999 α      lambda       -0.8083136E-02
   maximum displ.:     0.3412066 α      in ANC's #25, #50, #20, ...

........................................................................
.............................. CYCLE    6 ..............................
........................................................................
   1   -171.7923591 -0.171792E+03  0.479E-01    0.14       0.0  T
   2   -171.6317300  0.160629E+00  0.794E-01    0.65       1.0  T
   3   -171.7838572 -0.152127E+00  0.328E-01    0.15       1.0  T
   4   -171.7728786  0.109786E-01  0.336E-01    0.16       1.0  T
   5   -171.7880825 -0.152038E-01  0.253E-01    0.14       1.0  T
   6   -171.7975931 -0.951066E-02  0.189E-01    0.15       1.0  T
   7   -171.8072757 -0.968262E-02  0.630E-02    0.13       1.0  T
   8   -171.8056441  0.163166E-02  0.866E-02    0.13       1.0  T
   9   -171.8077672 -0.212310E-02  0.304E-02    0.13       1.0  T
  10   -171.8079215 -0.154323E-03  0.240E-02    0.13       1.0  T
  11   -171.8080725 -0.151030E-03  0.969E-03    0.13       1.1  T
  12   -171.8081036 -0.310573E-04  0.651E-04    0.13      16.2  T
  13   -171.8081034  0.190290E-06  0.854E-04    0.13      12.3  T
  14   -171.8081036 -0.220418E-06  0.195E-04    0.13      54.2  T
     SCC iter.                  ...        0 min,  0.195 sec
     gradient                   ...        0 min,  0.018 sec
 * total energy  :  -169.0262685 Eh     change       -0.3779341E-02 Eh
   gradient norm :     0.0476179 Eh/α   predicted    -0.6123941E-02 (  62.04%)
   displ. norm   :     0.4920460 α      lambda       -0.6375079E-02
   maximum displ.:     0.1907073 α      in ANC's #25, #19, #30, ...

........................................................................
.............................. CYCLE    7 ..............................
........................................................................
   1   -171.8186615 -0.171819E+03  0.323E-01    0.11       0.0  T
   2   -171.6882046  0.130457E+00  0.660E-01    0.43       1.0  T
   3   -171.7595120 -0.713074E-01  0.451E-01    0.18       1.0  T
   4   -171.7644037 -0.489173E-02  0.419E-01    0.19       1.0  T
   5   -171.8136143 -0.492105E-01  0.171E-01    0.12       1.0  T
   6   -171.8206799 -0.706568E-02  0.914E-02    0.12       1.0  T
   7   -171.8216539 -0.973922E-03  0.703E-02    0.12       1.0  T
   8   -171.8210707  0.583170E-03  0.766E-02    0.12       1.0  T
   9   -171.8230556 -0.198493E-02  0.710E-03    0.11       1.5  T
  10   -171.8229891  0.665399E-04  0.148E-02    0.11       1.0  T
  11   -171.8230470 -0.578893E-04  0.789E-03    0.12       1.3  T
  12   -171.8230582 -0.111933E-04  0.493E-03    0.11       2.1  T
  13   -171.8230667 -0.853980E-05  0.434E-04    0.11      24.3  T
  14   -171.8230668 -0.464810E-07  0.165E-04    0.11      64.1  T
  15   -171.8230668  0.364025E-09  0.101E-04    0.11     104.6  T
     SCC iter.                  ...        0 min,  0.204 sec
     gradient                   ...        0 min,  0.017 sec
 * total energy  :  -169.0302594 Eh     change       -0.3990909E-02 Eh
   gradient norm :     0.0334343 Eh/α   predicted    -0.3959290E-02 (  -0.79%)
   displ. norm   :     0.5450558 α      lambda       -0.4779504E-02
   maximum displ.:     0.3116641 α      in ANC's #25, #19, #26, ...

........................................................................
.............................. CYCLE    8 ..............................
........................................................................
   1   -171.8105517 -0.171811E+03  0.343E-01    0.12       0.0  T
   2   -171.6933375  0.117214E+00  0.623E-01    0.33       1.0  T
   3   -171.7071833 -0.138457E-01  0.580E-01    0.27       1.0  T
   4   -171.8010021 -0.938188E-01  0.234E-01    0.14       1.0  T
   5   -171.8126061 -0.116040E-01  0.659E-02    0.12       1.0  T
   6   -171.8125490  0.571071E-04  0.567E-02    0.12       1.0  T
   7   -171.8128770 -0.328031E-03  0.367E-02    0.12       1.0  T
   8   -171.8129381 -0.610747E-04  0.177E-02    0.12       1.0  T
   9   -171.8129543 -0.162168E-04  0.796E-03    0.12       1.3  T
  10   -171.8129544 -0.115470E-06  0.520E-03    0.12       2.0  T
  11   -171.8129575 -0.310747E-05  0.348E-03    0.12       3.0  T
     SCC iter.                  ...        0 min,  0.159 sec
     gradient                   ...        0 min,  0.017 sec
 * total energy  :  -169.0311058 Eh     change       -0.8464669E-03 Eh
   gradient norm :     0.0602251 Eh/α   predicted    -0.3099714E-02 ( 266.19%)
   displ. norm   :     0.4323893 α      lambda       -0.6793318E-02
   maximum displ.:     0.1556930 α      in ANC's #25, #18, #11, ...

........................................................................
.............................. CYCLE    9 ..............................
........................................................................
   1   -171.8276635 -0.171828E+03  0.301E-01    0.12       0.0  T
   2   -171.7206240  0.107039E+00  0.592E-01    0.29       1.0  T
   3   -171.7419005 -0.212765E-01  0.528E-01    0.23       1.0  T
   4   -171.8235340 -0.816335E-01  0.175E-01    0.14       1.0  T
   5   -171.8291233 -0.558923E-02  0.570E-02    0.12       1.0  T
   6   -171.8291122  0.111005E-04  0.502E-02    0.12       1.0  T
   7   -171.8293496 -0.237411E-03  0.337E-02    0.12       1.0  T
   8   -171.8293874 -0.377839E-04  0.171E-02    0.12       1.0  T
   9   -171.8294199 -0.324930E-04  0.631E-03    0.12       1.7  T
  10   -171.8294235 -0.363475E-05  0.271E-03    0.12       3.9  T
  11   -171.8294224  0.111359E-05  0.231E-03    0.12       4.6  T
     SCC iter.                  ...        0 min,  0.154 sec
     gradient                   ...        0 min,  0.017 sec
 * total energy  :  -169.0345866 Eh     change       -0.3480784E-02 Eh
   gradient norm :     0.0237233 Eh/α   predicted    -0.4031708E-02 (  15.83%)
   displ. norm   :     0.5255918 α      lambda       -0.2921986E-02
   maximum displ.:     0.2678626 α      in ANC's #25, #19, #26, ...

........................................................................
.............................. CYCLE   10 ..............................
........................................................................
   1   -171.8292088 -0.171829E+03  0.257E-01    0.11       0.0  T
   2   -171.7213554  0.107853E+00  0.583E-01    0.26       1.0  T
   3   -171.7563907 -0.350353E-01  0.482E-01    0.19       1.0  T
   4   -171.8236686 -0.672779E-01  0.164E-01    0.12       1.0  T
   5   -171.8302932 -0.662459E-02  0.494E-02    0.11       1.0  T
   6   -171.8302197  0.735453E-04  0.457E-02    0.11       1.0  T
   7   -171.8305782 -0.358476E-03  0.235E-02    0.11       1.0  T
   8   -171.8305969 -0.187104E-04  0.120E-02    0.11       1.0  T
   9   -171.8306255 -0.286122E-04  0.444E-03    0.11       2.4  T
  10   -171.8306291 -0.366567E-05  0.211E-03    0.11       5.0  T
  11   -171.8306297 -0.550259E-06  0.136E-03    0.11       7.8  T
     SCC iter.                  ...        0 min,  0.150 sec
     gradient                   ...        0 min,  0.017 sec
 * total energy  :  -169.0363357 Eh     change       -0.1749102E-02 Eh
   gradient norm :     0.0274911 Eh/α   predicted    -0.1864591E-02 (   6.60%)
   displ. norm   :     0.6214725 α      lambda       -0.3019406E-02
   maximum displ.:     0.3174079 α      in ANC's #25, #19, #6, ...

........................................................................
.............................. CYCLE   11 ..............................
........................................................................
   1   -171.8239923 -0.171824E+03  0.294E-01    0.10       0.0  T
   2   -171.7217138  0.102279E+00  0.572E-01    0.23       1.0  T
   3   -171.7226931 -0.979353E-03  0.566E-01    0.25       1.0  T
   4   -171.8197575 -0.970643E-01  0.170E-01    0.12       1.0  T
   5   -171.8232694 -0.351192E-02  0.834E-02    0.11       1.0  T
   6   -171.8249260 -0.165658E-02  0.387E-02    0.11       1.0  T
   7   -171.8250209 -0.949503E-04  0.257E-02    0.11       1.0  T
   8   -171.8249508  0.701231E-04  0.200E-02    0.10       1.0  T
   9   -171.8250596 -0.108859E-03  0.592E-03    0.10       1.8  T
  10   -171.8250636 -0.393616E-05  0.372E-03    0.10       2.8  T
  11   -171.8250591  0.449778E-05  0.498E-03    0.10       2.1  T
     SCC iter.                  ...        0 min,  0.156 sec
     gradient                   ...        0 min,  0.017 sec
 * total energy  :  -169.0380254 Eh     change       -0.1689729E-02 Eh
   gradient norm :     0.0298215 Eh/α   predicted    -0.2092799E-02 (  23.85%)
   displ. norm   :     0.5110060 α      lambda       -0.3144903E-02
   maximum displ.:     0.1866101 α      in ANC's #25, #6, #19, ...

........................................................................
.............................. CYCLE   12 ..............................
........................................................................
   1   -171.8369542 -0.171837E+03  0.243E-01    0.12       0.0  T
   2   -171.8230188  0.139354E-01  0.233E-01    0.13       1.0  T
   3   -171.7022790  0.120740E+00  0.651E-01    0.40       1.0  T
   4   -171.8032215 -0.100942E+00  0.330E-01    0.16       1.0  T
   5   -171.8320704 -0.288489E-01  0.129E-01    0.12       1.0  T
   6   -171.8368374 -0.476698E-02  0.350E-02    0.12       1.0  T
   7   -171.8371184 -0.280970E-03  0.136E-02    0.12       1.0  T
   8   -171.8370307  0.876585E-04  0.195E-02    0.12       1.0  T
   9   -171.8371502 -0.119470E-03  0.312E-03    0.12       3.4  T
  10   -171.8371429  0.728584E-05  0.536E-03    0.12       2.0  T
  11   -171.8371523 -0.946565E-05  0.771E-04    0.12      13.7  T
  12   -171.8371519  0.401947E-06  0.125E-03    0.12       8.4  T
  13   -171.8371524 -0.440574E-06  0.471E-04    0.12      22.4  T
     SCC iter.                  ...        0 min,  0.186 sec
     gradient                   ...        0 min,  0.017 sec
 * total energy  :  -169.0400050 Eh     change       -0.1979568E-02 Eh
   gradient norm :     0.0182921 Eh/α   predicted    -0.1983066E-02 (   0.18%)
   displ. norm   :     0.6319502 α      lambda       -0.2136603E-02
   maximum displ.:     0.2590071 α      in ANC's #25, #6, #19, ...

........................................................................
.............................. CYCLE   13 ..............................
........................................................................
   1   -171.8278036 -0.171828E+03  0.307E-01    0.12       0.0  T
   2   -171.8231285  0.467511E-02  0.191E-01    0.13       1.0  T
   3   -171.6740457  0.149083E+00  0.702E-01    0.52       1.0  T
   4   -171.7908724 -0.116827E+00  0.340E-01    0.16       1.0  T
   5   -171.8268051 -0.359328E-01  0.648E-02    0.12       1.0  T
   6   -171.8277302 -0.925092E-03  0.324E-02    0.12       1.0  T
   7   -171.8278807 -0.150468E-03  0.180E-02    0.12       1.0  T
   8   -171.8278954 -0.146485E-04  0.155E-02    0.12       1.0  T
   9   -171.8279658 -0.704328E-04  0.486E-03    0.12       2.2  T
  10   -171.8279709 -0.514972E-05  0.267E-03    0.12       3.9  T
  11   -171.8279730 -0.204285E-05  0.111E-03    0.12       9.5  T
  12   -171.8279731 -0.156648E-06  0.727E-04    0.12      14.5  T
     SCC iter.                  ...        0 min,  0.161 sec
     gradient                   ...        0 min,  0.017 sec
 * total energy  :  -169.0414814 Eh     change       -0.1476426E-02 Eh
   gradient norm :     0.0209683 Eh/α   predicted    -0.1494943E-02 (   1.25%)
   displ. norm   :     0.6378382 α      lambda       -0.2176792E-02
   maximum displ.:     0.2646096 α      in ANC's #6, #25, #19, ...

........................................................................
.............................. CYCLE   14 ..............................
........................................................................
   1   -171.8292650 -0.171829E+03  0.249E-01    0.12       0.0  T
   2   -171.7822961  0.469689E-01  0.393E-01    0.16       1.0  T
   3   -171.7208547  0.614414E-01  0.587E-01    0.28       1.0  T
   4   -171.8083590 -0.875043E-01  0.270E-01    0.15       1.0  T
   5   -171.8236605 -0.153015E-01  0.141E-01    0.12       1.0  T
   6   -171.8280977 -0.443722E-02  0.720E-02    0.12       1.0  T
   7   -171.8296005 -0.150281E-02  0.199E-02    0.12       1.0  T
   8   -171.8293708  0.229766E-03  0.283E-02    0.12       1.0  T
   9   -171.8296210 -0.250208E-03  0.503E-03    0.12       2.1  T
  10   -171.8296233 -0.235145E-05  0.361E-03    0.12       2.9  T
  11   -171.8296264 -0.309449E-05  0.180E-03    0.12       5.9  T
     SCC iter.                  ...        0 min,  0.153 sec
     gradient                   ...        0 min,  0.017 sec
 * total energy  :  -169.0428309 Eh     change       -0.1349416E-02 Eh
   gradient norm :     0.0193249 Eh/α   predicted    -0.1531200E-02 (  13.47%)
   displ. norm   :     0.5938207 α      lambda       -0.2314170E-02
   maximum displ.:     0.2788545 α      in ANC's #6, #11, #5, ...

........................................................................
.............................. CYCLE   15 ..............................
........................................................................
   1   -171.8442210 -0.171844E+03  0.252E-01    0.12       0.0  T
   2   -171.7328364  0.111385E+00  0.597E-01    0.28       1.0  T
   3   -171.7868140 -0.539776E-01  0.435E-01    0.18       1.0  T
   4   -171.8332799 -0.464658E-01  0.216E-01    0.14       1.0  T
   5   -171.8440679 -0.107881E-01  0.849E-02    0.12       1.0  T
   6   -171.8454080 -0.134006E-02  0.500E-02    0.12       1.0  T
   7   -171.8458308 -0.422847E-03  0.257E-02    0.12       1.0  T
   8   -171.8457541  0.767270E-04  0.224E-02    0.12       1.0  T
   9   -171.8458733 -0.119216E-03  0.878E-03    0.12       1.2  T
  10   -171.8458932 -0.198578E-04  0.260E-03    0.12       4.0  T
  11   -171.8458927  0.472294E-06  0.264E-03    0.12       4.0  T
  12   -171.8458941 -0.141465E-05  0.137E-03    0.12       7.7  T
     SCC iter.                  ...        0 min,  0.165 sec
     gradient                   ...        0 min,  0.017 sec
 * total energy  :  -169.0434883 Eh     change       -0.6574870E-03 Eh
   gradient norm :     0.0335163 Eh/α   predicted    -0.1565109E-02 ( 138.04%)
   displ. norm   :     0.4689550 α      lambda       -0.2422038E-02
   maximum displ.:     0.1692966 α      in ANC's #6, #25, #20, ...

........................................................................
.............................. CYCLE   16 ..............................
........................................................................
   1   -171.8356229 -0.171836E+03  0.239E-01    0.12       0.0  T
   2   -171.7877231  0.478997E-01  0.396E-01    0.16       1.0  T
   3   -171.7316859  0.560372E-01  0.569E-01    0.26       1.0  T
   4   -171.8214998 -0.898138E-01  0.224E-01    0.14       1.0  T
   5   -171.8319105 -0.104108E-01  0.115E-01    0.12       1.0  T
   6   -171.8355589 -0.364843E-02  0.434E-02    0.12       1.0  T
   7   -171.8359578 -0.398821E-03  0.200E-02    0.12       1.0  T
   8   -171.8359433  0.144558E-04  0.148E-02    0.12       1.0  T
   9   -171.8359848 -0.415204E-04  0.788E-03    0.12       1.3  T
  10   -171.8360024 -0.175837E-04  0.275E-03    0.12       3.8  T
  11   -171.8360046 -0.219798E-05  0.992E-04    0.12      10.6  T
  12   -171.8360042  0.369260E-06  0.128E-03    0.12       8.2  T
     SCC iter.                  ...        0 min,  0.180 sec
     gradient                   ...        0 min,  0.019 sec
 * total energy  :  -169.0447885 Eh     change       -0.1300139E-02 Eh
   gradient norm :     0.0179100 Eh/α   predicted    -0.1477352E-02 (  13.63%)
   displ. norm   :     0.4859404 α      lambda       -0.1403099E-02
   maximum displ.:     0.2257433 α      in ANC's #6, #5, #9, ...

........................................................................
.............................. CYCLE   17 ..............................
........................................................................
   1   -171.8355277 -0.171836E+03  0.193E-01    0.12       0.0  T
   2   -171.8351213  0.406439E-03  0.102E-01    0.12       1.0  T
   3   -171.7385490  0.965723E-01  0.544E-01    0.26       1.0  T
   4   -171.8352533 -0.967044E-01  0.430E-02    0.12       1.0  T
   5   -171.8353999 -0.146542E-03  0.284E-02    0.12       1.0  T
   6   -171.8355791 -0.179275E-03  0.107E-02    0.12       1.0  T
   7   -171.8353210  0.258142E-03  0.282E-02    0.12       1.0  T
   8   -171.8355929 -0.271889E-03  0.227E-03    0.12       4.6  T
   9   -171.8355915  0.139157E-05  0.245E-03    0.12       4.3  T
  10   -171.8355928 -0.134446E-05  0.135E-03    0.12       7.8  T
     SCC iter.                  ...        0 min,  0.136 sec
     gradient                   ...        0 min,  0.018 sec
 * total energy  :  -169.0455060 Eh     change       -0.7175463E-03 Eh
   gradient norm :     0.0186388 Eh/α   predicted    -0.8672163E-03 (  20.86%)
   displ. norm   :     0.5150257 α      lambda       -0.1385966E-02
   maximum displ.:     0.2609093 α      in ANC's #6, #5, #9, ...

........................................................................
.............................. CYCLE   18 ..............................
........................................................................
   1   -171.8396817 -0.171840E+03  0.167E-01    0.12       0.0  T
   2   -171.8060854  0.335963E-01  0.326E-01    0.14       1.0  T
   3   -171.7726445  0.334409E-01  0.455E-01    0.19       1.0  T
   4   -171.8367170 -0.640724E-01  0.111E-01    0.12       1.0  T
   5   -171.8391687 -0.245173E-02  0.514E-02    0.12       1.0  T
   6   -171.8396902 -0.521478E-03  0.290E-02    0.12       1.0  T
   7   -171.8398845 -0.194350E-03  0.102E-02    0.12       1.0  T
   8   -171.8398738  0.106814E-04  0.750E-03    0.12       1.4  T
   9   -171.8398883 -0.144636E-04  0.239E-03    0.12       4.4  T
  10   -171.8398895 -0.119495E-05  0.712E-04    0.12      14.8  T
  11   -171.8398895 -0.106459E-07  0.450E-04    0.12      23.4  T
     SCC iter.                  ...        0 min,  0.153 sec
     gradient                   ...        0 min,  0.018 sec
 * total energy  :  -169.0464034 Eh     change       -0.8973739E-03 Eh
   gradient norm :     0.0181173 Eh/α   predicted    -0.8767988E-03 (  -2.29%)
   displ. norm   :     0.5918436 α      lambda       -0.1557224E-02
   maximum displ.:     0.3005710 α      in ANC's #6, #5, #9, ...

........................................................................
.............................. CYCLE   19 ..............................
........................................................................
   1   -171.8444303 -0.171844E+03  0.205E-01    0.11       0.0  T
   2   -171.8348030  0.962733E-02  0.198E-01    0.12       1.0  T
   3   -171.7222901  0.112513E+00  0.617E-01    0.34       1.0  T
   4   -171.8209183 -0.986282E-01  0.272E-01    0.14       1.0  T
   5   -171.8400179 -0.190996E-01  0.119E-01    0.12       1.0  T
   6   -171.8441673 -0.414937E-02  0.360E-02    0.12       1.0  T
   7   -171.8444392 -0.271903E-03  0.178E-02    0.11       1.0  T
   8   -171.8444901 -0.509104E-04  0.120E-02    0.11       1.0  T
   9   -171.8445331 -0.429912E-04  0.304E-03    0.11       3.5  T
  10   -171.8445352 -0.214649E-05  0.123E-03    0.11       8.6  T
  11   -171.8445355 -0.278208E-06  0.644E-04    0.11      16.4  T
     SCC iter.                  ...        0 min,  0.150 sec
     gradient                   ...        0 min,  0.018 sec
 * total energy  :  -169.0472309 Eh     change       -0.8274944E-03 Eh
   gradient norm :     0.0176442 Eh/α   predicted    -0.1051346E-02 (  27.05%)
   displ. norm   :     0.6005984 α      lambda       -0.1455223E-02
   maximum displ.:     0.2972308 α      in ANC's #6, #5, #9, ...

........................................................................
.............................. CYCLE   20 ..............................
........................................................................
   1   -171.8430464 -0.171843E+03  0.213E-01    0.11       0.0  T
   2   -171.8245975  0.184489E-01  0.258E-01    0.13       1.0  T
   3   -171.7235760  0.101021E+00  0.610E-01    0.30       1.0  T
   4   -171.8148619 -0.912859E-01  0.296E-01    0.14       1.0  T
   5   -171.8370078 -0.221459E-01  0.138E-01    0.12       1.0  T
   6   -171.8425601 -0.555229E-02  0.463E-02    0.12       1.0  T
   7   -171.8431840 -0.623875E-03  0.113E-02    0.11       1.0  T
   8   -171.8431326  0.513430E-04  0.142E-02    0.11       1.0  T
   9   -171.8431587 -0.260678E-04  0.988E-03    0.11       1.1  T
  10   -171.8431909 -0.321512E-04  0.164E-03    0.11       6.4  T
  11   -171.8431913 -0.459178E-06  0.974E-04    0.11      10.8  T
  12   -171.8431915 -0.159550E-06  0.590E-04    0.11      17.9  T
     SCC iter.                  ...        0 min,  0.161 sec
     gradient                   ...        0 min,  0.018 sec
 * total energy  :  -169.0480538 Eh     change       -0.8229407E-03 Eh
   gradient norm :     0.0200421 Eh/α   predicted    -0.9900765E-03 (  20.31%)
   displ. norm   :     0.5599551 α      lambda       -0.1476660E-02
   maximum displ.:     0.2847998 α      in ANC's #6, #5, #9, ...
 * RMSD in coord.:     0.9123187 α      energy gain  -0.8385589E-01 Eh

generating ANC from model Hessian ...
Using Lindh-Hessian (1995)
 Shifting diagonal of input Hessian by   4.998733993614874E-003
 Lowest  eigenvalues of input Hessian
   -0.000000   -0.000000   -0.000000   -0.000000    0.000000    0.000000
    0.005000    0.005007    0.005015    0.005026    0.005061    0.005064
    0.005103    0.005131    0.005216    0.005298    0.005323    0.005488
 Highest eigenvalues
    2.274589    2.278776    2.595847    2.597466    2.659334    2.661919
 

........................................................................
.............................. CYCLE   21 ..............................
........................................................................
   1   -171.8417958 -0.171842E+03  0.211E-01    0.11       0.0  T
   2   -171.8403025  0.149322E-02  0.127E-01    0.11       1.0  T
   3   -171.7075517  0.132751E+00  0.645E-01    0.37       1.0  T
   4   -171.8312096 -0.123658E+00  0.181E-01    0.12       1.0  T
   5   -171.8417712 -0.105617E-01  0.239E-02    0.11       1.0  T
   6   -171.8416601  0.111163E-03  0.271E-02    0.11       1.0  T
   7   -171.8418693 -0.209247E-03  0.699E-03    0.11       1.5  T
   8   -171.8418747 -0.541555E-05  0.267E-03    0.11       3.9  T
   9   -171.8418745  0.269234E-06  0.241E-03    0.11       4.4  T
  10   -171.8418760 -0.150285E-05  0.904E-04    0.11      11.7  T
  11   -171.8418759  0.813208E-07  0.984E-04    0.11      10.7  T
  12   -171.8418762 -0.299262E-06  0.260E-04    0.11      40.5  T
     SCC iter.                  ...        0 min,  0.175 sec
     gradient                   ...        0 min,  0.018 sec
 * total energy  :  -169.0487859 Eh     change       -0.7320257E-03 Eh
   gradient norm :     0.0182147 Eh/α   predicted     0.0000000E+00 (-100.00%)
   displ. norm   :     0.2770589 α      lambda       -0.1112700E-02
   maximum displ.:     0.1265656 α      in ANC's #7, #6, #1, ...

........................................................................
.............................. CYCLE   22 ..............................
........................................................................
   1   -171.8431216 -0.171843E+03  0.149E-01    0.11       0.0  T
   2   -171.8379947  0.512694E-02  0.145E-01    0.12       1.0  T
   3   -171.7348802  0.103114E+00  0.576E-01    0.26       1.0  T
   4   -171.8344167 -0.995365E-01  0.165E-01    0.12       1.0  T
   5   -171.8422008 -0.778414E-02  0.552E-02    0.11       1.0  T
   6   -171.8431081 -0.907322E-03  0.166E-02    0.11       1.0  T
   7   -171.8431627 -0.545299E-04  0.733E-03    0.11       1.4  T
   8   -171.8431662 -0.350673E-05  0.560E-03    0.11       1.9  T
   9   -171.8431697 -0.351932E-05  0.397E-03    0.11       2.7  T
  10   -171.8431748 -0.513362E-05  0.605E-04    0.11      17.4  T
  11   -171.8431748 -0.572703E-08  0.513E-04    0.11      20.5  T
  12   -171.8431749 -0.541346E-07  0.182E-04    0.11      57.8  T
     SCC iter.                  ...        0 min,  0.164 sec
     gradient                   ...        0 min,  0.017 sec
 * total energy  :  -169.0491445 Eh     change       -0.3585921E-03 Eh
   gradient norm :     0.0131477 Eh/α   predicted    -0.5990567E-03 (  67.06%)
   displ. norm   :     0.3591872 α      lambda       -0.1948015E-02
   maximum displ.:     0.1505403 α      in ANC's #1, #8, #6, ...

........................................................................
.............................. CYCLE   23 ..............................
........................................................................
   1   -171.8479355 -0.171848E+03  0.271E-01    0.11       0.0  T
   2   -171.8446957  0.323979E-02  0.175E-01    0.11       1.0  T
   3   -171.6960223  0.148673E+00  0.699E-01    0.49       1.0  T
   4   -171.8187193 -0.122697E+00  0.304E-01    0.14       1.0  T
   5   -171.8469005 -0.281811E-01  0.628E-02    0.11       1.0  T
   6   -171.8480060 -0.110552E-02  0.165E-02    0.11       1.0  T
   7   -171.8480393 -0.333186E-04  0.876E-03    0.11       1.2  T
   8   -171.8480482 -0.887226E-05  0.588E-03    0.11       1.8  T
   9   -171.8480467  0.146958E-05  0.567E-03    0.11       1.9  T
  10   -171.8480567 -0.100507E-04  0.987E-04    0.11      10.7  T
  11   -171.8480565  0.254044E-06  0.121E-03    0.11       8.7  T
  12   -171.8480569 -0.373808E-06  0.510E-04    0.11      20.7  T
     SCC iter.                  ...        0 min,  0.162 sec
     gradient                   ...        0 min,  0.018 sec
 * total energy  :  -169.0491279 Eh     change        0.1657581E-04 Eh
   gradient norm :     0.0242994 Eh/α   predicted    -0.1099678E-02 (*******%)
   displ. norm   :     0.1739441 α      lambda       -0.1663861E-02
   maximum displ.:     0.0900409 α      in ANC's #8, #35, #7, ...

........................................................................
.............................. CYCLE   24 ..............................
........................................................................
   1   -171.8471076 -0.171847E+03  0.175E-01    0.11       0.0  T
   2   -171.8471386 -0.310071E-04  0.944E-02    0.11       1.0  T
   3   -171.8467473  0.391255E-03  0.380E-02    0.11       1.0  T
   4   -171.8389744  0.777293E-02  0.155E-01    0.12       1.0  T
   5   -171.8471325 -0.815811E-02  0.102E-02    0.11       1.0  T
   6   -171.8471425 -0.997106E-05  0.676E-03    0.11       1.6  T
   7   -171.8471515 -0.907167E-05  0.241E-03    0.11       4.4  T
   8   -171.8471525 -0.100764E-05  0.100E-03    0.11      10.5  T
   9   -171.8471527 -0.108471E-06  0.533E-04    0.11      19.8  T
     SCC iter.                  ...        0 min,  0.126 sec
     gradient                   ...        0 min,  0.017 sec
 * total energy  :  -169.0496935 Eh     change       -0.5655854E-03 Eh
   gradient norm :     0.0154312 Eh/α   predicted    -0.8571032E-03 (  51.54%)
   displ. norm   :     0.3568257 α      lambda       -0.2314440E-02
   maximum displ.:     0.1969367 α      in ANC's #14, #15, #35, ...

........................................................................
.............................. CYCLE   25 ..............................
........................................................................
   1   -171.8374622 -0.171837E+03  0.339E-01    0.11       0.0  T
   2   -171.8307562  0.670608E-02  0.232E-01    0.12       1.0  T
   3   -171.6677492  0.163007E+00  0.746E-01    0.61       1.0  T
   4   -171.7671510 -0.994018E-01  0.465E-01    0.20       1.0  T
   5   -171.8269965 -0.598455E-01  0.180E-01    0.12       1.0  T
   6   -171.8374348 -0.104383E-01  0.298E-02    0.11       1.0  T
   7   -171.8375518 -0.116934E-03  0.219E-02    0.11       1.0  T
   8   -171.8376648 -0.113006E-03  0.543E-03    0.11       1.9  T
   9   -171.8376502  0.145960E-04  0.807E-03    0.11       1.3  T
  10   -171.8376652 -0.150171E-04  0.424E-03    0.11       2.5  T
  11   -171.8376710 -0.584861E-05  0.853E-04    0.11      12.4  T
  12   -171.8376711 -0.702015E-07  0.324E-04    0.11      32.5  T
  13   -171.8376711 -0.598916E-08  0.143E-04    0.11      73.6  T
     SCC iter.                  ...        0 min,  0.174 sec
     gradient                   ...        0 min,  0.018 sec
 * total energy  :  -169.0482637 Eh     change        0.1429800E-02 Eh
   gradient norm :     0.0347819 Eh/α   predicted    -0.1304566E-02 (-191.24%)
   displ. norm   :     0.2319825 α      lambda       -0.4087787E-02
   maximum displ.:     0.1090712 α      in ANC's #14, #15, #1, ...

........................................................................
.............................. CYCLE   26 ..............................
........................................................................
   1   -171.8491224 -0.171849E+03  0.237E-01    0.11       0.0  T
   2   -171.8490848  0.376383E-04  0.128E-01    0.11       1.0  T
   3   -171.7827364  0.663484E-01  0.441E-01    0.18       1.0  T
   4   -171.8490733 -0.663369E-01  0.348E-02    0.11       1.0  T
   5   -171.8492071 -0.133777E-03  0.101E-02    0.11       1.0  T
   6   -171.8491968  0.102214E-04  0.806E-03    0.11       1.3  T
   7   -171.8492085 -0.117114E-04  0.375E-03    0.11       2.8  T
   8   -171.8492103 -0.174045E-05  0.220E-03    0.11       4.8  T
   9   -171.8492115 -0.119297E-05  0.756E-04    0.11      13.9  T
     SCC iter.                  ...        0 min,  0.128 sec
     gradient                   ...        0 min,  0.017 sec
 * total energy  :  -169.0503084 Eh     change       -0.2044734E-02 Eh
   gradient norm :     0.0144595 Eh/α   predicted    -0.2153889E-02 (   5.34%)
   displ. norm   :     0.2485937 α      lambda       -0.5172862E-03
   maximum displ.:     0.1146755 α      in ANC's #1, #7, #6, ...

........................................................................
.............................. CYCLE   27 ..............................
........................................................................
   1   -171.8453901 -0.171845E+03  0.102E-01    0.11       0.0  T
   2   -171.8432891  0.210091E-02  0.950E-02    0.11       1.0  T
   3   -171.7628034  0.804858E-01  0.498E-01    0.20       1.0  T
   4   -171.8441440 -0.813406E-01  0.650E-02    0.11       1.0  T
   5   -171.8452550 -0.111097E-02  0.229E-02    0.11       1.0  T
   6   -171.8454036 -0.148632E-03  0.718E-03    0.11       1.5  T
   7   -171.8454008  0.275438E-05  0.604E-03    0.11       1.7  T
   8   -171.8454110 -0.101085E-04  0.191E-03    0.11       5.5  T
   9   -171.8454111 -0.966814E-07  0.159E-03    0.11       6.6  T
  10   -171.8454119 -0.803205E-06  0.273E-04    0.11      38.6  T
     SCC iter.                  ...        0 min,  0.136 sec
     gradient                   ...        0 min,  0.018 sec
 * total energy  :  -169.0506370 Eh     change       -0.3285956E-03 Eh
   gradient norm :     0.0064205 Eh/α   predicted    -0.2746270E-03 ( -16.42%)
   displ. norm   :     0.5335230 α      lambda       -0.8746303E-03
   maximum displ.:     0.2425765 α      in ANC's #7, #1, #6, ...

........................................................................
.............................. CYCLE   28 ..............................
........................................................................
   1   -171.8366839 -0.171837E+03  0.203E-01    0.11       0.0  T
   2   -171.8367000 -0.160747E-04  0.108E-01    0.11       1.0  T
   3   -171.8161610  0.205390E-01  0.245E-01    0.13       1.0  T
   4   -171.8358641 -0.197031E-01  0.554E-02    0.11       1.0  T
   5   -171.8367025 -0.838374E-03  0.158E-02    0.11       1.0  T
   6   -171.8367176 -0.151497E-04  0.105E-02    0.11       1.0  T
   7   -171.8367394 -0.218179E-04  0.269E-03    0.11       3.9  T
   8   -171.8367408 -0.138514E-05  0.140E-03    0.11       7.5  T
   9   -171.8367412 -0.352181E-06  0.542E-04    0.11      19.4  T
     SCC iter.                  ...        0 min,  0.121 sec
     gradient                   ...        0 min,  0.018 sec
 * total energy  :  -169.0508791 Eh     change       -0.2421500E-03 Eh
   gradient norm :     0.0332469 Eh/α   predicted    -0.5617986E-03 ( 132.00%)
   displ. norm   :     0.4107865 α      lambda       -0.1190214E-02
   maximum displ.:     0.1959205 α      in ANC's #7, #1, #6, ...

........................................................................
.............................. CYCLE   29 ..............................
........................................................................
   1   -171.8415068 -0.171842E+03  0.133E-01    0.11       0.0  T
   2   -171.8413446  0.162227E-03  0.745E-02    0.11       1.0  T
   3   -171.7612571  0.800875E-01  0.488E-01    0.20       1.0  T
   4   -171.8414876 -0.802306E-01  0.166E-02    0.11       1.0  T
   5   -171.8414958 -0.815541E-05  0.131E-02    0.11       1.0  T
   6   -171.8415222 -0.264015E-04  0.614E-03    0.11       1.7  T
   7   -171.8415205  0.164564E-05  0.498E-03    0.11       2.1  T
   8   -171.8415280 -0.747728E-05  0.151E-03    0.11       7.0  T
   9   -171.8415283 -0.310423E-06  0.875E-04    0.11      12.0  T
     SCC iter.                  ...        0 min,  0.127 sec
     gradient                   ...        0 min,  0.017 sec
 * total energy  :  -169.0517126 Eh     change       -0.8334166E-03 Eh
   gradient norm :     0.0170922 Eh/α   predicted    -0.6955304E-03 ( -16.54%)
   displ. norm   :     0.5787192 α      lambda       -0.1695204E-02
   maximum displ.:     0.2610758 α      in ANC's #7, #6, #1, ...

........................................................................
.............................. CYCLE   30 ..............................
........................................................................
   1   -171.8472106 -0.171847E+03  0.243E-01    0.11       0.0  T
   2   -171.8414974  0.571324E-02  0.187E-01    0.12       1.0  T
   3   -171.7050668  0.136431E+00  0.669E-01    0.44       1.0  T
   4   -171.8148044 -0.109738E+00  0.320E-01    0.15       1.0  T
   5   -171.8442064 -0.294020E-01  0.101E-01    0.11       1.0  T
   6   -171.8469235 -0.271709E-02  0.363E-02    0.11       1.0  T
   7   -171.8471936 -0.270125E-03  0.196E-02    0.11       1.0  T
   8   -171.8472908 -0.971249E-04  0.945E-03    0.11       1.1  T
   9   -171.8473149 -0.241601E-04  0.322E-03    0.11       3.3  T
  10   -171.8473172 -0.226349E-05  0.134E-03    0.11       7.9  T
  11   -171.8473172  0.385594E-08  0.126E-03    0.11       8.3  T
     SCC iter.                  ...        0 min,  0.154 sec
     gradient                   ...        0 min,  0.017 sec
 * total energy  :  -169.0516388 Eh     change        0.7380864E-04 Eh
   gradient norm :     0.0309560 Eh/α   predicted    -0.1131477E-02 (*******%)
   displ. norm   :     0.3724821 α      lambda       -0.2047290E-02
   maximum displ.:     0.1650470 α      in ANC's #7, #1, #6, ...

........................................................................
.............................. CYCLE   31 ..............................
........................................................................
   1   -171.8468452 -0.171847E+03  0.167E-01    0.11       0.0  T
   2   -171.8466885  0.156686E-03  0.935E-02    0.11       1.0  T
   3   -171.7606465  0.860420E-01  0.504E-01    0.21       1.0  T
   4   -171.8465778 -0.859313E-01  0.346E-02    0.11       1.0  T
   5   -171.8468626 -0.284899E-03  0.114E-02    0.11       1.0  T
   6   -171.8468698 -0.718393E-05  0.850E-03    0.11       1.2  T
   7   -171.8468799 -0.101133E-04  0.402E-03    0.11       2.6  T
   8   -171.8468830 -0.307691E-05  0.237E-03    0.11       4.5  T
   9   -171.8468847 -0.170875E-05  0.526E-04    0.11      20.0  T
     SCC iter.                  ...        0 min,  0.135 sec
     gradient                   ...        0 min,  0.017 sec
 * total energy  :  -169.0528927 Eh     change       -0.1253940E-02 Eh
   gradient norm :     0.0095976 Eh/α   predicted    -0.1165670E-02 (  -7.04%)
   displ. norm   :     0.7074228 α      lambda       -0.8925837E-03
   maximum displ.:     0.3419723 α      in ANC's #7, #1, #6, ...

........................................................................
.............................. CYCLE   32 ..............................
........................................................................
   1   -171.8421606 -0.171842E+03  0.195E-01    0.11       0.0  T
   2   -171.8396026  0.255796E-02  0.135E-01    0.11       1.0  T
   3   -171.7102963  0.129306E+00  0.637E-01    0.38       1.0  T
   4   -171.8269368 -0.116640E+00  0.216E-01    0.13       1.0  T
   5   -171.8409516 -0.140149E-01  0.635E-02    0.11       1.0  T
   6   -171.8421243 -0.117267E-02  0.195E-02    0.11       1.0  T
   7   -171.8419785  0.145772E-03  0.259E-02    0.11       1.0  T
   8   -171.8422049 -0.226438E-03  0.325E-03    0.11       3.2  T
   9   -171.8422025  0.242494E-05  0.402E-03    0.11       2.6  T
  10   -171.8422076 -0.505412E-05  0.938E-04    0.11      11.2  T
  11   -171.8422077 -0.884495E-07  0.630E-04    0.11      16.7  T
  12   -171.8422078 -0.107332E-06  0.102E-04    0.11     103.5  T
     SCC iter.                  ...        0 min,  0.168 sec
     gradient                   ...        0 min,  0.017 sec
 * total energy  :  -169.0536978 Eh     change       -0.8051524E-03 Eh
   gradient norm :     0.0071356 Eh/α   predicted    -0.6696488E-03 ( -16.83%)
   displ. norm   :     0.8215443 α      lambda       -0.1020445E-02
   maximum displ.:     0.4036503 α      in ANC's #7, #1, #6, ...

........................................................................
.............................. CYCLE   33 ..............................
........................................................................
   1   -171.8435075 -0.171844E+03  0.216E-01    0.11       0.0  T
   2   -171.8328563  0.106512E-01  0.213E-01    0.12       1.0  T
   3   -171.7165775  0.116279E+00  0.625E-01    0.35       1.0  T
   4   -171.8155580 -0.989805E-01  0.295E-01    0.14       1.0  T
   5   -171.8379944 -0.224364E-01  0.133E-01    0.11       1.0  T
   6   -171.8428316 -0.483719E-02  0.495E-02    0.11       1.0  T
   7   -171.8433978 -0.566249E-03  0.244E-02    0.11       1.0  T
   8   -171.8435707 -0.172876E-03  0.865E-03    0.11       1.2  T
   9   -171.8435865 -0.158567E-04  0.472E-03    0.11       2.2  T
  10   -171.8435934 -0.685625E-05  0.102E-03    0.11      10.4  T
  11   -171.8435936 -0.178475E-06  0.510E-04    0.11      20.7  T
  12   -171.8435935  0.279337E-07  0.456E-04    0.11      23.1  T
     SCC iter.                  ...        0 min,  0.170 sec
     gradient                   ...        0 min,  0.017 sec
 * total energy  :  -169.0546503 Eh     change       -0.9524864E-03 Eh
   gradient norm :     0.0081762 Eh/α   predicted    -0.8545899E-03 ( -10.28%)
   displ. norm   :     0.8666986 α      lambda       -0.1064507E-02
   maximum displ.:     0.4286256 α      in ANC's #7, #1, #6, ...

........................................................................
.............................. CYCLE   34 ..............................
........................................................................
   1   -171.8471843 -0.171847E+03  0.227E-01    0.11       0.0  T
   2   -171.8344576  0.127267E-01  0.230E-01    0.12       1.0  T
   3   -171.7186955  0.115762E+00  0.630E-01    0.36       1.0  T
   4   -171.8157423 -0.970467E-01  0.314E-01    0.15       1.0  T
   5   -171.8404867 -0.247445E-01  0.146E-01    0.12       1.0  T
   6   -171.8462754 -0.578868E-02  0.566E-02    0.11       1.0  T
   7   -171.8470640 -0.788587E-03  0.259E-02    0.11       1.0  T
   8   -171.8472468 -0.182752E-03  0.108E-02    0.11       1.0  T
   9   -171.8472742 -0.274442E-04  0.539E-03    0.11       2.0  T
  10   -171.8472831 -0.889732E-05  0.115E-03    0.11       9.2  T
  11   -171.8472833 -0.241306E-06  0.556E-04    0.11      18.9  T
  12   -171.8472833  0.240748E-07  0.467E-04    0.11      22.6  T
     SCC iter.                  ...        0 min,  0.173 sec
     gradient                   ...        0 min,  0.017 sec
 * total energy  :  -169.0556458 Eh     change       -0.9955151E-03 Eh
   gradient norm :     0.0069266 Eh/α   predicted    -0.9320662E-03 (  -6.37%)
   displ. norm   :     0.8939105 α      lambda       -0.1027899E-02
   maximum displ.:     0.4479728 α      in ANC's #7, #6, #1, ...

........................................................................
.............................. CYCLE   35 ..............................
........................................................................
   1   -171.8503505 -0.171850E+03  0.230E-01    0.11       0.0  T
   2   -171.8442319  0.611860E-02  0.183E-01    0.11       1.0  T
   3   -171.7113197  0.132912E+00  0.657E-01    0.42       1.0  T
   4   -171.8172246 -0.105905E+00  0.319E-01    0.15       1.0  T
   5   -171.8460557 -0.288311E-01  0.117E-01    0.11       1.0  T
   6   -171.8502686 -0.421290E-02  0.252E-02    0.11       1.0  T
   7   -171.8499445  0.324079E-03  0.374E-02    0.11       1.0  T
   8   -171.8504206 -0.476089E-03  0.327E-03    0.11       3.2  T
   9   -171.8504070  0.136181E-04  0.682E-03    0.11       1.5  T
  10   -171.8504219 -0.149309E-04  0.137E-03    0.11       7.7  T
  11   -171.8504223 -0.349485E-06  0.610E-04    0.11      17.3  T
  12   -171.8504223 -0.673282E-07  0.183E-04    0.11      57.8  T
     SCC iter.                  ...        0 min,  0.171 sec
     gradient                   ...        0 min,  0.017 sec
 * total energy  :  -169.0566101 Eh     change       -0.9642268E-03 Eh
   gradient norm :     0.0046437 Eh/α   predicted    -0.9246381E-03 (  -4.11%)
   displ. norm   :     0.9097930 α      lambda       -0.9774911E-03
   maximum displ.:     0.4538756 α      in ANC's #7, #6, #1, ...

........................................................................
.............................. CYCLE   36 ..............................
........................................................................
   1   -171.8494756 -0.171849E+03  0.243E-01    0.11       0.0  T
   2   -171.8494720  0.357930E-05  0.127E-01    0.11       1.0  T
   3   -171.8132325  0.362395E-01  0.326E-01    0.14       1.0  T
   4   -171.8477977 -0.345652E-01  0.745E-02    0.11       1.0  T
   5   -171.8494293 -0.163160E-02  0.243E-02    0.11       1.0  T
   6   -171.8494424 -0.130748E-04  0.164E-02    0.11       1.0  T
   7   -171.8495292 -0.868002E-04  0.351E-03    0.11       3.0  T
   8   -171.8495329 -0.370165E-05  0.106E-03    0.11       9.9  T
   9   -171.8495327  0.195508E-06  0.103E-03    0.11      10.2  T
  10   -171.8495329 -0.238480E-06  0.452E-04    0.11      23.3  T
     SCC iter.                  ...        0 min,  0.153 sec
     gradient                   ...        0 min,  0.019 sec
 * total energy  :  -169.0575190 Eh     change       -0.9089212E-03 Eh
   gradient norm :     0.0072668 Eh/α   predicted    -0.8933002E-03 (  -1.72%)
   displ. norm   :     0.9071586 α      lambda       -0.9638970E-03
   maximum displ.:     0.4679053 α      in ANC's #7, #6, #1, ...

........................................................................
.............................. CYCLE   37 ..............................
........................................................................
   1   -171.8535892 -0.171854E+03  0.237E-01    0.11       0.0  T
   2   -171.8533591  0.230150E-03  0.126E-01    0.11       1.0  T
   3   -171.7526284  0.100731E+00  0.548E-01    0.24       1.0  T
   4   -171.8533036 -0.100675E+00  0.411E-02    0.11       1.0  T
   5   -171.8535555 -0.251862E-03  0.232E-02    0.11       1.0  T
   6   -171.8534500  0.105436E-03  0.244E-02    0.11       1.0  T
   7   -171.8536405 -0.190488E-03  0.259E-03    0.11       4.1  T
   8   -171.8536398  0.684318E-06  0.253E-03    0.11       4.2  T
   9   -171.8536415 -0.164650E-05  0.899E-04    0.11      11.7  T
     SCC iter.                  ...        0 min,  0.127 sec
     gradient                   ...        0 min,  0.017 sec
 * total energy  :  -169.0583829 Eh     change       -0.8638646E-03 Eh
   gradient norm :     0.0092346 Eh/α   predicted    -0.8785677E-03 (   1.70%)
   displ. norm   :     0.9119462 α      lambda       -0.8998655E-03
   maximum displ.:     0.4568847 α      in ANC's #7, #1, #6, ...

........................................................................
.............................. CYCLE   38 ..............................
........................................................................
   1   -171.8491823 -0.171849E+03  0.239E-01    0.11       0.0  T
   2   -171.8441486  0.503364E-02  0.172E-01    0.11       1.0  T
   3   -171.7013398  0.142809E+00  0.684E-01    0.45       1.0  T
   4   -171.8112338 -0.109894E+00  0.341E-01    0.15       1.0  T
   5   -171.8445761 -0.333423E-01  0.120E-01    0.11       1.0  T
   6   -171.8492171 -0.464096E-02  0.176E-02    0.11       1.0  T
   7   -171.8489848  0.232342E-03  0.284E-02    0.11       1.0  T
   8   -171.8492493 -0.264535E-03  0.397E-03    0.11       2.7  T
   9   -171.8492258  0.234794E-04  0.899E-03    0.11       1.2  T
  10   -171.8492524 -0.265435E-04  0.189E-03    0.11       5.6  T
  11   -171.8492533 -0.932386E-06  0.618E-04    0.11      17.0  T
  12   -171.8492533 -0.294453E-07  0.376E-04    0.11      28.0  T
     SCC iter.                  ...        0 min,  0.173 sec
     gradient                   ...        0 min,  0.017 sec
 * total energy  :  -169.0592084 Eh     change       -0.8255491E-03 Eh
   gradient norm :     0.0060586 Eh/α   predicted    -0.8241226E-03 (  -0.17%)
   displ. norm   :     0.8804677 α      lambda       -0.8786645E-03
   maximum displ.:     0.4413818 α      in ANC's #7, #6, #1, ...

........................................................................
.............................. CYCLE   39 ..............................
........................................................................
   1   -171.8521832 -0.171852E+03  0.244E-01    0.11       0.0  T
   2   -171.8436394  0.854374E-02  0.200E-01    0.11       1.0  T
   3   -171.7067269  0.136913E+00  0.679E-01    0.44       1.0  T
   4   -171.8064410 -0.997140E-01  0.377E-01    0.16       1.0  T
   5   -171.8438522 -0.374112E-01  0.161E-01    0.12       1.0  T
   6   -171.8519128 -0.806058E-02  0.362E-02    0.11       1.0  T
   7   -171.8521216 -0.208793E-03  0.224E-02    0.11       1.0  T
   8   -171.8522723 -0.150773E-03  0.446E-03    0.11       2.4  T
   9   -171.8522417  0.306680E-04  0.100E-02    0.11       1.1  T
  10   -171.8522759 -0.342571E-04  0.945E-04    0.11      11.2  T
  11   -171.8522760 -0.573644E-07  0.478E-04    0.11      22.1  T
  12   -171.8522759  0.974914E-07  0.599E-04    0.11      17.6  T
     SCC iter.                  ...        0 min,  0.169 sec
     gradient                   ...        0 min,  0.017 sec
 * total energy  :  -169.0599479 Eh     change       -0.7394827E-03 Eh
   gradient norm :     0.0128292 Eh/α   predicted    -0.7799201E-03 (   5.47%)
   displ. norm   :     0.8685376 α      lambda       -0.8659493E-03
   maximum displ.:     0.4474247 α      in ANC's #7, #6, #1, ...

........................................................................
.............................. CYCLE   40 ..............................
........................................................................
   1   -171.8496528 -0.171850E+03  0.248E-01    0.11       0.0  T
   2   -171.8416353  0.801745E-02  0.197E-01    0.12       1.0  T
   3   -171.7023484  0.139287E+00  0.684E-01    0.45       1.0  T
   4   -171.8029089 -0.100561E+00  0.379E-01    0.16       1.0  T
   5   -171.8419588 -0.390500E-01  0.154E-01    0.12       1.0  T
   6   -171.8495328 -0.757398E-02  0.295E-02    0.11       1.0  T
   7   -171.8494520  0.808056E-04  0.297E-02    0.11       1.0  T
   8   -171.8497371 -0.285108E-03  0.453E-03    0.11       2.3  T
   9   -171.8497087  0.284390E-04  0.967E-03    0.11       1.1  T
  10   -171.8497407 -0.320075E-04  0.863E-04    0.11      12.2  T
  11   -171.8497407  0.785261E-08  0.528E-04    0.11      20.0  T
  12   -171.8497406  0.102990E-06  0.670E-04    0.11      15.7  T
     SCC iter.                  ...        0 min,  0.169 sec
     gradient                   ...        0 min,  0.017 sec
 * total energy  :  -169.0606864 Eh     change       -0.7384918E-03 Eh
   gradient norm :     0.0066865 Eh/α   predicted    -0.7595983E-03 (   2.86%)
   displ. norm   :     0.8272638 α      lambda       -0.7974565E-03
   maximum displ.:     0.4175971 α      in ANC's #7, #6, #1, ...

........................................................................
.............................. CYCLE   41 ..............................
........................................................................
   1   -171.8565028 -0.171857E+03  0.207E-01    0.11       0.0  T
   2   -171.8458033  0.106995E-01  0.207E-01    0.12       1.0  T
   3   -171.7294090  0.116394E+00  0.629E-01    0.34       1.0  T
   4   -171.8291239 -0.997149E-01  0.295E-01    0.14       1.0  T
   5   -171.8509050 -0.217811E-01  0.133E-01    0.11       1.0  T
   6   -171.8560912 -0.518625E-02  0.406E-02    0.11       1.0  T
   7   -171.8564937 -0.402477E-03  0.176E-02    0.11       1.0  T
   8   -171.8565647 -0.709820E-04  0.859E-03    0.11       1.2  T
   9   -171.8565673 -0.256466E-05  0.737E-03    0.11       1.4  T
  10   -171.8565854 -0.181798E-04  0.913E-04    0.11      11.5  T
  11   -171.8565852  0.255987E-06  0.110E-03    0.11       9.6  T
  12   -171.8565855 -0.310391E-06  0.211E-04    0.11      50.1  T
     SCC iter.                  ...        0 min,  0.172 sec
     gradient                   ...        0 min,  0.017 sec
 * total energy  :  -169.0613083 Eh     change       -0.6219185E-03 Eh
   gradient norm :     0.0158190 Eh/α   predicted    -0.6716093E-03 (   7.99%)
   displ. norm   :     0.8308398 α      lambda       -0.8602150E-03
   maximum displ.:     0.4100247 α      in ANC's #7, #6, #1, ...

........................................................................
.............................. CYCLE   42 ..............................
........................................................................
   1   -171.8425441 -0.171843E+03  0.231E-01    0.11       0.0  T
   2   -171.8392322  0.331183E-02  0.159E-01    0.11       1.0  T
   3   -171.7003672  0.138865E+00  0.663E-01    0.43       1.0  T
   4   -171.8155362 -0.115169E+00  0.286E-01    0.14       1.0  T
   5   -171.8401063 -0.245701E-01  0.888E-02    0.11       1.0  T
   6   -171.8425619 -0.245565E-02  0.179E-02    0.11       1.0  T
   7   -171.8423273  0.234663E-03  0.287E-02    0.11       1.0  T
   8   -171.8426105 -0.283238E-03  0.235E-03    0.11       4.5  T
   9   -171.8426031  0.740814E-05  0.498E-03    0.11       2.1  T
  10   -171.8426113 -0.818761E-05  0.769E-04    0.11      13.7  T
  11   -171.8426111  0.181668E-06  0.933E-04    0.11      11.3  T
  12   -171.8426113 -0.238596E-06  0.176E-04    0.11      60.0  T
     SCC iter.                  ...        0 min,  0.176 sec
     gradient                   ...        0 min,  0.017 sec
 * total energy  :  -169.0618399 Eh     change       -0.5315918E-03 Eh
   gradient norm :     0.0203904 Eh/α   predicted    -0.7270120E-03 (  36.76%)
   displ. norm   :     0.6099026 α      lambda       -0.9192181E-03
   maximum displ.:     0.3032865 α      in ANC's #6, #7, #1, ...
 * RMSD in coord.:     1.3181812 α      energy gain  -0.1378605E-01 Eh

generating ANC from model Hessian ...
Using Lindh-Hessian (1995)
 Shifting diagonal of input Hessian by   4.999079155227941E-003
 Lowest  eigenvalues of input Hessian
   -0.000000   -0.000000   -0.000000   -0.000000    0.000000    0.000000
    0.005000    0.005006    0.005011    0.005021    0.005065    0.005071
    0.005127    0.005219    0.005253    0.005300    0.005391    0.005472
 Highest eigenvalues
    2.278294    2.281310    2.591267    2.591314    2.648266    2.648589
 

........................................................................
.............................. CYCLE   43 ..............................
........................................................................
   1   -171.8507810 -0.171851E+03  0.236E-01    0.11       0.0  T
   2   -171.8506942  0.867844E-04  0.120E-01    0.11       1.0  T
   3   -171.7782404  0.724538E-01  0.463E-01    0.19       1.0  T
   4   -171.8490213 -0.707809E-01  0.765E-02    0.11       1.0  T
   5   -171.8506225 -0.160120E-02  0.300E-02    0.11       1.0  T
   6   -171.8507624 -0.139895E-03  0.191E-02    0.11       1.0  T
   7   -171.8508487 -0.863484E-04  0.626E-03    0.11       1.7  T
   8   -171.8508565 -0.777419E-05  0.199E-03    0.11       5.3  T
   9   -171.8508564  0.766258E-07  0.149E-03    0.11       7.1  T
  10   -171.8508570 -0.580118E-06  0.496E-04    0.11      21.2  T
  11   -171.8508570 -0.233462E-07  0.203E-04    0.11      52.0  T
     SCC iter.                  ...        0 min,  0.154 sec
     gradient                   ...        0 min,  0.018 sec
 * total energy  :  -169.0624162 Eh     change       -0.5763090E-03 Eh
   gradient norm :     0.0146290 Eh/α   predicted     0.0000000E+00 (-100.00%)
   displ. norm   :     0.1748178 α      lambda       -0.4122105E-03
   maximum displ.:     0.1027047 α      in ANC's #1, #6, #7, ...

........................................................................
.............................. CYCLE   44 ..............................
........................................................................
   1   -171.8557961 -0.171856E+03  0.108E-01    0.11       0.0  T
   2   -171.8545140  0.128210E-02  0.831E-02    0.11       1.0  T
   3   -171.7613108  0.932032E-01  0.529E-01    0.23       1.0  T
   4   -171.8543920 -0.930812E-01  0.685E-02    0.11       1.0  T
   5   -171.8556935 -0.130154E-02  0.212E-02    0.11       1.0  T
   6   -171.8558067 -0.113155E-03  0.749E-03    0.11       1.4  T
   7   -171.8557777  0.290388E-04  0.108E-02    0.11       1.0  T
   8   -171.8558148 -0.371139E-04  0.313E-03    0.11       3.4  T
   9   -171.8558176 -0.284411E-05  0.890E-04    0.11      11.8  T
  10   -171.8558178 -0.205357E-06  0.261E-04    0.11      40.3  T
     SCC iter.                  ...        0 min,  0.147 sec
     gradient                   ...        0 min,  0.017 sec
 * total energy  :  -169.0626323 Eh     change       -0.2161152E-03 Eh
   gradient norm :     0.0062318 Eh/α   predicted    -0.2124045E-03 (  -1.72%)
   displ. norm   :     0.2181362 α      lambda       -0.5312557E-03
   maximum displ.:     0.0794615 α      in ANC's #1, #14, #7, ...

........................................................................
.............................. CYCLE   45 ..............................
........................................................................
   1   -171.8625920 -0.171863E+03  0.158E-01    0.11       0.0  T
   2   -171.8531931  0.939895E-02  0.186E-01    0.12       1.0  T
   3   -171.7614214  0.917717E-01  0.551E-01    0.24       1.0  T
   4   -171.8544037 -0.929824E-01  0.162E-01    0.12       1.0  T
   5   -171.8611034 -0.669967E-02  0.707E-02    0.11       1.0  T
   6   -171.8622399 -0.113648E-02  0.365E-02    0.11       1.0  T
   7   -171.8626455 -0.405620E-03  0.853E-03    0.11       1.2  T
   8   -171.8626322  0.132679E-04  0.979E-03    0.11       1.1  T
   9   -171.8626618 -0.296126E-04  0.245E-03    0.11       4.3  T
  10   -171.8626636 -0.171082E-05  0.587E-04    0.11      17.9  T
  11   -171.8626635  0.233979E-07  0.496E-04    0.11      21.2  T
     SCC iter.                  ...        0 min,  0.161 sec
     gradient                   ...        0 min,  0.017 sec
 * total energy  :  -169.0623699 Eh     change        0.2624517E-03 Eh
   gradient norm :     0.0221815 Eh/α   predicted    -0.2782717E-03 (-206.03%)
   displ. norm   :     0.0995842 α      lambda       -0.8695739E-03
   maximum displ.:     0.0451833 α      in ANC's #14, #53, #1, ...

........................................................................
.............................. CYCLE   46 ..............................
........................................................................
   1   -171.8587884 -0.171859E+03  0.127E-01    0.11       0.0  T
   2   -171.8588017 -0.132845E-04  0.643E-02    0.11       1.0  T
   3   -171.8571644  0.163725E-02  0.690E-02    0.11       1.0  T
   4   -171.8576978 -0.533388E-03  0.582E-02    0.11       1.0  T
   5   -171.8587871 -0.108925E-02  0.110E-02    0.11       1.0  T
   6   -171.8587970 -0.989263E-05  0.711E-03    0.11       1.5  T
   7   -171.8588094 -0.124716E-04  0.112E-03    0.11       9.4  T
   8   -171.8588095 -0.769415E-07  0.664E-04    0.11      15.9  T
   9   -171.8588095 -0.179916E-07  0.366E-04    0.11      28.8  T
     SCC iter.                  ...        0 min,  0.127 sec
     gradient                   ...        0 min,  0.017 sec
 * total energy  :  -169.0628619 Eh     change       -0.4920518E-03 Eh
   gradient norm :     0.0058417 Eh/α   predicted    -0.4391005E-03 ( -10.76%)
   displ. norm   :     0.1485350 α      lambda       -0.2100075E-03
   maximum displ.:     0.0722592 α      in ANC's #1, #6, #7, ...

........................................................................
.............................. CYCLE   47 ..............................
........................................................................
   1   -171.8553863 -0.171855E+03  0.816E-02    0.11       0.0  T
   2   -171.8538885  0.149781E-02  0.792E-02    0.11       1.0  T
   3   -171.7901534  0.637350E-01  0.437E-01    0.17       1.0  T
   4   -171.8546301 -0.644766E-01  0.491E-02    0.11       1.0  T
   5   -171.8553071 -0.676993E-03  0.170E-02    0.11       1.0  T
   6   -171.8553979 -0.908398E-04  0.444E-03    0.11       2.4  T
   7   -171.8554005 -0.258953E-05  0.194E-03    0.11       5.4  T
   8   -171.8554007 -0.211453E-06  0.988E-04    0.11      10.7  T
     SCC iter.                  ...        0 min,  0.120 sec
     gradient                   ...        0 min,  0.017 sec
 * total energy  :  -169.0628708 Eh     change       -0.8862768E-05 Eh
   gradient norm :     0.0071852 Eh/α   predicted    -0.1073277E-03 (1110.99%)
   displ. norm   :     0.2069686 α      lambda       -0.3778130E-03
   maximum displ.:     0.1064890 α      in ANC's #1, #6, #7, ...

........................................................................
.............................. CYCLE   48 ..............................
........................................................................
   1   -171.8532890 -0.171853E+03  0.927E-02    0.11       0.0  T
   2   -171.8455409  0.774807E-02  0.158E-01    0.11       1.0  T
   3   -171.8151020  0.304388E-01  0.335E-01    0.14       1.0  T
   4   -171.8529778 -0.378757E-01  0.388E-02    0.11       1.0  T
   5   -171.8532530 -0.275197E-03  0.169E-02    0.11       1.0  T
   6   -171.8532930 -0.400004E-04  0.113E-02    0.11       1.0  T
   7   -171.8533263 -0.332916E-04  0.357E-03    0.11       3.0  T
   8   -171.8533270 -0.716557E-06  0.232E-03    0.11       4.5  T
   9   -171.8533283 -0.133887E-05  0.832E-04    0.11      12.7  T
     SCC iter.                  ...        0 min,  0.132 sec
     gradient                   ...        0 min,  0.017 sec
 * total energy  :  -169.0630998 Eh     change       -0.2289948E-03 Eh
   gradient norm :     0.0092081 Eh/α   predicted    -0.1969991E-03 ( -13.97%)
   displ. norm   :     0.2980829 α      lambda       -0.3197673E-03
   maximum displ.:     0.1515043 α      in ANC's #1, #7, #6, ...

........................................................................
.............................. CYCLE   49 ..............................
........................................................................
   1   -171.8540373 -0.171854E+03  0.130E-01    0.11       0.0  T
   2   -171.8504629  0.357444E-02  0.123E-01    0.11       1.0  T
   3   -171.7531422  0.973206E-01  0.547E-01    0.24       1.0  T
   4   -171.8487776 -0.956353E-01  0.127E-01    0.11       1.0  T
   5   -171.8532446 -0.446700E-02  0.507E-02    0.11       1.0  T
   6   -171.8539775 -0.732877E-03  0.175E-02    0.11       1.0  T
   7   -171.8540348 -0.573927E-04  0.102E-02    0.11       1.0  T
   8   -171.8540653 -0.304781E-04  0.397E-03    0.11       2.7  T
   9   -171.8540695 -0.419466E-05  0.157E-03    0.11       6.7  T
  10   -171.8540703 -0.749302E-06  0.309E-04    0.11      34.1  T
  11   -171.8540702  0.400644E-07  0.373E-04    0.11      28.3  T
     SCC iter.                  ...        0 min,  0.153 sec
     gradient                   ...        0 min,  0.017 sec
 * total energy  :  -169.0632171 Eh     change       -0.1172860E-03 Eh
[...]
       157        0.2457           -0.3532582              -9.6126 (LUMO)
       158                         -0.3240434              -8.8177
       159                         -0.3121329              -8.4936
       160                         -0.3040934              -8.2748
       161                         -0.3001802              -8.1683
       162                         -0.2939440              -7.9986
       163                         -0.2852894              -7.7631
       164                         -0.2739078              -7.4534
       165                         -0.2648093              -7.2058
       166                         -0.2548054              -6.9336
       167                         -0.2441483              -6.6436
       ...                                ...                  ...
       328                          1.1708739              31.8611
      -------------------------------------------------------------
                  HL-Gap            0.0037347 Eh            0.1016 eV
             Fermi-level           -0.3551256 Eh           -9.6635 eV

     #   Z        covCN         q      C6AA      α(0)
     1   6 C      3.241    -0.011    27.335     8.476
     2   6 C      2.928    -0.022    28.558     8.764
     3  16 S      2.338     0.031   139.779    19.899
     4   6 C      2.926    -0.010    28.257     8.717
     5   6 C      3.244    -0.034    27.845     8.550
     6   6 C      2.858     0.227    23.234     7.901
     7   8 O      0.856    -0.385    21.384     6.200
     8   6 C      3.022    -0.031    28.741     8.794
     9   6 C      3.010     0.029    27.333     8.576
    10   6 C      2.947    -0.004    28.111     8.696
    11   6 C      1.937     0.119    28.151     8.568
    12   7 N      0.911    -0.248    26.462     7.440
    13   6 C      1.930     0.120    28.128     8.565
    14   7 N      0.911    -0.252    26.548     7.452
    15   6 C      2.901    -0.015    28.374     8.734
    16   6 C      2.932    -0.038    28.942     8.823
    17   6 C      2.987     0.039    27.128     8.544
    18   6 C      3.080    -0.041    28.922     8.817
    19   6 C      3.074    -0.040    28.921     8.817
    20   6 C      3.028     0.025    27.423     8.590
    21  16 S      2.349    -0.002   141.154    19.996
    22   6 C      3.028     0.024    27.431     8.591
    23   6 C      3.082    -0.043    28.973     8.824
    24   6 C      3.089    -0.043    28.971     8.823
    25   6 C      2.988     0.033    27.264     8.565
    26  16 S      2.365    -0.007   141.360    20.011
    27   6 C      2.932    -0.037    28.926     8.820
    28   6 C      2.931    -0.036    28.897     8.816
    29   6 C      2.987     0.033    27.247     8.562
    30   6 C      3.092    -0.042    28.940     8.817
    31   6 C      3.086    -0.043    28.971     8.823
    32   6 C      3.023     0.025    27.424     8.590
    33  16 S      2.351    -0.023   141.992    20.056
    34   6 C      3.023     0.025    27.425     8.590
    35   6 C      3.086    -0.043    28.973     8.823
    36   6 C      3.092    -0.042    28.940     8.817
    37   6 C      2.987     0.033    27.247     8.562
    38  16 S      2.350    -0.022   141.983    20.055
    39   6 C      2.930    -0.036    28.897     8.816
    40   6 C      2.931    -0.037    28.926     8.820
    41   6 C      2.988     0.033    27.264     8.565
    42   6 C      3.089    -0.043    28.971     8.823
    43   6 C      3.082    -0.043    28.972     8.824
    44   6 C      3.028     0.024    27.431     8.591
    45  16 S      2.363    -0.007   141.363    20.011
    46   6 C      3.028     0.025    27.422     8.590
    47   6 C      3.074    -0.040    28.921     8.817
    48   6 C      3.079    -0.041    28.922     8.817
    49   6 C      2.987     0.039    27.129     8.544
    50  16 S      2.347    -0.002   141.152    19.996
    51   6 C      2.932    -0.038    28.940     8.823
    52   6 C      2.901    -0.015    28.374     8.734
    53   6 C      3.022    -0.031    28.741     8.794
    54   6 C      2.858     0.227    23.233     7.900
    55   8 O      0.856    -0.385    21.382     6.200
    56   6 C      3.244    -0.034    27.847     8.551
    57   6 C      2.926    -0.010    28.256     8.717
    58  16 S      2.338     0.031   139.781    19.899
    59   6 C      2.928    -0.022    28.558     8.764
    60   6 C      3.241    -0.011    27.337     8.476
    61   6 C      3.010     0.029    27.332     8.576
    62   6 C      2.947    -0.004    28.112     8.696
    63   6 C      1.937     0.119    28.150     8.568
    64   7 N      0.911    -0.248    26.461     7.440
    65   6 C      1.930     0.120    28.128     8.565
    66   7 N      0.911    -0.252    26.545     7.452
    67   1 H      0.926     0.067     2.113     2.273
    68   1 H      0.926     0.066     2.127     2.281
    69   1 H      0.925     0.058     2.226     2.333
    70   1 H      0.926     0.090     1.877     2.142
    71   1 H      0.926     0.056     2.246     2.343
    72   1 H      0.926     0.048     2.343     2.393
    73   1 H      0.926     0.047     2.355     2.400
    74   1 H      0.926     0.049     2.332     2.388
    75   1 H      0.925     0.057     2.239     2.340
    76   1 H      0.925     0.062     2.178     2.308
    77   1 H      0.926     0.052     2.290     2.366
    78   1 H      0.926     0.048     2.348     2.396
    79   1 H      0.926     0.048     2.348     2.396
    80   1 H      0.926     0.052     2.290     2.366
    81   1 H      0.925     0.062     2.178     2.308
    82   1 H      0.925     0.056     2.240     2.341
    83   1 H      0.926     0.049     2.332     2.388
    84   1 H      0.926     0.047     2.355     2.400
    85   1 H      0.926     0.048     2.343     2.393
    86   1 H      0.926     0.056     2.246     2.344
    87   1 H      0.926     0.090     1.878     2.143
    88   1 H      0.925     0.058     2.225     2.332
    89   1 H      0.926     0.066     2.127     2.281
    90   1 H      0.926     0.068     2.113     2.273

 Mol. C6AA /au·bohr⁶  :     189508.790409
 Mol. C8AA /au·bohr⁸  :    5784212.064692
 Mol. α(0) /au        :        708.362445


Wiberg/Mayer (AO) data.
largest (>0.10) Wiberg bond orders for each atom
          total WBO             WBO to atom ...
     1  C   3.979        C    2 1.574    C    5 1.158    C    9 1.086
     2  C   3.932        C    1 1.574    S    3 1.194    H   67 0.964
     3  S   2.640        C    4 1.196    C    2 1.194
     4  C   3.944        C    5 1.591    S    3 1.196    H   68 0.967
     5  C   3.975        C    4 1.591    C    1 1.158    C    6 1.023
     6  C   3.916        O    7 1.741    C    8 1.043    C    5 1.023
     7  O   2.014        C    6 1.741
     8  C   3.841        C   15 1.403    C    9 1.187    C    6 1.043
     9  C   3.965        C   10 1.429    C    8 1.187    C    1 1.086
    10  C   3.896        C    9 1.429    C   13 1.114    C   11 1.106
    11  C   3.944        N   12 2.756    C   10 1.106
    12  N   2.954        C   11 2.756
    13  C   3.944        N   14 2.742    C   10 1.114
    14  N   2.944        C   13 2.742
    15  C   3.939        C   16 1.411    C    8 1.403    H   69 0.943
    16  C   3.834        C   15 1.411    C   17 1.348    H   70 0.944
    17  C   3.916        C   16 1.348    C   18 1.312    S   21 1.105
    18  C   3.900        C   19 1.483    C   17 1.312    H   71 0.963
    19  C   3.945        C   18 1.483    C   20 1.333    H   72 0.963
    20  C   3.873        C   19 1.333    C   22 1.258    S   21 1.140
    21  S   2.552        C   20 1.140    C   17 1.105
    22  C   3.918        C   23 1.362    C   20 1.258    S   26 1.129
    23  C   3.931        C   24 1.440    C   22 1.362    H   73 0.963
    24  C   3.935        C   23 1.440    C   25 1.370    H   74 0.963
    25  C   3.894        C   24 1.370    C   27 1.258    S   26 1.126
    26  S   2.555        C   22 1.129    C   25 1.126
    27  C   3.941        C   28 1.563    C   25 1.258    H   75 0.952
    28  C   3.929        C   27 1.563    C   29 1.257    H   76 0.949
    29  C   3.907        C   30 1.385    C   28 1.257    S   33 1.117
    30  C   3.933        C   31 1.423    C   29 1.385    H   77 0.963
    31  C   3.948        C   30 1.423    C   32 1.385    H   78 0.962
    32  C   3.910        C   31 1.385    C   34 1.229    S   33 1.133
    33  S   2.550        C   32 1.133    C   29 1.117
    34  C   3.910        C   35 1.385    C   32 1.229    S   38 1.132
    35  C   3.948        C   36 1.423    C   34 1.385    H   79 0.962
    36  C   3.933        C   35 1.423    C   37 1.384    H   80 0.963
    37  C   3.907        C   36 1.384    C   39 1.257    S   38 1.117
    38  S   2.550        C   34 1.132    C   37 1.117
    39  C   3.929        C   40 1.563    C   37 1.257    H   81 0.949
    40  C   3.941        C   39 1.563    C   41 1.258    H   82 0.952
    41  C   3.894        C   42 1.370    C   40 1.258    S   45 1.126
    42  C   3.935        C   43 1.441    C   41 1.370    H   83 0.963
    43  C   3.931        C   42 1.441    C   44 1.361    H   84 0.963
    44  C   3.918        C   43 1.361    C   46 1.258    S   45 1.128
    45  S   2.555        C   44 1.128    C   41 1.126
    46  C   3.873        C   47 1.333    C   44 1.258    S   50 1.140
    47  C   3.945        C   48 1.483    C   46 1.333    H   85 0.963
    48  C   3.900        C   47 1.483    C   49 1.311    H   86 0.963
    49  C   3.916        C   51 1.349    C   48 1.311    S   50 1.105
    50  S   2.552        C   46 1.140    C   49 1.105
    51  C   3.834        C   52 1.410    C   49 1.349    H   87 0.944
    52  C   3.939        C   51 1.410    C   53 1.404    H   88 0.943
    53  C   3.841        C   52 1.404    C   61 1.186    C   54 1.043
    54  C   3.916        O   55 1.741    C   53 1.043    C   56 1.023
    55  O   2.014        C   54 1.741
    56  C   3.975        C   57 1.591    C   60 1.158    C   54 1.023
    57  C   3.944        C   56 1.591    S   58 1.197    H   89 0.967
    58  S   2.640        C   57 1.197    C   59 1.194
    59  C   3.931        C   60 1.574    S   58 1.194    H   90 0.964
    60  C   3.979        C   59 1.574    C   56 1.158    C   61 1.086
    61  C   3.965        C   62 1.430    C   53 1.186    C   60 1.086
    62  C   3.896        C   61 1.430    C   65 1.114    C   63 1.106
    63  C   3.944        N   64 2.756    C   62 1.106
    64  N   2.954        C   63 2.756
    65  C   3.944        N   66 2.742    C   62 1.114
    66  N   2.944        C   65 2.742
    67  H   0.995        C    2 0.964
    68  H   0.995        C    4 0.967
    69  H   0.996        C   15 0.943
    70  H   0.991        C   16 0.944
    71  H   0.996        C   18 0.963
    72  H   0.997        C   19 0.963
    73  H   0.997        C   23 0.963
    74  H   0.997        C   24 0.963
    75  H   0.996        C   27 0.952
    76  H   0.996        C   28 0.949
    77  H   0.997        C   30 0.963
    78  H   0.997        C   31 0.962
    79  H   0.997        C   35 0.962
    80  H   0.997        C   36 0.963
    81  H   0.996        C   39 0.949
    82  H   0.996        C   40 0.952
    83  H   0.997        C   42 0.963
    84  H   0.997        C   43 0.963
    85  H   0.997        C   47 0.963
    86  H   0.996        C   48 0.963
    87  H   0.991        C   51 0.944
    88  H   0.996        C   52 0.943
    89  H   0.995        C   57 0.967
    90  H   0.995        C   59 0.964

molecular dipole:
                 x           y           z       tot (Debye)
 q only:        2.485      -2.900       2.705
   full:        3.124      -3.468       2.634      13.622
molecular quadrupole (traceless):
                xx          xy          yy          xz          yz          zz
 q only:      151.987    -105.440    -155.111      50.682      68.071       3.125
  q+dip:      196.935     -98.420    -178.815      39.747      82.205     -18.120
   full:      192.151     -94.666    -184.332      35.628      83.205      -7.819

           -------------------------------------------------
          |                Geometry Summary                 |
           -------------------------------------------------

      molecular mass/u    :      993.2672000
   center of mass at/Å    :       12.1191148       7.6793458      -3.9990872
  moments of inertia/u·Å² :        0.1433157E+05   0.1086399E+06   0.1169933E+06
rotational constants/cm⁻¹ :        0.1176258E-02   0.1551698E-03   0.1440905E-03

 * 89 selected distances

     #   Z        #   Z                                     value/Å
     1   6 C      2   6 C                                 1.3592265
     2   6 C      3  16 S                                 1.7269624
     3  16 S      4   6 C                                 1.7275418
     1   6 C      5   6 C                                 1.4324613
     4   6 C      5   6 C                                 1.3552798
     6   6 C      7   8 O                                 1.2154578
     8   6 C      9   6 C                                 1.4384657
     9   6 C     10   6 C                                 1.3782904
    11   6 C     12   7 N                                 1.1491485
    13   6 C     14   7 N                                 1.1509338
     8   6 C     15   6 C                                 1.3867701
    15   6 C     16   6 C                                 1.3842017
    16   6 C     17   6 C                                 1.3913602
    17   6 C     18   6 C                                 1.4023751
    18   6 C     19   6 C                                 1.3759063
    19   6 C     20   6 C                                 1.3982571
    17   6 C     21  16 S                                 1.7496195
    20   6 C     21  16 S                                 1.7392579
    20   6 C     22   6 C                                 1.4052683
    22   6 C     23   6 C                                 1.3934095
    23   6 C     24   6 C                                 1.3824668
    24   6 C     25   6 C                                 1.3921038
    22   6 C     26  16 S                                 1.7409085
    25   6 C     26  16 S                                 1.7426279
    25   6 C     27   6 C                                 1.4081043
    27   6 C     28   6 C                                 1.3620840
    28   6 C     29   6 C                                 1.4075473
    29   6 C     30   6 C                                 1.3895255
    30   6 C     31   6 C                                 1.3843574
    31   6 C     32   6 C                                 1.3896837
    29   6 C     33  16 S                                 1.7444184
    32   6 C     33  16 S                                 1.7403034
    32   6 C     34   6 C                                 1.4112182
    34   6 C     35   6 C                                 1.3896243
    35   6 C     36   6 C                                 1.3842281
    36   6 C     37   6 C                                 1.3897027
    34   6 C     38  16 S                                 1.7405918
    37   6 C     38  16 S                                 1.7442575
    37   6 C     39   6 C                                 1.4074249
    39   6 C     40   6 C                                 1.3620689
    40   6 C     41   6 C                                 1.4081405
    41   6 C     42   6 C                                 1.3922629
    42   6 C     43   6 C                                 1.3823070
    43   6 C     44   6 C                                 1.3935556
    41   6 C     45  16 S                                 1.7426868
    44   6 C     45  16 S                                 1.7412331
    44   6 C     46   6 C                                 1.4050208
    46   6 C     47   6 C                                 1.3985120
    47   6 C     48   6 C                                 1.3757732
    48   6 C     49   6 C                                 1.4025572
    46   6 C     50  16 S                                 1.7392837
    49   6 C     50  16 S                                 1.7502220 (max)
    49   6 C     51   6 C                                 1.3911913
    51   6 C     52   6 C                                 1.3845533
    52   6 C     53   6 C                                 1.3865012
    54   6 C     55   8 O                                 1.2153631
    56   6 C     57   6 C                                 1.3553614
    57   6 C     58  16 S                                 1.7275005
    58  16 S     59   6 C                                 1.7271854
    56   6 C     60   6 C                                 1.4324952
    59   6 C     60   6 C                                 1.3592308
    53   6 C     61   6 C                                 1.4385075
    61   6 C     62   6 C                                 1.3780702
    63   6 C     64   7 N                                 1.1487543
    65   6 C     66   7 N                                 1.1509306
     2   6 C     67   1 H                                 1.0715034
     4   6 C     68   1 H                                 1.0714113
    15   6 C     69   1 H                                 1.0836442
    16   6 C     70   1 H                                 1.0806524
    18   6 C     71   1 H                                 1.0753434
    19   6 C     72   1 H                                 1.0750754
    23   6 C     73   1 H                                 1.0748183
    24   6 C     74   1 H                                 1.0756668
    27   6 C     75   1 H                                 1.0828935
    28   6 C     76   1 H                                 1.0831653
    30   6 C     77   1 H                                 1.0754011
    31   6 C     78   1 H                                 1.0745692
    35   6 C     79   1 H                                 1.0745829
    36   6 C     80   1 H                                 1.0753764
    39   6 C     81   1 H                                 1.0831623
    40   6 C     82   1 H                                 1.0828339
    42   6 C     83   1 H                                 1.0756532
    43   6 C     84   1 H                                 1.0748528
    47   6 C     85   1 H                                 1.0751397
    48   6 C     86   1 H                                 1.0754146
    51   6 C     87   1 H                                 1.0806874
    52   6 C     88   1 H                                 1.0838707
    57   6 C     89   1 H                                 1.0715637
    59   6 C     90   1 H                                 1.0713890 (min)

 * 5 distinct bonds (by element types)

   Z      Z             #   av. dist./Å        max./Å        min./Å
   1 H    6 C          24     1.0770280     1.0838707     1.0713890
   6 C    6 C          43     1.3917547     1.4385075     1.3552798
   6 C    7 N           4     1.1499418     1.1509338     1.1487543
   6 C    8 O           2     1.2154105     1.2154578     1.2153631
   6 C   16 S          16     1.7390375     1.7502220     1.7269624


optimized geometry written to: xtbopt.xyz


           -------------------------------------------------
          | TOTAL ENERGY             -169.075312682234 Eh   |
          | GRADIENT NORM               0.005023307310 Eh/α |
          | HOMO-LUMO GAP               0.101625432760 eV   |
           -------------------------------------------------

------------------------------------------------------------------------
 * finished run on 2021/06/17 at 23:27:50.030     
------------------------------------------------------------------------
 total:
 * wall-time:     0 d,  0 h,  0 min, 52.965 sec
 *  cpu-time:     0 d,  0 h, 10 min, 35.366 sec
 * ratio c/w:    11.996 speedup
 SCF:
 * wall-time:     0 d,  0 h,  0 min,  0.274 sec
 *  cpu-time:     0 d,  0 h,  0 min,  3.268 sec
 * ratio c/w:    11.925 speedup
 ANC optimizer:
 * wall-time:     0 d,  0 h,  0 min, 52.572 sec
 *  cpu-time:     0 d,  0 h, 10 min, 30.857 sec
 * ratio c/w:    12.000 speedup

