      -----------------------------------------------------------      
     |                   =====================                   |     
     |                           x T B                           |     
     |                   =====================                   |     
     |                         S. Grimme                         |     
     |          Mulliken Center for Theoretical Chemistry        |     
     |                    University of Bonn                     |     
     |                Version 6.2 RC2 (SAW190805)                |     
      -----------------------------------------------------------      

   This program is distributed in the hope that it will be useful,
   but WITHOUT ANY WARRANTY; without even the implied warranty of
   MERCHANTABILITY or FITNESS FOR A PARTICULAR PURPOSE.
   
   FOR NON-COMMERCIAL, ACADEMIA USE ONLY.
   
   Cite this work as:
   * S. Grimme, C. Bannwarth, P. Shushkov, J. Chem. Theory Comput., 2017,
     13, 1989-2009. DOI: 10.1021/acs.jctc.7b00118
   * C. Bannwarth, S. Ehlert and S. Grimme., J. Chem. Theory Comput., 2019,
     15, 1652-1671. DOI: 10.1021/acs.jctc.8b01176
   * P. Pracht, E. Caldeweyher, S. Ehlert, S. Grimme, ChemRxiv, 2019, preprint.
     DOI: 10.26434/chemrxiv.8326202.v1
   
   for DFT-D4:
   * E. Caldeweyher, C. Bannwarth and S. Grimme, J. Chem. Phys., 2017,
     147, 034112. DOI: 10.1063/1.4993215
   * E. Caldeweyher, S. Ehlert, A. Hansen, H. Neugebauer, S. Spicher,
     C. Bannwarth and S. Grimme, J. Chem. Phys., 2019, 150, 154122.
     DOI: 10.1063/1.5090222
   
   for sTDA-xTB:
   * S. Grimme and C. Bannwarth, J. Chem. Phys., 2016, 145, 054103.
     DOI: 10.1063/1.4959605
   
   in the mass-spec context:
   * V. Asgeirsson, C. Bauer and S. Grimme, Chem. Sci., 2017, 8, 4879.
     DOI: 10.1039/c7sc00601b
   
   for metadynamics refer to:
   * S. Grimme, J. Chem. Theory Comput., 2019, 155, 2847-2862
     DOI: 10.1021/acs.jctc.9b00143
   
   with help from (in alphabetical order)
   C. Bannwarth, F. Bohle, G. Brandenburg, E. Caldeweyher, M. Checinski,
   S. Dohm, S. Ehlert, S. Ehrlich, F. März, H. Neugebauer, J. Pisarek,
   P. Pracht, P. Shushkov, and S. Spicher.
   
 * started run on 2021/07/03 at 02:54:46.620     

           -------------------------------------------------
          |                Calculation Setup                |
           -------------------------------------------------

          program call               : /ihome/ghutchison/geoffh/xtb/xtb /ihome/ghutchison/blp62/GA/running_GA/opt_GA/generations/107/30_6_63_6_30_10201.xyz -opt
          hostname                   : smp-n102
          coordinate file            : /ihome/ghutchison/blp62/GA/running_GA/opt_GA/generations/107/30_6_63_6_30_10201.xyz
          omp threads                :                    12
          number of atoms            :                    94
          number of electrons        :                   340
          charge                     :                     0
          spin                       :                   0.0
          first test random number   :      0.90376983108950


########################################################################
# WARNING! Please study the warnings concerning your input carefully
#  - XTBPATH is not set, using XTBHOME instead
#  - the use of '-opt' is discouraged, please use '--opt' next time
########################################################################

           ------------------------------------------------- 
          |                 G F N 2 - x T B                 |
          | Geometry, Frequencies, Noncovalent interactions |
          |            JCTC 2019 parametrisation            |
           ------------------------------------------------- 
             KAB for C  - Si     :                1.0500
             KAB for H  - Pd     :                0.9500
             k(s)              :                1.8500
             k(p)              :                2.2300
             k(d)              :                2.2300
             k(f)              :                2.0000
             kEN (H0ij)        :               -2.0000
             D4 a1             :                0.5200
             D4 a2             :                5.0000
             D4 s6             :                1.0000
             D4 s8             :                2.7000
             D4 s9             :                5.0000
             alphaj            :                2.0000

  Z AO/shell   Hii/eV     exponent
  1     Wed Apr 25 08:07:45 CEST 2018   EN: 2.200 GM2: 0.406  GM3: 0.0800  RAES: 1.40
     1s    -10.707211    1.230000
  6     Wed Apr 25 08:07:45 CEST 2018   EN: 2.550 GM2: 0.538  GM3: 0.1500  RAES: 3.00
     2s    -13.970922    2.096432
     2p    -10.063292    1.800000
  7     Wed Apr 25 08:07:45 CEST 2018   EN: 3.040 GM2: 0.461  GM3:-0.0640  RAES: 1.90
     2s    -16.686243    2.339881
     2p    -12.523956    2.014332
  8     Wed Apr 25 08:07:45 CEST 2018   EN: 3.440 GM2: 0.452  GM3:-0.0517  RAES: 1.80
     2s    -20.229985    2.439742
     2p    -15.503117    2.137023
  9     Mon Apr 23 13:58:50 CEST 2018   EN: 3.980 GM2: 0.532  GM3: 0.1426  RAES: 2.40
     2s    -23.458179    2.416361
     2p    -15.746583    2.308399
 16     Tue Apr 24 11:44:34 CEST 2018   EN: 2.580 GM2: 0.340  GM3:-0.0502  RAES: 3.10
     3s    -20.029654    1.981333
     3p    -11.377694    2.025643
     3d     -0.420282    1.702555

           ------------------------------------------------- 
          |        Self-Consistent Charge Iterations        |
           ------------------------------------------------- 

          ...................................................
          :                      SETUP                      :
          :.................................................:
          :  # basis functions                 358          :
          :  # atomic orbitals                 350          :
          :  # shells                          174          :
          :  # electrons                       340          :
          :  max. iterations                   250          :
          :  Hamiltonian                  GFN2-xTB          :
          :  restarted?                      false          :
          :  GBSA solvation                  false          :
          :  PC potential                    false          :
          :  electronic temp.          300.0000000     K    :
          :  accuracy                    1.0000000          :
          :  -> integral cutoff          0.2500000E+02      :
          :  -> integral neglect         0.1000000E-07      :
          :  -> SCF convergence          0.1000000E-05 Eh   :
          :  -> wf. convergence          0.1000000E-03 e    :
          :  Broyden damping             0.4000000          :
          ...................................................

 iter      E             dE          RMSdq      gap      omega  full diag
   1   -188.7164093 -0.188716E+03  0.523E+00    1.41       0.0  T
   2   -188.7347208 -0.183116E-01  0.333E+00    1.12       1.0  T
   3   -188.4674236  0.267297E+00  0.248E+00    0.82       1.0  T
   4   -188.9274229 -0.459999E+00  0.629E-01    0.82       1.0  T
   5   -188.9492039 -0.217810E-01  0.270E-01    0.73       1.0  T
   6   -188.9511306 -0.192672E-02  0.157E-01    0.81       1.0  T
   7   -188.9531663 -0.203565E-02  0.601E-02    0.81       1.0  T
   8   -188.9534325 -0.266256E-03  0.281E-02    0.81       1.0  T
   9   -188.9534683 -0.357765E-04  0.141E-02    0.81       1.0  T
  10   -188.9534741 -0.583638E-05  0.785E-03    0.81       1.3  T
  11   -188.9534772 -0.309267E-05  0.394E-03    0.81       2.6  T
  12   -188.9534781 -0.867631E-06  0.194E-03    0.81       5.3  T
  13   -188.9534782 -0.130949E-06  0.989E-04    0.81      10.4  T
  14   -188.9534782 -0.245920E-07  0.548E-04    0.81      18.8  T

   *** convergence criteria satisfied after 14 iterations ***

         #    Occupation            Energy/Eh            Energy/eV
      -------------------------------------------------------------
         1        2.0000           -0.8362766             -22.7562
       ...           ...                  ...                  ...
       164        2.0000           -0.4037941             -10.9878
       165        2.0000           -0.4029649             -10.9652
       166        2.0000           -0.3975180             -10.8170
       167        2.0000           -0.3892953             -10.5933
       168        2.0000           -0.3769774             -10.2581
       169        2.0000           -0.3718609             -10.1188
       170        2.0000           -0.3640069              -9.9051 (HOMO)
       171        0.0000           -0.3343263              -9.0975 (LUMO)
       172                         -0.3249789              -8.8431
       173                         -0.3178781              -8.6499
       174                         -0.3104181              -8.4469
       175                         -0.2968344              -8.0773
       ...                                ...                  ...
       350                          1.0848085              29.5191
      -------------------------------------------------------------
                  HL-Gap            0.0296806 Eh            0.8077 eV
             Fermi-level           -0.3491665 Eh           -9.5013 eV

 SCC (total)                   0 d,  0 h,  0 min,  0.240 sec
 SCC setup                      ...        0 min,  0.002 sec (  0.892%)
 Dispersion                     ...        0 min,  0.005 sec (  2.007%)
 integral evaluation            ...        0 min,  0.029 sec ( 12.240%)
 zeroth order Hamiltonian       ...        0 min,  0.001 sec (  0.620%)
 iterations                     ...        0 min,  0.179 sec ( 74.395%)
 molecular gradient             ...        0 min,  0.022 sec (  9.343%)
 printout                       ...        0 min,  0.001 sec (  0.457%)

         :::::::::::::::::::::::::::::::::::::::::::::::::::::
         ::                     SUMMARY                     ::
         :::::::::::::::::::::::::::::::::::::::::::::::::::::
         :: total energy            -186.099711718517 Eh    ::
         :: gradient norm              0.205729408193 Eh/a0 ::
         :: HOMO-LUMO gap              0.807650043685 eV    ::
         ::.................................................::
         :: SCC energy              -188.953478246904 Eh    ::
         :: -> isotropic ES            0.105319589636 Eh    ::
         :: -> anisotropic ES          0.007144284959 Eh    ::
         :: -> anisotropic XC          0.114639963081 Eh    ::
         :: -> dispersion             -0.156810587551 Eh    ::
         :: repulsion energy           2.853359864606 Eh    ::
         :: add. restraining           0.000000000000 Eh    ::
         :::::::::::::::::::::::::::::::::::::::::::::::::::::

      ----------------------------------------------------------- 
     |                   =====================                   |
     |                        A N C O P T                        |
     |                   =====================                   |
     |               Approximate Normal Coordinate               |
     |                Rational Function Optimizer                |
      ----------------------------------------------------------- 

          ...................................................
          :                      SETUP                      :
          :.................................................:
          :   optimization level            normal          :
          :   max. optcycles                   282          :
          :   ANC micro-cycles                  20          :
          :   degrees of freedom               276          :
          :.................................................:
          :   RF solver                   davidson          :
          :   input Hessian                  false          :
          :   write xtbopt.log                true          :
          :   linear?                        false          :
          :   energy convergence         0.5000000E-05 Eh   :
          :   grad. convergence          0.1000000E-02 Eh/α :
          :   maximium RF displ.         2.0000000          :
          :   Hlow (freq-cutoff)         0.5000000E-02      :
          :   Hmax (freq-cutoff)         5.0000000          :
          :   S6 in model hess.         20.0000000          :
          ...................................................

generating ANC from model Hessian ...
Using Lindh-Hessian (1995)
 Shifting diagonal of input Hessian by   4.982053900438673E-003
 Lowest  eigenvalues of input Hessian
   -0.000000   -0.000000    0.000000    0.000000    0.000000    0.000000
    0.005000    0.005011    0.005021    0.005027    0.005060    0.005082
    0.005133    0.005177    0.005247    0.005331    0.005403    0.005599
 Highest eigenvalues
    2.256262    2.265264    2.500089    2.505757    2.568511    2.572290
 

........................................................................
.............................. CYCLE    1 ..............................
........................................................................
   1   -188.9534783 -0.188953E+03  0.228E-04    0.81       0.0  T
   2   -188.9534783  0.592280E-09  0.206E-04    0.81      50.2  T
   3   -188.9534783 -0.330772E-08  0.927E-05    0.81     111.2  T
     SCC iter.                  ...        0 min,  0.039 sec
     gradient                   ...        0 min,  0.022 sec
 * total energy  :  -186.0997115 Eh     change        0.2057971E-06 Eh
   gradient norm :     0.2057290 Eh/α   predicted     0.0000000E+00 (-100.00%)
   displ. norm   :     0.4400417 α      lambda       -0.5209327E-01
   maximum displ.:     0.1198549 α      in ANC's #85, #75, #52, ...

........................................................................
.............................. CYCLE    2 ..............................
........................................................................
   1   -189.0589924 -0.189059E+03  0.354E-01    0.80       0.0  T
   2   -189.0591488 -0.156475E-03  0.201E-01    0.80       1.0  T
   3   -189.0576792  0.146959E-02  0.152E-01    0.80       1.0  T
   4   -189.0599246 -0.224537E-02  0.523E-02    0.79       1.0  T
   5   -189.0601010 -0.176425E-03  0.267E-02    0.79       1.0  T
   6   -189.0601203 -0.193191E-04  0.130E-02    0.80       1.0  T
   7   -189.0601361 -0.157277E-04  0.404E-03    0.79       2.6  T
   8   -189.0601371 -0.989946E-06  0.223E-03    0.79       4.6  T
   9   -189.0601373 -0.265063E-06  0.124E-03    0.79       8.3  T
     SCC iter.                  ...        0 min,  0.103 sec
     gradient                   ...        0 min,  0.021 sec
 * total energy  :  -186.1361602 Eh     change       -0.3644866E-01 Eh
   gradient norm :     0.0852167 Eh/α   predicted    -0.3109041E-01 ( -14.70%)
   displ. norm   :     0.4932102 α      lambda       -0.1958449E-01
   maximum displ.:     0.1477069 α      in ANC's #32, #34, #59, ...

........................................................................
.............................. CYCLE    3 ..............................
........................................................................
   1   -189.0866006 -0.189087E+03  0.317E-01    0.75       0.0  T
   2   -189.0868243 -0.223638E-03  0.171E-01    0.77       1.0  T
   3   -189.0856817  0.114258E-02  0.126E-01    0.76       1.0  T
   4   -189.0871846 -0.150294E-02  0.428E-02    0.76       1.0  T
   5   -189.0873048 -0.120213E-03  0.220E-02    0.76       1.0  T
   6   -189.0873238 -0.189379E-04  0.854E-03    0.76       1.2  T
   7   -189.0873298 -0.602060E-05  0.380E-03    0.76       2.7  T
   8   -189.0873307 -0.926700E-06  0.209E-03    0.76       4.9  T
   9   -189.0873310 -0.288134E-06  0.110E-03    0.76       9.4  T
     SCC iter.                  ...        0 min,  0.105 sec
     gradient                   ...        0 min,  0.021 sec
 * total energy  :  -186.1485571 Eh     change       -0.1239694E-01 Eh
   gradient norm :     0.0262826 Eh/α   predicted    -0.1217427E-01 (  -1.80%)
   displ. norm   :     0.6097108 α      lambda       -0.7980752E-02
   maximum displ.:     0.1837009 α      in ANC's #35, #22, #32, ...

........................................................................
.............................. CYCLE    4 ..............................
........................................................................
   1   -189.0790825 -0.189079E+03  0.344E-01    0.71       0.0  T
   2   -189.0792133 -0.130819E-03  0.188E-01    0.75       1.0  T
   3   -189.0774173  0.179602E-02  0.133E-01    0.72       1.0  T
   4   -189.0794158 -0.199850E-02  0.307E-02    0.75       1.0  T
   5   -189.0794765 -0.607674E-04  0.148E-02    0.75       1.0  T
   6   -189.0794856 -0.906290E-05  0.577E-03    0.75       1.8  T
   7   -189.0794875 -0.189699E-05  0.282E-03    0.74       3.7  T
   8   -189.0794879 -0.365170E-06  0.144E-03    0.74       7.2  T
     SCC iter.                  ...        0 min,  0.100 sec
     gradient                   ...        0 min,  0.021 sec
 * total energy  :  -186.1513551 Eh     change       -0.2797944E-02 Eh
   gradient norm :     0.0493020 Eh/α   predicted    -0.5473788E-02 (  95.64%)
   displ. norm   :     0.6021329 α      lambda       -0.1112605E-01
   maximum displ.:     0.2081881 α      in ANC's #34, #32, #36, ...

........................................................................
.............................. CYCLE    5 ..............................
........................................................................
   1   -189.0902252 -0.189090E+03  0.361E-01    0.72       0.0  T
   2   -189.0903077 -0.824069E-04  0.199E-01    0.77       1.0  T
   3   -189.0878574  0.245022E-02  0.151E-01    0.73       1.0  T
   4   -189.0905583 -0.270081E-02  0.274E-02    0.75       1.0  T
   5   -189.0906073 -0.490873E-04  0.127E-02    0.76       1.0  T
   6   -189.0906137 -0.632330E-05  0.523E-03    0.76       2.0  T
   7   -189.0906151 -0.147864E-05  0.233E-03    0.76       4.4  T
   8   -189.0906153 -0.179459E-06  0.142E-03    0.75       7.2  T
     SCC iter.                  ...        0 min,  0.101 sec
     gradient                   ...        0 min,  0.022 sec
 * total energy  :  -186.1564873 Eh     change       -0.5132217E-02 Eh
   gradient norm :     0.0403650 Eh/α   predicted    -0.7579980E-02 (  47.69%)
   displ. norm   :     0.3638279 α      lambda       -0.3847321E-02
   maximum displ.:     0.1505666 α      in ANC's #16, #34, #4, ...

........................................................................
.............................. CYCLE    6 ..............................
........................................................................
   1   -189.0881930 -0.189088E+03  0.173E-01    0.74       0.0  T
   2   -189.0881935 -0.505974E-06  0.944E-02    0.76       1.0  T
   3   -189.0875355  0.658017E-03  0.819E-02    0.74       1.0  T
   4   -189.0882854 -0.749899E-03  0.157E-02    0.76       1.0  T
   5   -189.0882926 -0.712911E-05  0.100E-02    0.76       1.0  T
   6   -189.0882986 -0.600915E-05  0.337E-03    0.76       3.1  T
   7   -189.0882995 -0.890102E-06  0.134E-03    0.76       7.7  T
   8   -189.0882996 -0.983324E-07  0.710E-04    0.76      14.5  T
     SCC iter.                  ...        0 min,  0.096 sec
     gradient                   ...        0 min,  0.021 sec
 * total energy  :  -186.1594657 Eh     change       -0.2978417E-02 Eh
   gradient norm :     0.0202629 Eh/α   predicted    -0.2178301E-02 ( -26.86%)
   displ. norm   :     0.6873950 α      lambda       -0.5386976E-02
   maximum displ.:     0.2326142 α      in ANC's #16, #23, #11, ...

........................................................................
.............................. CYCLE    7 ..............................
........................................................................
   1   -189.0878757 -0.189088E+03  0.315E-01    0.73       0.0  T
   2   -189.0877861  0.895421E-04  0.178E-01    0.77       1.0  T
   3   -189.0845439  0.324220E-02  0.173E-01    0.74       1.0  T
   4   -189.0882509 -0.370695E-02  0.284E-02    0.76       1.0  T
   5   -189.0882811 -0.302527E-04  0.165E-02    0.76       1.0  T
   6   -189.0882948 -0.136512E-04  0.630E-03    0.76       1.6  T
   7   -189.0882977 -0.294661E-05  0.243E-03    0.76       4.2  T
   8   -189.0882980 -0.289510E-06  0.123E-03    0.76       8.4  T
     SCC iter.                  ...        0 min,  0.096 sec
     gradient                   ...        0 min,  0.021 sec
 * total energy  :  -186.1620851 Eh     change       -0.2619449E-02 Eh
   gradient norm :     0.0265126 Eh/α   predicted    -0.3966194E-02 (  51.41%)
   displ. norm   :     0.6246843 α      lambda       -0.6059097E-02
   maximum displ.:     0.1937105 α      in ANC's #4, #34, #16, ...

........................................................................
.............................. CYCLE    8 ..............................
........................................................................
   1   -189.0921099 -0.189092E+03  0.338E-01    0.73       0.0  T
   2   -189.0920160  0.939080E-04  0.192E-01    0.77       1.0  T
   3   -189.0878887  0.412728E-02  0.189E-01    0.74       1.0  T
   4   -189.0925192 -0.463046E-02  0.310E-02    0.76       1.0  T
   5   -189.0925852 -0.660033E-04  0.138E-02    0.76       1.0  T
   6   -189.0925921 -0.695225E-05  0.608E-03    0.76       1.7  T
   7   -189.0925946 -0.245100E-05  0.269E-03    0.76       3.8  T
   8   -189.0925950 -0.439414E-06  0.138E-03    0.76       7.5  T
     SCC iter.                  ...        0 min,  0.096 sec
     gradient                   ...        0 min,  0.021 sec
 * total energy  :  -186.1639025 Eh     change       -0.1817348E-02 Eh
   gradient norm :     0.0319451 Eh/α   predicted    -0.4211773E-02 ( 131.75%)
   displ. norm   :     0.3137827 α      lambda       -0.3500611E-02
   maximum displ.:     0.1088153 α      in ANC's #11, #16, #23, ...

........................................................................
.............................. CYCLE    9 ..............................
........................................................................
   1   -189.1040462 -0.189104E+03  0.182E-01    0.75       0.0  T
   2   -189.1040452  0.946384E-06  0.100E-01    0.75       1.0  T
   3   -189.1031178  0.927394E-03  0.894E-02    0.75       1.0  T
   4   -189.1041306 -0.101277E-02  0.146E-02    0.75       1.0  T
   5   -189.1041425 -0.119249E-04  0.753E-03    0.75       1.4  T
   6   -189.1041449 -0.237652E-05  0.321E-03    0.75       3.2  T
   7   -189.1041456 -0.734714E-06  0.137E-03    0.75       7.5  T
     SCC iter.                  ...        0 min,  0.085 sec
     gradient                   ...        0 min,  0.021 sec
 * total energy  :  -186.1660673 Eh     change       -0.2164837E-02 Eh
   gradient norm :     0.0211266 Eh/α   predicted    -0.1922647E-02 ( -11.19%)
   displ. norm   :     0.5250680 α      lambda       -0.2656538E-02
   maximum displ.:     0.1701266 α      in ANC's #36, #20, #14, ...

........................................................................
.............................. CYCLE   10 ..............................
........................................................................
   1   -189.0965712 -0.189097E+03  0.215E-01    0.73       0.0  T
   2   -189.0964588  0.112405E-03  0.121E-01    0.74       1.0  T
   3   -189.0942616  0.219716E-02  0.134E-01    0.73       1.0  T
   4   -189.0967486 -0.248702E-02  0.186E-02    0.74       1.0  T
   5   -189.0967561 -0.748044E-05  0.113E-02    0.74       1.0  T
   6   -189.0967616 -0.552166E-05  0.494E-03    0.74       2.1  T
   7   -189.0967635 -0.185454E-05  0.235E-03    0.74       4.4  T
     SCC iter.                  ...        0 min,  0.083 sec
     gradient                   ...        0 min,  0.021 sec
 * total energy  :  -186.1675562 Eh     change       -0.1488900E-02 Eh
   gradient norm :     0.0247347 Eh/α   predicted    -0.1694474E-02 (  13.81%)
   displ. norm   :     0.5140092 α      lambda       -0.2692756E-02
   maximum displ.:     0.1744470 α      in ANC's #14, #11, #20, ...

........................................................................
.............................. CYCLE   11 ..............................
........................................................................
   1   -189.1106005 -0.189111E+03  0.219E-01    0.74       0.0  T
   2   -189.1106349 -0.344188E-04  0.117E-01    0.74       1.0  T
   3   -189.1101494  0.485521E-03  0.694E-02    0.75       1.0  T
   4   -189.1106637 -0.514307E-03  0.191E-02    0.74       1.0  T
   5   -189.1106757 -0.120371E-04  0.124E-02    0.74       1.0  T
   6   -189.1106873 -0.115836E-04  0.356E-03    0.74       2.9  T
   7   -189.1106884 -0.112281E-05  0.149E-03    0.74       6.9  T
   8   -189.1106886 -0.123046E-06  0.861E-04    0.74      12.0  T
     SCC iter.                  ...        0 min,  0.096 sec
     gradient                   ...        0 min,  0.021 sec
 * total energy  :  -186.1688040 Eh     change       -0.1247768E-02 Eh
   gradient norm :     0.0285446 Eh/α   predicted    -0.1702103E-02 (  36.41%)
   displ. norm   :     0.5513009 α      lambda       -0.2573995E-02
   maximum displ.:     0.1833544 α      in ANC's #20, #14, #11, ...

........................................................................
.............................. CYCLE   12 ..............................
........................................................................
   1   -189.1046952 -0.189105E+03  0.214E-01    0.73       0.0  T
   2   -189.1046116  0.836823E-04  0.120E-01    0.74       1.0  T
   3   -189.1025284  0.208311E-02  0.129E-01    0.73       1.0  T
   4   -189.1048228 -0.229434E-02  0.191E-02    0.74       1.0  T
   5   -189.1048300 -0.725573E-05  0.125E-02    0.74       1.0  T
   6   -189.1048395 -0.949468E-05  0.399E-03    0.74       2.6  T
   7   -189.1048408 -0.123315E-05  0.170E-03    0.74       6.1  T
   8   -189.1048410 -0.193087E-06  0.887E-04    0.74      11.6  T
     SCC iter.                  ...        0 min,  0.096 sec
     gradient                   ...        0 min,  0.021 sec
 * total energy  :  -186.1703445 Eh     change       -0.1540469E-02 Eh
   gradient norm :     0.0256173 Eh/α   predicted    -0.1678165E-02 (   8.94%)
   displ. norm   :     0.4964991 α      lambda       -0.2259448E-02
   maximum displ.:     0.1763425 α      in ANC's #14, #11, #13, ...

........................................................................
.............................. CYCLE   13 ..............................
........................................................................
   1   -189.1066237 -0.189107E+03  0.195E-01    0.73       0.0  T
   2   -189.1066488 -0.250773E-04  0.104E-01    0.73       1.0  T
   3   -189.1060038  0.644978E-03  0.747E-02    0.73       1.0  T
   4   -189.1066889 -0.685033E-03  0.191E-02    0.73       1.0  T
   5   -189.1067006 -0.117293E-04  0.125E-02    0.73       1.0  T
   6   -189.1067128 -0.122258E-04  0.380E-03    0.73       2.7  T
   7   -189.1067138 -0.927314E-06  0.196E-03    0.73       5.3  T
   8   -189.1067140 -0.254548E-06  0.928E-04    0.73      11.1  T
     SCC iter.                  ...        0 min,  0.096 sec
     gradient                   ...        0 min,  0.021 sec
 * total energy  :  -186.1704375 Eh     change       -0.9308415E-04 Eh
   gradient norm :     0.0433056 Eh/α   predicted    -0.1408218E-02 (1412.84%)
   displ. norm   :     0.3109697 α      lambda       -0.2795670E-02
   maximum displ.:     0.1107558 α      in ANC's #14, #11, #13, ...

........................................................................
.............................. CYCLE   14 ..............................
........................................................................
   1   -189.1017440 -0.189102E+03  0.125E-01    0.73       0.0  T
   2   -189.1017660 -0.219862E-04  0.664E-02    0.73       1.0  T
   3   -189.1016848  0.812309E-04  0.295E-02    0.73       1.0  T
   4   -189.1017696 -0.848342E-04  0.120E-02    0.73       1.0  T
   5   -189.1017731 -0.347472E-05  0.853E-03    0.73       1.2  T
   6   -189.1017797 -0.658482E-05  0.276E-03    0.73       3.7  T
   7   -189.1017804 -0.691916E-06  0.105E-03    0.73       9.8  T
   8   -189.1017804 -0.319705E-07  0.619E-04    0.73      16.7  T
     SCC iter.                  ...        0 min,  0.095 sec
     gradient                   ...        0 min,  0.021 sec
 * total energy  :  -186.1721253 Eh     change       -0.1687784E-02 Eh
   gradient norm :     0.0155000 Eh/α   predicted    -0.1533011E-02 (  -9.17%)
   displ. norm   :     0.5172023 α      lambda       -0.1204870E-02
   maximum displ.:     0.1943745 α      in ANC's #14, #11, #13, ...

........................................................................
.............................. CYCLE   15 ..............................
........................................................................
   1   -189.0972698 -0.189097E+03  0.191E-01    0.72       0.0  T
   2   -189.0972938 -0.239872E-04  0.101E-01    0.72       1.0  T
   3   -189.0969644  0.329376E-03  0.560E-02    0.72       1.0  T
   4   -189.0973115 -0.347059E-03  0.162E-02    0.72       1.0  T
   5   -189.0973146 -0.315467E-05  0.107E-02    0.72       1.0  T
   6   -189.0973251 -0.104340E-04  0.305E-03    0.72       3.4  T
   7   -189.0973261 -0.102828E-05  0.122E-03    0.72       8.4  T
   8   -189.0973262 -0.124323E-06  0.638E-04    0.72      16.2  T
     SCC iter.                  ...        0 min,  0.097 sec
     gradient                   ...        0 min,  0.021 sec
 * total energy  :  -186.1729379 Eh     change       -0.8125423E-03 Eh
   gradient norm :     0.0203607 Eh/α   predicted    -0.7635856E-03 (  -6.03%)
   displ. norm   :     0.5991401 α      lambda       -0.1400552E-02
   maximum displ.:     0.2485466 α      in ANC's #13, #14, #11, ...

........................................................................
.............................. CYCLE   16 ..............................
........................................................................
   1   -189.1070682 -0.189107E+03  0.208E-01    0.72       0.0  T
   2   -189.1071020 -0.337828E-04  0.107E-01    0.72       1.0  T
   3   -189.1069164  0.185633E-03  0.426E-02    0.73       1.0  T
   4   -189.1070991 -0.182771E-03  0.190E-02    0.72       1.0  T
   5   -189.1071124 -0.132697E-04  0.117E-02    0.72       1.0  T
   6   -189.1071262 -0.138363E-04  0.262E-03    0.72       3.9  T
   7   -189.1071267 -0.462768E-06  0.131E-03    0.72       7.9  T
   8   -189.1071268 -0.676320E-07  0.795E-04    0.72      13.0  T
     SCC iter.                  ...        0 min,  0.098 sec
     gradient                   ...        0 min,  0.021 sec
 * total energy  :  -186.1738826 Eh     change       -0.9447061E-03 Eh
   gradient norm :     0.0179488 Eh/α   predicted    -0.9516588E-03 (   0.74%)
   displ. norm   :     0.6679351 α      lambda       -0.1318067E-02
   maximum displ.:     0.2584772 α      in ANC's #13, #14, #11, ...

........................................................................
.............................. CYCLE   17 ..............................
........................................................................
   1   -189.1016990 -0.189102E+03  0.242E-01    0.71       0.0  T
   2   -189.1017121 -0.131015E-04  0.127E-01    0.71       1.0  T
   3   -189.1007411  0.970940E-03  0.891E-02    0.71       1.0  T
   4   -189.1017799 -0.103877E-02  0.193E-02    0.71       1.0  T
   5   -189.1017789  0.993640E-06  0.122E-02    0.71       1.0  T
   6   -189.1017918 -0.129036E-04  0.300E-03    0.71       3.4  T
   7   -189.1017926 -0.802927E-06  0.102E-03    0.71      10.1  T
   8   -189.1017926 -0.346508E-07  0.620E-04    0.71      16.6  T
     SCC iter.                  ...        0 min,  0.097 sec
     gradient                   ...        0 min,  0.021 sec
 * total energy  :  -186.1748294 Eh     change       -0.9468526E-03 Eh
   gradient norm :     0.0138153 Eh/α   predicted    -0.9530575E-03 (   0.66%)
   displ. norm   :     0.6066038 α      lambda       -0.1256238E-02
   maximum displ.:     0.2563656 α      in ANC's #13, #11, #14, ...

........................................................................
.............................. CYCLE   18 ..............................
........................................................................
   1   -189.1040822 -0.189104E+03  0.219E-01    0.71       0.0  T
   2   -189.1041270 -0.447795E-04  0.114E-01    0.71       1.0  T
   3   -189.1039762  0.150706E-03  0.429E-02    0.71       1.0  T
   4   -189.1041384 -0.162170E-03  0.167E-02    0.71       1.0  T
   5   -189.1041403 -0.183328E-05  0.108E-02    0.71       1.0  T
   6   -189.1041543 -0.140933E-04  0.233E-03    0.71       4.4  T
   7   -189.1041547 -0.372217E-06  0.121E-03    0.71       8.5  T
   8   -189.1041548 -0.438336E-07  0.695E-04    0.71      14.8  T
     SCC iter.                  ...        0 min,  0.096 sec
     gradient                   ...        0 min,  0.021 sec
 * total energy  :  -186.1755968 Eh     change       -0.7673545E-03 Eh
   gradient norm :     0.0190758 Eh/α   predicted    -0.8592480E-03 (  11.98%)
   displ. norm   :     0.6228216 α      lambda       -0.1118252E-02
   maximum displ.:     0.2690099 α      in ANC's #13, #11, #14, ...

........................................................................
.............................. CYCLE   19 ..............................
........................................................................
   1   -189.1095281 -0.189110E+03  0.221E-01    0.70       0.0  T
   2   -189.1095648 -0.366812E-04  0.114E-01    0.71       1.0  T
   3   -189.1092713  0.293451E-03  0.535E-02    0.71       1.0  T
   4   -189.1095762 -0.304897E-03  0.192E-02    0.71       1.0  T
   5   -189.1095849 -0.869236E-05  0.117E-02    0.71       1.0  T
   6   -189.1095963 -0.114199E-04  0.290E-03    0.71       3.6  T
   7   -189.1095971 -0.750451E-06  0.121E-03    0.71       8.5  T
   8   -189.1095971 -0.388388E-07  0.830E-04    0.71      12.4  T
     SCC iter.                  ...        0 min,  0.096 sec
     gradient                   ...        0 min,  0.021 sec
 * total energy  :  -186.1764057 Eh     change       -0.8089221E-03 Eh
   gradient norm :     0.0159609 Eh/α   predicted    -0.7760485E-03 (  -4.06%)
   displ. norm   :     0.6682397 α      lambda       -0.1255729E-02
   maximum displ.:     0.2853045 α      in ANC's #13, #11, #14, ...

........................................................................
.............................. CYCLE   20 ..............................
........................................................................
   1   -189.1001813 -0.189100E+03  0.256E-01    0.71       0.0  T
   2   -189.1002279 -0.465638E-04  0.133E-01    0.72       1.0  T
   3   -189.0996095  0.618447E-03  0.726E-02    0.72       1.0  T
   4   -189.1002635 -0.654019E-03  0.214E-02    0.72       1.0  T
   5   -189.1002725 -0.906979E-05  0.143E-02    0.73       1.0  T
   6   -189.1002913 -0.187143E-04  0.324E-03    0.72       3.2  T
   7   -189.1002920 -0.761427E-06  0.138E-03    0.72       7.5  T
   8   -189.1002920  0.102370E-07  0.104E-03    0.72       9.9  T
     SCC iter.                  ...        0 min,  0.094 sec
     gradient                   ...        0 min,  0.021 sec
 * total energy  :  -186.1770525 Eh     change       -0.6468332E-03 Eh
   gradient norm :     0.0271621 Eh/α   predicted    -0.9082360E-03 (  40.41%)
   displ. norm   :     0.5079736 α      lambda       -0.1289371E-02
   maximum displ.:     0.2292492 α      in ANC's #13, #12, #11, ...
 * RMSD in coord.:     0.8421668 α      energy gain  -0.7734082E-01 Eh

generating ANC from model Hessian ...
Using Lindh-Hessian (1995)
 Shifting diagonal of input Hessian by   4.985185574913368E-003
 Lowest  eigenvalues of input Hessian
   -0.000000   -0.000000    0.000000    0.000000    0.000000    0.000000
    0.005000    0.005017    0.005031    0.005035    0.005083    0.005115
    0.005249    0.005346    0.005410    0.005491    0.005725    0.005922
 Highest eigenvalues
    2.280300    2.281034    2.595656    2.603338    2.654233    2.655640
 

........................................................................
.............................. CYCLE   21 ..............................
........................................................................
   1   -189.1106766 -0.189111E+03  0.195E-01    0.72       0.0  T
   2   -189.1107081 -0.314822E-04  0.101E-01    0.73       1.0  T
   3   -189.1104089  0.299183E-03  0.527E-02    0.73       1.0  T
   4   -189.1107286 -0.319714E-03  0.163E-02    0.73       1.0  T
   5   -189.1107318 -0.317552E-05  0.108E-02    0.73       1.0  T
   6   -189.1107413 -0.945061E-05  0.318E-03    0.73       3.2  T
   7   -189.1107423 -0.997267E-06  0.128E-03    0.73       8.0  T
   8   -189.1107423 -0.244767E-07  0.889E-04    0.73      11.6  T
   9   -189.1107423 -0.351661E-07  0.507E-04    0.73      20.3  T
     SCC iter.                  ...        0 min,  0.104 sec
     gradient                   ...        0 min,  0.023 sec
 * total energy  :  -186.1778241 Eh     change       -0.7715624E-03 Eh
   gradient norm :     0.0188785 Eh/α   predicted     0.0000000E+00 (-100.00%)
   displ. norm   :     0.2532793 α      lambda       -0.9136396E-03
   maximum displ.:     0.1141240 α      in ANC's #11, #10, #7, ...

........................................................................
.............................. CYCLE   22 ..............................
........................................................................
   1   -189.1084340 -0.189108E+03  0.120E-01    0.73       0.0  T
   2   -189.1084511 -0.170995E-04  0.620E-02    0.74       1.0  T
   3   -189.1083733  0.777609E-04  0.289E-02    0.73       1.0  T
   4   -189.1084572 -0.838573E-04  0.101E-02    0.74       1.0  T
   5   -189.1084610 -0.379712E-05  0.624E-03    0.74       1.7  T
   6   -189.1084635 -0.251048E-05  0.237E-03    0.74       4.3  T
   7   -189.1084640 -0.528712E-06  0.846E-04    0.74      12.2  T
     SCC iter.                  ...        0 min,  0.084 sec
     gradient                   ...        0 min,  0.021 sec
 * total energy  :  -186.1784760 Eh     change       -0.6518957E-03 Eh
   gradient norm :     0.0076887 Eh/α   predicted    -0.4861251E-03 ( -25.43%)
   displ. norm   :     0.3351502 α      lambda       -0.9598053E-03
   maximum displ.:     0.1279984 α      in ANC's #11, #7, #30, ...

........................................................................
.............................. CYCLE   23 ..............................
........................................................................
   1   -189.1079723 -0.189108E+03  0.178E-01    0.73       0.0  T
   2   -189.1080059 -0.336679E-04  0.921E-02    0.75       1.0  T
   3   -189.1078029  0.203027E-03  0.454E-02    0.74       1.0  T
   4   -189.1080197 -0.216786E-03  0.152E-02    0.74       1.0  T
   5   -189.1080259 -0.624410E-05  0.105E-02    0.75       1.0  T
   6   -189.1080356 -0.961229E-05  0.333E-03    0.74       3.1  T
   7   -189.1080365 -0.982520E-06  0.103E-03    0.75      10.0  T
   8   -189.1080366 -0.260416E-07  0.630E-04    0.75      16.4  T
     SCC iter.                  ...        0 min,  0.094 sec
     gradient                   ...        0 min,  0.022 sec
 * total energy  :  -186.1788101 Eh     change       -0.3341368E-03 Eh
   gradient norm :     0.0153203 Eh/α   predicted    -0.5338218E-03 (  59.76%)
   displ. norm   :     0.3005752 α      lambda       -0.8578228E-03
   maximum displ.:     0.1397671 α      in ANC's #11, #10, #7, ...

........................................................................
.............................. CYCLE   24 ..............................
........................................................................
   1   -189.1093621 -0.189109E+03  0.149E-01    0.74       0.0  T
   2   -189.1093837 -0.215136E-04  0.788E-02    0.75       1.0  T
   3   -189.1092142  0.169466E-03  0.389E-02    0.74       1.0  T
   4   -189.1093949 -0.180670E-03  0.122E-02    0.75       1.0  T
   5   -189.1094009 -0.598455E-05  0.767E-03    0.75       1.3  T
   6   -189.1094050 -0.412120E-05  0.292E-03    0.75       3.5  T
   7   -189.1094058 -0.836826E-06  0.812E-04    0.75      12.7  T
   8   -189.1094058 -0.159079E-07  0.498E-04    0.75      20.7  T
     SCC iter.                  ...        0 min,  0.094 sec
     gradient                   ...        0 min,  0.021 sec
 * total energy  :  -186.1792637 Eh     change       -0.4536096E-03 Eh
   gradient norm :     0.0140653 Eh/α   predicted    -0.4676777E-03 (   3.10%)
   displ. norm   :     0.4657892 α      lambda       -0.1482152E-02
   maximum displ.:     0.1999273 α      in ANC's #11, #7, #10, ...

........................................................................
.............................. CYCLE   25 ..............................
........................................................................
   1   -189.1091323 -0.189109E+03  0.223E-01    0.75       0.0  T
   2   -189.1091821 -0.498642E-04  0.119E-01    0.76       1.0  T
   3   -189.1088482  0.333936E-03  0.564E-02    0.75       1.0  T
   4   -189.1092138 -0.365645E-03  0.163E-02    0.76       1.0  T
   5   -189.1092196 -0.577155E-05  0.115E-02    0.76       1.0  T
   6   -189.1092293 -0.965384E-05  0.447E-03    0.76       2.3  T
   7   -189.1092314 -0.208310E-05  0.127E-03    0.76       8.1  T
   8   -189.1092314 -0.391575E-07  0.806E-04    0.76      12.8  T
     SCC iter.                  ...        0 min,  0.093 sec
     gradient                   ...        0 min,  0.021 sec
 * total energy  :  -186.1795860 Eh     change       -0.3222046E-03 Eh
   gradient norm :     0.0163561 Eh/α   predicted    -0.9018648E-03 ( 179.90%)
   displ. norm   :     0.2559433 α      lambda       -0.1070849E-02
   maximum displ.:     0.1169027 α      in ANC's #11, #7, #10, ...

........................................................................
.............................. CYCLE   26 ..............................
........................................................................
   1   -189.1099661 -0.189110E+03  0.116E-01    0.76       0.0  T
   2   -189.1099796 -0.134674E-04  0.610E-02    0.76       1.0  T
   3   -189.1099169  0.626692E-04  0.261E-02    0.76       1.0  T
   4   -189.1099867 -0.697762E-04  0.828E-03    0.76       1.2  T
   5   -189.1099853  0.138100E-05  0.681E-03    0.76       1.5  T
   6   -189.1099903 -0.496396E-05  0.198E-03    0.76       5.2  T
   7   -189.1099907 -0.399094E-06  0.606E-04    0.76      17.0  T
   8   -189.1099907 -0.613159E-08  0.357E-04    0.76      28.9  T
     SCC iter.                  ...        0 min,  0.093 sec
     gradient                   ...        0 min,  0.021 sec
 * total energy  :  -186.1803820 Eh     change       -0.7960960E-03 Eh
   gradient norm :     0.0079533 Eh/α   predicted    -0.5704998E-03 ( -28.34%)
   displ. norm   :     0.5401583 α      lambda       -0.9686401E-03
   maximum displ.:     0.2551157 α      in ANC's #11, #7, #10, ...

........................................................................
.............................. CYCLE   27 ..............................
........................................................................
   1   -189.1078975 -0.189108E+03  0.190E-01    0.76       0.0  T
   2   -189.1079320 -0.344897E-04  0.976E-02    0.77       1.0  T
   3   -189.1077184  0.213610E-03  0.474E-02    0.76       1.0  T
   4   -189.1079514 -0.233009E-03  0.159E-02    0.77       1.0  T
   5   -189.1079499  0.146980E-05  0.124E-02    0.77       1.0  T
   6   -189.1079639 -0.140225E-04  0.411E-03    0.77       2.5  T
   7   -189.1079657 -0.178396E-05  0.987E-04    0.77      10.5  T
   8   -189.1079657 -0.301780E-07  0.605E-04    0.77      17.1  T
     SCC iter.                  ...        0 min,  0.102 sec
     gradient                   ...        0 min,  0.021 sec
 * total energy  :  -186.1811520 Eh     change       -0.7699762E-03 Eh
   gradient norm :     0.0067948 Eh/α   predicted    -0.6256305E-03 ( -18.75%)
   displ. norm   :     0.6742370 α      lambda       -0.8927789E-03
   maximum displ.:     0.3169967 α      in ANC's #11, #7, #10, ...

........................................................................
.............................. CYCLE   28 ..............................
........................................................................
   1   -189.1082354 -0.189108E+03  0.218E-01    0.76       0.0  T
   2   -189.1082825 -0.471715E-04  0.112E-01    0.77       1.0  T
   3   -189.1080642  0.218320E-03  0.500E-02    0.76       1.0  T
   4   -189.1083099 -0.245643E-03  0.171E-02    0.77       1.0  T
   5   -189.1083108 -0.969908E-06  0.110E-02    0.77       1.0  T
   6   -189.1083195 -0.870793E-05  0.431E-03    0.77       2.4  T
   7   -189.1083217 -0.212852E-05  0.131E-03    0.77       7.9  T
   8   -189.1083218 -0.844599E-07  0.753E-04    0.77      13.7  T
     SCC iter.                  ...        0 min,  0.097 sec
     gradient                   ...        0 min,  0.021 sec
 * total energy  :  -186.1819159 Eh     change       -0.7638671E-03 Eh
   gradient norm :     0.0088599 Eh/α   predicted    -0.6493187E-03 ( -15.00%)
   displ. norm   :     0.7169971 α      lambda       -0.9592119E-03
   maximum displ.:     0.3342306 α      in ANC's #11, #7, #10, ...

........................................................................
.............................. CYCLE   29 ..............................
........................................................................
   1   -189.1102188 -0.189110E+03  0.214E-01    0.76       0.0  T
   2   -189.1102610 -0.421639E-04  0.111E-01    0.77       1.0  T
   3   -189.1100647  0.196291E-03  0.478E-02    0.76       1.0  T
   4   -189.1102855 -0.220790E-03  0.163E-02    0.77       1.0  T
   5   -189.1102887 -0.326278E-05  0.924E-03    0.76       1.1  T
   6   -189.1102950 -0.626357E-05  0.240E-03    0.76       4.3  T
   7   -189.1102954 -0.360569E-06  0.143E-03    0.76       7.2  T
   8   -189.1102955 -0.107111E-06  0.839E-04    0.76      12.3  T
     SCC iter.                  ...        0 min,  0.096 sec
     gradient                   ...        0 min,  0.021 sec
 * total energy  :  -186.1827094 Eh     change       -0.7935590E-03 Eh
   gradient norm :     0.0106640 Eh/α   predicted    -0.7261664E-03 (  -8.49%)
   displ. norm   :     0.7147043 α      lambda       -0.1063429E-02
   maximum displ.:     0.3245643 α      in ANC's #11, #7, #10, ...

........................................................................
.............................. CYCLE   30 ..............................
........................................................................
   1   -189.1144065 -0.189114E+03  0.198E-01    0.76       0.0  T
   2   -189.1144414 -0.349458E-04  0.103E-01    0.76       1.0  T
   3   -189.1143204  0.121078E-03  0.379E-02    0.76       1.0  T
   4   -189.1144536 -0.133237E-03  0.154E-02    0.76       1.0  T
   5   -189.1144563 -0.272927E-05  0.922E-03    0.76       1.1  T
   6   -189.1144641 -0.777518E-05  0.287E-03    0.76       3.6  T
   7   -189.1144650 -0.850760E-06  0.140E-03    0.76       7.4  T
   8   -189.1144651 -0.959328E-07  0.866E-04    0.76      11.9  T
     SCC iter.                  ...        0 min,  0.094 sec
     gradient                   ...        0 min,  0.021 sec
 * total energy  :  -186.1835221 Eh     change       -0.8126182E-03 Eh
   gradient norm :     0.0097053 Eh/α   predicted    -0.8033166E-03 (  -1.14%)
   displ. norm   :     0.6989205 α      lambda       -0.9467972E-03
   maximum displ.:     0.3141529 α      in ANC's #7, #11, #3, ...

........................................................................
.............................. CYCLE   31 ..............................
........................................................................
   1   -189.1112673 -0.189111E+03  0.199E-01    0.75       0.0  T
   2   -189.1113037 -0.363751E-04  0.103E-01    0.76       1.0  T
   3   -189.1111858  0.117842E-03  0.376E-02    0.75       1.0  T
   4   -189.1113165 -0.130698E-03  0.148E-02    0.76       1.0  T
   5   -189.1113192 -0.269390E-05  0.871E-03    0.76       1.2  T
   6   -189.1113264 -0.718940E-05  0.271E-03    0.76       3.8  T
   7   -189.1113272 -0.762617E-06  0.128E-03    0.76       8.0  T
   8   -189.1113272 -0.609546E-07  0.791E-04    0.76      13.0  T
     SCC iter.                  ...        0 min,  0.096 sec
     gradient                   ...        0 min,  0.021 sec
 * total energy  :  -186.1842318 Eh     change       -0.7097617E-03 Eh
   gradient norm :     0.0114021 Eh/α   predicted    -0.7046522E-03 (  -0.72%)
   displ. norm   :     0.6786147 α      lambda       -0.8374806E-03
   maximum displ.:     0.3064077 α      in ANC's #7, #11, #3, ...

........................................................................
.............................. CYCLE   32 ..............................
........................................................................
   1   -189.1114462 -0.189111E+03  0.180E-01    0.75       0.0  T
   2   -189.1114708 -0.245411E-04  0.936E-02    0.75       1.0  T
   3   -189.1113419  0.128898E-03  0.352E-02    0.75       1.0  T
   4   -189.1114705 -0.128637E-03  0.160E-02    0.75       1.0  T
   5   -189.1114787 -0.819104E-05  0.971E-03    0.75       1.1  T
   6   -189.1114883 -0.963066E-05  0.211E-03    0.75       4.9  T
   7   -189.1114887 -0.336345E-06  0.105E-03    0.75       9.8  T
   8   -189.1114887 -0.858955E-08  0.692E-04    0.75      14.9  T
     SCC iter.                  ...        0 min,  0.097 sec
     gradient                   ...        0 min,  0.021 sec
 * total energy  :  -186.1848939 Eh     change       -0.6620799E-03 Eh
   gradient norm :     0.0080972 Eh/α   predicted    -0.6115824E-03 (  -7.63%)
   displ. norm   :     0.6837502 α      lambda       -0.7466151E-03
   maximum displ.:     0.3101188 α      in ANC's #7, #3, #11, ...

........................................................................
.............................. CYCLE   33 ..............................
........................................................................
   1   -189.1133359 -0.189113E+03  0.168E-01    0.75       0.0  T
   2   -189.1133562 -0.203249E-04  0.877E-02    0.74       1.0  T
   3   -189.1132567  0.995038E-04  0.334E-02    0.75       1.0  T
   4   -189.1133530 -0.963358E-04  0.157E-02    0.74       1.0  T
   5   -189.1133604 -0.739866E-05  0.934E-03    0.75       1.1  T
   6   -189.1133698 -0.939201E-05  0.173E-03    0.75       5.9  T
   7   -189.1133700 -0.179956E-06  0.100E-03    0.75      10.3  T
   8   -189.1133700 -0.186208E-07  0.661E-04    0.75      15.6  T
     SCC iter.                  ...        0 min,  0.095 sec
     gradient                   ...        0 min,  0.021 sec
 * total energy  :  -186.1855193 Eh     change       -0.6254250E-03 Eh
   gradient norm :     0.0072008 Eh/α   predicted    -0.5478397E-03 ( -12.41%)
   displ. norm   :     0.7153375 α      lambda       -0.7092565E-03
   maximum displ.:     0.3234670 α      in ANC's #7, #3, #10, ...

........................................................................
.............................. CYCLE   34 ..............................
........................................................................
   1   -189.1089698 -0.189109E+03  0.190E-01    0.74       0.0  T
   2   -189.1089968 -0.270200E-04  0.972E-02    0.74       1.0  T
   3   -189.1087816  0.215217E-03  0.425E-02    0.74       1.0  T
   4   -189.1089998 -0.218195E-03  0.174E-02    0.74       1.0  T
   5   -189.1090114 -0.116411E-04  0.960E-03    0.74       1.1  T
   6   -189.1090203 -0.886959E-05  0.236E-03    0.74       4.4  T
   7   -189.1090207 -0.406498E-06  0.122E-03    0.74       8.4  T
   8   -189.1090208 -0.669003E-07  0.750E-04    0.74      13.8  T
     SCC iter.                  ...        0 min,  0.096 sec
     gradient                   ...        0 min,  0.021 sec
 * total energy  :  -186.1860802 Eh     change       -0.5609135E-03 Eh
   gradient norm :     0.0072348 Eh/α   predicted    -0.5360985E-03 (  -4.42%)
   displ. norm   :     0.6528295 α      lambda       -0.6291347E-03
   maximum displ.:     0.3112780 α      in ANC's #3, #7, #10, ...

........................................................................
.............................. CYCLE   35 ..............................
........................................................................
   1   -189.1147537 -0.189115E+03  0.178E-01    0.74       0.0  T
   2   -189.1147721 -0.184120E-04  0.929E-02    0.73       1.0  T
   3   -189.1144579  0.314156E-03  0.553E-02    0.74       1.0  T
   4   -189.1147857 -0.327724E-03  0.173E-02    0.73       1.0  T
   5   -189.1147949 -0.921264E-05  0.111E-02    0.73       1.0  T
   6   -189.1148053 -0.104218E-04  0.298E-03    0.73       3.5  T
   7   -189.1148061 -0.764637E-06  0.132E-03    0.73       7.8  T
   8   -189.1148062 -0.103511E-06  0.694E-04    0.73      14.9  T
     SCC iter.                  ...        0 min,  0.096 sec
     gradient                   ...        0 min,  0.021 sec
 * total energy  :  -186.1865128 Eh     change       -0.4325864E-03 Eh
   gradient norm :     0.0087353 Eh/α   predicted    -0.4486328E-03 (   3.71%)
   displ. norm   :     0.6984990 α      lambda       -0.5701800E-03
   maximum displ.:     0.3148161 α      in ANC's #3, #7, #10, ...

........................................................................
.............................. CYCLE   36 ..............................
........................................................................
   1   -189.1063685 -0.189106E+03  0.183E-01    0.72       0.0  T
   2   -189.1063958 -0.273596E-04  0.946E-02    0.73       1.0  T
   3   -189.1062314  0.164448E-03  0.390E-02    0.72       1.0  T
   4   -189.1064059 -0.174548E-03  0.147E-02    0.73       1.0  T
   5   -189.1064045  0.140201E-05  0.110E-02    0.73       1.0  T
   6   -189.1064176 -0.130708E-04  0.293E-03    0.73       3.5  T
   7   -189.1064184 -0.788235E-06  0.110E-03    0.73       9.4  T
   8   -189.1064185 -0.518113E-07  0.649E-04    0.73      15.9  T
     SCC iter.                  ...        0 min,  0.096 sec
     gradient                   ...        0 min,  0.021 sec
 * total energy  :  -186.1869138 Eh     change       -0.4009441E-03 Eh
   gradient norm :     0.0117455 Eh/α   predicted    -0.4241898E-03 (   5.80%)
   displ. norm   :     0.5446994 α      lambda       -0.5348113E-03
   maximum displ.:     0.2664126 α      in ANC's #3, #7, #10, ...

........................................................................
.............................. CYCLE   37 ..............................
........................................................................
   1   -189.1079291 -0.189108E+03  0.153E-01    0.72       0.0  T
   2   -189.1079494 -0.202671E-04  0.774E-02    0.72       1.0  T
   3   -189.1078793  0.700695E-04  0.275E-02    0.72       1.0  T
   4   -189.1079534 -0.740780E-04  0.122E-02    0.72       1.0  T
   5   -189.1079576 -0.419927E-05  0.646E-03    0.72       1.6  T
   6   -189.1079614 -0.388413E-05  0.159E-03    0.72       6.5  T
   7   -189.1079617 -0.272032E-06  0.709E-04    0.72      14.5  T
   8   -189.1079617 -0.291596E-07  0.414E-04    0.72      24.9  T
     SCC iter.                  ...        0 min,  0.098 sec
     gradient                   ...        0 min,  0.021 sec
 * total energy  :  -186.1873206 Eh     change       -0.4068139E-03 Eh
   gradient norm :     0.0096579 Eh/α   predicted    -0.3467440E-03 ( -14.77%)
   displ. norm   :     0.5966903 α      lambda       -0.5929685E-03
   maximum displ.:     0.3145339 α      in ANC's #3, #7, #5, ...

........................................................................
.............................. CYCLE   38 ..............................
........................................................................
   1   -189.1141351 -0.189114E+03  0.154E-01    0.72       0.0  T
   2   -189.1141542 -0.191766E-04  0.800E-02    0.72       1.0  T
   3   -189.1141237  0.305717E-04  0.228E-02    0.72       1.0  T
   4   -189.1141575 -0.338694E-04  0.110E-02    0.72       1.0  T
   5   -189.1141595 -0.195903E-05  0.550E-03    0.72       1.9  T
   6   -189.1141631 -0.357110E-05  0.119E-03    0.72       8.7  T
   7   -189.1141632 -0.103035E-06  0.657E-04    0.72      15.7  T
   8   -189.1141632 -0.161994E-07  0.451E-04    0.72      22.9  T
     SCC iter.                  ...        0 min,  0.096 sec
     gradient                   ...        0 min,  0.021 sec
 * total energy  :  -186.1877537 Eh     change       -0.4331004E-03 Eh
   gradient norm :     0.0090468 Eh/α   predicted    -0.4020506E-03 (  -7.17%)
   displ. norm   :     0.6493267 α      lambda       -0.5635351E-03
   maximum displ.:     0.3545748 α      in ANC's #3, #5, #7, ...

........................................................................
.............................. CYCLE   39 ..............................
........................................................................
   1   -189.1155424 -0.189116E+03  0.174E-01    0.72       0.0  T
   2   -189.1155683 -0.258552E-04  0.896E-02    0.72       1.0  T
   3   -189.1155223  0.460283E-04  0.257E-02    0.72       1.0  T
   4   -189.1155677 -0.454640E-04  0.138E-02    0.72       1.0  T
   5   -189.1155709 -0.322349E-05  0.874E-03    0.72       1.2  T
   6   -189.1155798 -0.882945E-05  0.193E-03    0.72       5.3  T
   7   -189.1155801 -0.369964E-06  0.862E-04    0.72      12.0  T
   8   -189.1155802 -0.396784E-07  0.498E-04    0.72      20.7  T
     SCC iter.                  ...        0 min,  0.097 sec
     gradient                   ...        0 min,  0.021 sec
 * total energy  :  -186.1881368 Eh     change       -0.3831183E-03 Eh
   gradient norm :     0.0110192 Eh/α   predicted    -0.4005689E-03 (   4.55%)
   displ. norm   :     0.6661347 α      lambda       -0.4602534E-03
   maximum displ.:     0.3517247 α      in ANC's #3, #7, #5, ...

........................................................................
.............................. CYCLE   40 ..............................
........................................................................
   1   -189.1135715 -0.189114E+03  0.160E-01    0.72       0.0  T
   2   -189.1135942 -0.227422E-04  0.819E-02    0.72       1.0  T
   3   -189.1135574  0.368856E-04  0.244E-02    0.72       1.0  T
   4   -189.1135936 -0.362765E-04  0.132E-02    0.72       1.0  T
   5   -189.1135938 -0.183879E-06  0.903E-03    0.72       1.1  T
   6   -189.1136038 -0.999492E-05  0.179E-03    0.72       5.8  T
   7   -189.1136041 -0.267260E-06  0.856E-04    0.72      12.0  T
   8   -189.1136041 -0.403276E-07  0.531E-04    0.72      19.4  T
     SCC iter.                  ...        0 min,  0.095 sec
     gradient                   ...        0 min,  0.021 sec
 * total energy  :  -186.1885154 Eh     change       -0.3786183E-03 Eh
   gradient norm :     0.0075474 Eh/α   predicted    -0.3322430E-03 ( -12.25%)
   displ. norm   :     0.6255313 α      lambda       -0.4240825E-03
   maximum displ.:     0.3517178 α      in ANC's #3, #5, #7, ...

........................................................................
.............................. CYCLE   41 ..............................
........................................................................
   1   -189.1115861 -0.189112E+03  0.151E-01    0.71       0.0  T
   2   -189.1116030 -0.169180E-04  0.778E-02    0.72       1.0  T
   3   -189.1114921  0.110951E-03  0.336E-02    0.71       1.0  T
   4   -189.1116045 -0.112462E-03  0.132E-02    0.72       1.0  T
   5   -189.1116097 -0.514716E-05  0.800E-03    0.71       1.3  T
   6   -189.1116160 -0.630736E-05  0.142E-03    0.71       7.3  T
   7   -189.1116161 -0.140812E-06  0.808E-04    0.72      12.8  T
   8   -189.1116162 -0.325459E-07  0.471E-04    0.71      21.9  T
     SCC iter.                  ...        0 min,  0.096 sec
     gradient                   ...        0 min,  0.021 sec
 * total energy  :  -186.1888585 Eh     change       -0.3430569E-03 Eh
   gradient norm :     0.0076913 Eh/α   predicted    -0.2950144E-03 ( -14.00%)
   displ. norm   :     0.6303472 α      lambda       -0.4235405E-03
   maximum displ.:     0.3699673 α      in ANC's #3, #5, #10, ...

........................................................................
.............................. CYCLE   42 ..............................
........................................................................
   1   -189.1164096 -0.189116E+03  0.145E-01    0.72       0.0  T
   2   -189.1164210 -0.113955E-04  0.750E-02    0.72       1.0  T
   3   -189.1162514  0.169645E-03  0.383E-02    0.71       1.0  T
   4   -189.1164290 -0.177654E-03  0.120E-02    0.72       1.0  T
   5   -189.1164305 -0.142010E-05  0.806E-03    0.71       1.3  T
   6   -189.1164370 -0.652533E-05  0.167E-03    0.72       6.2  T
   7   -189.1164372 -0.179669E-06  0.898E-04    0.72      11.5  T
   8   -189.1164372 -0.404919E-07  0.491E-04    0.72      21.0  T
     SCC iter.                  ...        0 min,  0.097 sec
     gradient                   ...        0 min,  0.021 sec
 * total energy  :  -186.1891887 Eh     change       -0.3302173E-03 Eh
   gradient norm :     0.0110159 Eh/α   predicted    -0.2959162E-03 ( -10.39%)
   displ. norm   :     0.6764361 α      lambda       -0.4164506E-03
   maximum displ.:     0.3995039 α      in ANC's #3, #5, #7, ...
 * RMSD in coord.:     1.1901383 α      energy gain  -0.1213616E-01 Eh

generating ANC from model Hessian ...
Using Lindh-Hessian (1995)
 Shifting diagonal of input Hessian by   4.990555988117635E-003
 Lowest  eigenvalues of input Hessian
   -0.000000   -0.000000    0.000000    0.000000    0.000000    0.000000
    0.005000    0.005019    0.005042    0.005047    0.005113    0.005158
    0.005305    0.005346    0.005442    0.005528    0.005761    0.005892
 Highest eigenvalues
    2.269308    2.279248    2.586185    2.599921    2.646534    2.646738
 

........................................................................
.............................. CYCLE   43 ..............................
........................................................................
   1   -189.1131241 -0.189113E+03  0.158E-01    0.71       0.0  T
   2   -189.1131391 -0.150154E-04  0.812E-02    0.72       1.0  T
   3   -189.1129494  0.189736E-03  0.418E-02    0.71       1.0  T
   4   -189.1131481 -0.198688E-03  0.132E-02    0.72       1.0  T
   5   -189.1131526 -0.456466E-05  0.752E-03    0.72       1.4  T
   6   -189.1131576 -0.494113E-05  0.155E-03    0.72       6.6  T
   7   -189.1131578 -0.162882E-06  0.838E-04    0.72      12.3  T
   8   -189.1131578 -0.174856E-07  0.497E-04    0.72      20.7  T
     SCC iter.                  ...        0 min,  0.095 sec
     gradient                   ...        0 min,  0.023 sec
 * total energy  :  -186.1895355 Eh     change       -0.3467771E-03 Eh
   gradient norm :     0.0072090 Eh/α   predicted     0.0000000E+00 (-100.00%)
   displ. norm   :     0.1440249 α      lambda       -0.1881005E-03
   maximum displ.:     0.0904543 α      in ANC's #3, #11, #4, ...

........................................................................
.............................. CYCLE   44 ..............................
........................................................................
   1   -189.1150028 -0.189115E+03  0.571E-02    0.71       0.0  T
   2   -189.1150060 -0.327306E-05  0.308E-02    0.72       1.0  T
   3   -189.1149874  0.185849E-04  0.143E-02    0.71       1.0  T
   4   -189.1150081 -0.206155E-04  0.365E-03    0.72       2.8  T
   5   -189.1150084 -0.340580E-06  0.256E-03    0.72       4.0  T
   6   -189.1150089 -0.482045E-06  0.886E-04    0.72      11.6  T
     SCC iter.                  ...        0 min,  0.074 sec
     gradient                   ...        0 min,  0.021 sec
 * total energy  :  -186.1896582 Eh     change       -0.1227597E-03 Eh
   gradient norm :     0.0039466 Eh/α   predicted    -0.9604051E-04 ( -21.77%)
   displ. norm   :     0.1510539 α      lambda       -0.1987735E-03
   maximum displ.:     0.0756704 α      in ANC's #3, #12, #4, ...

........................................................................
.............................. CYCLE   45 ..............................
........................................................................
   1   -189.1175288 -0.189118E+03  0.718E-02    0.71       0.0  T
   2   -189.1175342 -0.536004E-05  0.389E-02    0.71       1.0  T
   3   -189.1175205  0.136914E-04  0.125E-02    0.71       1.0  T
   4   -189.1175365 -0.160204E-04  0.419E-03    0.71       2.5  T
   5   -189.1175369 -0.386904E-06  0.288E-03    0.71       3.6  T
   6   -189.1175375 -0.604438E-06  0.104E-03    0.71       9.9  T
   7   -189.1175376 -0.928217E-07  0.487E-04    0.71      21.2  T
   8   -189.1175376 -0.111280E-07  0.285E-04    0.71      36.2  T
     SCC iter.                  ...        0 min,  0.096 sec
     gradient                   ...        0 min,  0.024 sec
 * total energy  :  -186.1896940 Eh     change       -0.3575440E-04 Eh
   gradient norm :     0.0080197 Eh/α   predicted    -0.1016542E-03 ( 184.31%)
   displ. norm   :     0.1769900 α      lambda       -0.2875446E-03
   maximum displ.:     0.0939647 α      in ANC's #3, #11, #4, ...

........................................................................
.............................. CYCLE   46 ..............................
........................................................................
   1   -189.1185310 -0.189119E+03  0.852E-02    0.71       0.0  T
   2   -189.1185374 -0.630728E-05  0.466E-02    0.71       1.0  T
   3   -189.1184812  0.562037E-04  0.233E-02    0.71       1.0  T
   4   -189.1185424 -0.612356E-04  0.511E-03    0.71       2.0  T
   5   -189.1185433 -0.906774E-06  0.346E-03    0.71       3.0  T
   6   -189.1185443 -0.100459E-05  0.132E-03    0.71       7.8  T
   7   -189.1185445 -0.166179E-06  0.514E-04    0.71      20.1  T
     SCC iter.                  ...        0 min,  0.084 sec
     gradient                   ...        0 min,  0.021 sec
 * total energy  :  -186.1897880 Eh     change       -0.9396095E-04 Eh
   gradient norm :     0.0074115 Eh/α   predicted    -0.1482798E-03 (  57.81%)
   displ. norm   :     0.1073923 α      lambda       -0.2133443E-03
   maximum displ.:     0.0598910 α      in ANC's #3, #4, #11, ...

........................................................................
.............................. CYCLE   47 ..............................
........................................................................
   1   -189.1166727 -0.189117E+03  0.451E-02    0.71       0.0  T
   2   -189.1166745 -0.179390E-05  0.247E-02    0.71       1.0  T
   3   -189.1166559  0.185973E-04  0.139E-02    0.71       1.0  T
   4   -189.1166761 -0.202261E-04  0.303E-03    0.71       3.4  T
   5   -189.1166765 -0.414820E-06  0.196E-03    0.71       5.3  T
   6   -189.1166768 -0.256360E-06  0.748E-04    0.71      13.8  T
     SCC iter.                  ...        0 min,  0.074 sec
     gradient                   ...        0 min,  0.021 sec
 * total energy  :  -186.1899173 Eh     change       -0.1293673E-03 Eh
   gradient norm :     0.0046258 Eh/α   predicted    -0.1079024E-03 ( -16.59%)
   displ. norm   :     0.1994830 α      lambda       -0.1632643E-03
   maximum displ.:     0.1169193 α      in ANC's #3, #4, #11, ...

........................................................................
.............................. CYCLE   48 ..............................
........................................................................
   1   -189.1144761 -0.189114E+03  0.625E-02    0.71       0.0  T
   2   -189.1144794 -0.333989E-05  0.339E-02    0.71       1.0  T
   3   -189.1144512  0.281716E-04  0.175E-02    0.71       1.0  T
   4   -189.1144812 -0.299391E-04  0.479E-03    0.71       2.2  T
   5   -189.1144824 -0.118747E-05  0.306E-03    0.71       3.4  T
   6   -189.1144831 -0.729033E-06  0.952E-04    0.71      10.8  T
   7   -189.1144832 -0.796717E-07  0.460E-04    0.71      22.4  T
     SCC iter.                  ...        0 min,  0.084 sec
     gradient                   ...        0 min,  0.021 sec
 * total energy  :  -186.1900201 Eh     change       -0.1028163E-03 Eh
   gradient norm :     0.0045946 Eh/α   predicted    -0.8488260E-04 ( -17.44%)
   displ. norm   :     0.3233315 α      lambda       -0.2115722E-03
   maximum displ.:     0.1895812 α      in ANC's #3, #4, #11, ...

........................................................................
.............................. CYCLE   49 ..............................
........................................................................
   1   -189.1135597 -0.189114E+03  0.744E-02    0.71       0.0  T
   2   -189.1135604 -0.734857E-06  0.399E-02    0.71       1.0  T
   3   -189.1134462  0.114182E-03  0.318E-02    0.71       1.0  T
   4   -189.1135678 -0.121546E-03  0.666E-03    0.71       1.5  T
   5   -189.1135690 -0.119784E-05  0.418E-03    0.71       2.5  T
   6   -189.1135701 -0.116614E-05  0.100E-03    0.71      10.3  T
   7   -189.1135702 -0.410018E-07  0.597E-04    0.71      17.3  T
     SCC iter.                  ...        0 min,  0.086 sec
     gradient                   ...        0 min,  0.021 sec
 * total energy  :  -186.1901811 Eh     change       -0.1609138E-03 Eh
   gradient norm :     0.0045613 Eh/α   predicted    -0.1168473E-03 ( -27.39%)
   displ. norm   :     0.4136449 α      lambda       -0.2345238E-03
   maximum displ.:     0.2444435 α      in ANC's #3, #4, #11, ...

........................................................................
.............................. CYCLE   50 ..............................
........................................................................
   1   -189.1138640 -0.189114E+03  0.913E-02    0.71       0.0  T
   2   -189.1138627  0.128034E-05  0.494E-02    0.71       1.0  T
   3   -189.1136452  0.217508E-03  0.421E-02    0.71       1.0  T
   4   -189.1138779 -0.232673E-03  0.743E-03    0.71       1.4  T
   5   -189.1138786 -0.697642E-06  0.457E-03    0.71       2.3  T
   6   -189.1138800 -0.140462E-05  0.128E-03    0.71       8.0  T
   7   -189.1138800 -0.540923E-07  0.862E-04    0.71      12.0  T
     SCC iter.                  ...        0 min,  0.083 sec
     gradient                   ...        0 min,  0.021 sec
 * total energy  :  -186.1903813 Eh     change       -0.2002703E-03 Eh
   gradient norm :     0.0037384 Eh/α   predicted    -0.1373300E-03 ( -31.43%)
   displ. norm   :     0.4842561 α      lambda       -0.2613384E-03
   maximum displ.:     0.2908358 α      in ANC's #3, #4, #11, ...

........................................................................
.............................. CYCLE   51 ..............................
........................................................................
   1   -189.1152037 -0.189115E+03  0.990E-02    0.72       0.0  T
   2   -189.1152035  0.277702E-06  0.535E-02    0.72       1.0  T
   3   -189.1149604  0.243088E-03  0.441E-02    0.71       1.0  T
   4   -189.1152200 -0.259650E-03  0.874E-03    0.72       1.2  T
   5   -189.1152218 -0.183788E-05  0.551E-03    0.72       1.9  T
   6   -189.1152237 -0.180776E-05  0.181E-03    0.72       5.7  T
   7   -189.1152239 -0.208306E-06  0.103E-03    0.72      10.0  T
   8   -189.1152239 -0.756875E-07  0.505E-04    0.72      20.4  T
   9   -189.1152240 -0.938229E-08  0.289E-04    0.72      35.7  T
     SCC iter.                  ...        0 min,  0.107 sec
     gradient                   ...        0 min,  0.023 sec
 * total energy  :  -186.1905980 Eh     change       -0.2166722E-03 Eh
   gradient norm :     0.0035237 Eh/α   predicted    -0.1613173E-03 ( -25.55%)
   displ. norm   :     0.5004564 α      lambda       -0.2488635E-03
   maximum displ.:     0.3045464 α      in ANC's #3, #4, #1, ...

........................................................................
.............................. CYCLE   52 ..............................
........................................................................
   1   -189.1161995 -0.189116E+03  0.978E-02    0.72       0.0  T
   2   -189.1161966  0.291294E-05  0.529E-02    0.72       1.0  T
   3   -189.1159193  0.277288E-03  0.466E-02    0.72       1.0  T
   4   -189.1162173 -0.297982E-03  0.848E-03    0.72       1.2  T
   5   -189.1162179 -0.560175E-06  0.558E-03    0.72       1.8  T
   6   -189.1162198 -0.194989E-05  0.204E-03    0.72       5.0  T
   7   -189.1162201 -0.306278E-06  0.985E-04    0.72      10.5  T
   8   -189.1162202 -0.607500E-07  0.505E-04    0.72      20.4  T
     SCC iter.                  ...        0 min,  0.098 sec
     gradient                   ...        0 min,  0.023 sec
 * total energy  :  -186.1908112 Eh     change       -0.2131570E-03 Eh
   gradient norm :     0.0031910 Eh/α   predicted    -0.1556018E-03 ( -27.00%)
   displ. norm   :     0.5141260 α      lambda       -0.2446753E-03
   maximum displ.:     0.3171674 α      in ANC's #3, #4, #1, ...

........................................................................
.............................. CYCLE   53 ..............................
........................................................................
   1   -189.1180067 -0.189118E+03  0.935E-02    0.73       0.0  T
   2   -189.1180080 -0.127192E-05  0.499E-02    0.73       1.0  T
   3   -189.1178238  0.184133E-03  0.384E-02    0.72       1.0  T
   4   -189.1180206 -0.196791E-03  0.860E-03    0.73       1.2  T
   5   -189.1180218 -0.116000E-05  0.552E-03    0.72       1.9  T
   6   -189.1180237 -0.191878E-05  0.198E-03    0.73       5.2  T
   7   -189.1180240 -0.292165E-06  0.888E-04    0.72      11.6  T
   8   -189.1180240 -0.394029E-07  0.490E-04    0.73      21.0  T
     SCC iter.                  ...        0 min,  0.096 sec
     gradient                   ...        0 min,  0.023 sec
 * total energy  :  -186.1910332 Eh     change       -0.2220221E-03 Eh
   gradient norm :     0.0038250 Eh/α   predicted    -0.1546752E-03 ( -30.33%)
   displ. norm   :     0.5509088 α      lambda       -0.2650823E-03
   maximum displ.:     0.3444228 α      in ANC's #3, #4, #1, ...

........................................................................
.............................. CYCLE   54 ..............................
........................................................................
   1   -189.1182625 -0.189118E+03  0.986E-02    0.73       0.0  T
   2   -189.1182677 -0.527876E-05  0.519E-02    0.73       1.0  T
   3   -189.1181541  0.113602E-03  0.311E-02    0.73       1.0  T
   4   -189.1182742 -0.120060E-03  0.903E-03    0.73       1.1  T
   5   -189.1182758 -0.165506E-05  0.568E-03    0.73       1.8  T
   6   -189.1182781 -0.227539E-05  0.185E-03    0.73       5.6  T
   7   -189.1182784 -0.258252E-06  0.846E-04    0.73      12.2  T
   8   -189.1182784 -0.275615E-07  0.492E-04    0.73      21.0  T
     SCC iter.                  ...        0 min,  0.096 sec
     gradient                   ...        0 min,  0.023 sec
 * total energy  :  -186.1912759 Eh     change       -0.2427533E-03 Eh
   gradient norm :     0.0033757 Eh/α   predicted    -0.1727682E-03 ( -28.83%)
   displ. norm   :     0.5814471 α      lambda       -0.2758217E-03
   maximum displ.:     0.3687431 α      in ANC's #3, #4, #1, ...

........................................................................
.............................. CYCLE   55 ..............................
........................................................................
   1   -189.1186456 -0.189119E+03  0.102E-01    0.73       0.0  T
   2   -189.1186543 -0.868395E-05  0.532E-02    0.73       1.0  T
   3   -189.1186210  0.332962E-04  0.191E-02    0.73       1.0  T
   4   -189.1186527 -0.316867E-04  0.971E-03    0.73       1.1  T
   5   -189.1186569 -0.421072E-05  0.526E-03    0.73       2.0  T
   6   -189.1186593 -0.239536E-05  0.149E-03    0.73       6.9  T
   7   -189.1186594 -0.148376E-06  0.806E-04    0.73      12.8  T
   8   -189.1186594 -0.190030E-07  0.475E-04    0.73      21.7  T
     SCC iter.                  ...        0 min,  0.095 sec
     gradient                   ...        0 min,  0.023 sec
 * total energy  :  -186.1915284 Eh     change       -0.2525223E-03 Eh
   gradient norm :     0.0030217 Eh/α   predicted    -0.1845361E-03 ( -26.92%)
   displ. norm   :     0.6033088 α      lambda       -0.2765159E-03
   maximum displ.:     0.3874419 α      in ANC's #3, #4, #1, ...

........................................................................
.............................. CYCLE   56 ..............................
........................................................................
   1   -189.1181790 -0.189118E+03  0.105E-01    0.73       0.0  T
   2   -189.1181891 -0.100807E-04  0.549E-02    0.73       1.0  T
   3   -189.1181847  0.443628E-05  0.122E-02    0.73       1.0  T
   4   -189.1181863 -0.162701E-05  0.886E-03    0.73       1.2  T
   5   -189.1181900 -0.375210E-05  0.480E-03    0.73       2.1  T
   6   -189.1181925 -0.246634E-05  0.128E-03    0.73       8.0  T
   7   -189.1181926 -0.897546E-07  0.775E-04    0.73      13.3  T
   8   -189.1181926 -0.100729E-07  0.475E-04    0.73      21.7  T
     SCC iter.                  ...        0 min,  0.098 sec
     gradient                   ...        0 min,  0.023 sec
 * total energy  :  -186.1917834 Eh     change       -0.2549194E-03 Eh
   gradient norm :     0.0027404 Eh/α   predicted    -0.1885823E-03 ( -26.02%)
   displ. norm   :     0.6118490 α      lambda       -0.2759921E-03
   maximum displ.:     0.3960988 α      in ANC's #3, #4, #1, ...

........................................................................
.............................. CYCLE   57 ..............................
........................................................................
   1   -189.1179710 -0.189118E+03  0.107E-01    0.73       0.0  T
   2   -189.1179808 -0.984812E-05  0.558E-02    0.73       1.0  T
   3   -189.1179684  0.124322E-04  0.138E-02    0.73       1.0  T
   4   -189.1179749 -0.651486E-05  0.990E-03    0.73       1.0  T
   5   -189.1179818 -0.690487E-05  0.498E-03    0.73       2.1  T
   6   -189.1179847 -0.293517E-05  0.141E-03    0.73       7.3  T
   7   -189.1179848 -0.113976E-06  0.850E-04    0.73      12.1  T
   8   -189.1179849 -0.195750E-07  0.517E-04    0.73      19.9  T
     SCC iter.                  ...        0 min,  0.096 sec
     gradient                   ...        0 min,  0.023 sec
 * total energy  :  -186.1920405 Eh     change       -0.2570834E-03 Eh
   gradient norm :     0.0027928 Eh/α   predicted    -0.1896592E-03 ( -26.23%)
   displ. norm   :     0.6384105 α      lambda       -0.2902939E-03
   maximum displ.:     0.4163016 α      in ANC's #3, #4, #1, ...

........................................................................
.............................. CYCLE   58 ..............................
........................................................................
   1   -189.1172173 -0.189117E+03  0.114E-01    0.72       0.0  T
   2   -189.1172278 -0.104644E-04  0.595E-02    0.73       1.0  T
   3   -189.1171947  0.330689E-04  0.183E-02    0.72       1.0  T
   4   -189.1172238 -0.291330E-04  0.105E-02    0.73       1.0  T
   5   -189.1172302 -0.641308E-05  0.559E-03    0.73       1.8  T
   6   -189.1172334 -0.312764E-05  0.176E-03    0.73       5.9  T
   7   -189.1172336 -0.236103E-06  0.880E-04    0.73      11.7  T
   8   -189.1172336 -0.166843E-07  0.533E-04    0.73      19.3  T
     SCC iter.                  ...        0 min,  0.096 sec
[...]
       350                          1.1719551              31.8905
      -------------------------------------------------------------
                  HL-Gap            0.0252766 Eh            0.6878 eV
             Fermi-level           -0.3485542 Eh           -9.4846 eV

     #   Z        covCN         q      C6AA      α(0)
     1   6 C      3.023     0.033    27.244     8.562
     2   6 C      2.948     0.006    27.884     8.661
     3   6 C      1.939     0.123    28.061     8.555
     4   7 N      0.911    -0.242    26.310     7.418
     5   6 C      1.939     0.128    27.946     8.537
     6   7 N      0.911    -0.249    26.472     7.441
     7   6 C      3.038     0.002    27.938     8.669
     8   6 C      3.043    -0.023    28.541     8.762
     9   6 C      2.910    -0.020    28.513     8.756
    10   6 C      3.150     0.007    27.588     8.591
    11   6 C      3.010     0.034    27.228     8.559
    12   6 C      2.932    -0.035    28.869     8.812
    13  16 S      2.257    -0.009   141.429    20.016
    14   6 C      2.937    -0.011    28.280     8.721
    15   6 C      3.071    -0.046    29.076     8.841
    16   6 C      2.869     0.219    23.389     7.928
    17   8 O      0.910    -0.377    21.193     6.173
    18   6 C      3.011    -0.032    28.777     8.800
    19   6 C      2.962    -0.018    28.457     8.750
    20   6 C      2.977     0.030    27.320     8.574
    21   6 C      3.194     0.020    27.042     8.479
    22   6 C      3.270    -0.029    27.379     8.438
    23   6 C      2.942     0.138    24.993     8.199
    24   6 C      2.973     0.008    27.848     8.656
    25  16 S      2.304     0.038   139.506    19.879
    26   6 C      3.774    -0.108    22.599     6.774
    27   9 F      0.791    -0.220    11.440     3.995
    28   6 C      3.023     0.021    27.513     8.604
    29  16 S      2.408     0.001   141.029    19.987
    30   6 C      2.991     0.023    27.488     8.600
    31   6 C      2.948    -0.033    28.827     8.806
    32   6 C      3.077     0.000    27.944     8.667
    33   6 C      3.084     0.002    27.891     8.657
    34   6 C      2.889    -0.009    28.244     8.713
    35  16 S      2.096     0.068   138.295    19.793
    36   6 C      3.099     0.005    27.783     8.638
    37   6 C      3.243    -0.008    27.260     8.462
    38   6 C      3.065    -0.042    28.981     8.828
    39   6 C      2.949    -0.016    28.398     8.740
    40  16 S      2.227    -0.019   141.825    20.044
    41   6 C      3.029    -0.005    28.116     8.698
    42   6 C      2.902    -0.024    28.604     8.769
    43   6 C      2.924    -0.042    29.038     8.837
    44   6 C      2.985     0.031    27.312     8.573
    45   6 C      3.199     0.008    27.275     8.511
    46   6 C      3.290    -0.019    26.856     8.320
    47   6 C      2.944     0.144    24.871     8.179
    48   6 C      2.973     0.016    27.650     8.625
    49  16 S      2.256    -0.039   142.656    20.102
    50   6 C      3.773    -0.105    22.543     6.765
    51   9 F      0.786    -0.215    11.395     3.987
    52   6 C      2.971     0.027    27.390     8.584
    53  16 S      2.349    -0.017   141.753    20.039
    54   6 C      2.921    -0.016    28.420     8.742
    55   6 C      3.011    -0.034    28.836     8.809
    56   6 C      3.019     0.034    27.207     8.556
    57   6 C      2.948    -0.004    28.112     8.696
    58   6 C      1.934     0.128    27.957     8.539
    59   7 N      0.911    -0.271    27.016     7.517
    60   6 C      1.941     0.122    28.078     8.557
    61   7 N      0.911    -0.251    26.524     7.449
    62   6 C      3.043     0.002    27.944     8.670
    63   6 C      3.039    -0.025    28.597     8.771
    64   6 C      2.873     0.225    23.284     7.910
    65   8 O      0.856    -0.368    21.047     6.151
    66   6 C      2.909    -0.020    28.504     8.754
    67   6 C      3.149     0.007    27.582     8.591
    68   6 C      3.011     0.036    27.165     8.550
    69   6 C      2.932    -0.035    28.871     8.812
    70  16 S      2.253     0.002   140.987    19.984
    71   6 C      2.938    -0.009    28.248     8.717
    72   6 C      3.068    -0.047    29.097     8.845
    73   1 H      0.926     0.061     2.188     2.313
    74   1 H      0.926     0.061     2.188     2.313
    75   1 H      0.926     0.055     2.255     2.348
    76   1 H      0.926     0.051     2.312     2.378
    77   1 H      0.925     0.099     1.792     2.094
    78   1 H      0.925     0.070     2.086     2.259
    79   1 H      0.925     0.068     2.108     2.270
    80   1 H      0.925     0.065     2.137     2.286
    81   1 H      0.926     0.067     2.114     2.274
    82   1 H      0.926     0.072     2.069     2.249
    83   1 H      0.926     0.045     2.385     2.415
    84   1 H      0.926     0.050     2.315     2.379
    85   1 H      0.925     0.050     2.320     2.382
    86   1 H      0.926     0.057     2.229     2.334
    87   1 H      0.925     0.071     2.078     2.254
    88   1 H      0.925     0.065     2.137     2.286
    89   1 H      0.925     0.065     2.141     2.288
    90   1 H      0.925     0.092     1.861     2.133
    91   1 H      0.926     0.062     2.178     2.308
    92   1 H      0.926     0.068     2.106     2.269
    93   1 H      0.926     0.057     2.229     2.335
    94   1 H      0.926     0.051     2.306     2.375

 Mol. C6AA /au·bohr⁶  :     208754.784027
 Mol. C8AA /au·bohr⁸  :    6347422.704429
 Mol. α(0) /au        :        739.241547


Wiberg/Mayer (AO) data.
largest (>0.10) Wiberg bond orders for each atom
          total WBO             WBO to atom ...
     1  C   3.968        C    2 1.474    C   18 1.140    C    7 1.093
     2  C   3.932        C    1 1.474    C    5 1.101    C    3 1.101
     3  C   3.945        N    4 2.760    C    2 1.101
     4  N   2.964        C    3 2.760
     5  C   3.943        N    6 2.743    C    2 1.101
     6  N   2.966        C    5 2.743
     7  C   3.978        C   12 1.434    C    8 1.239    C    1 1.093
     8  C   3.978        C    9 1.477    C    7 1.239    C   16 1.024
     9  C   3.979        C    8 1.477    C   10 1.315    H   73 0.963
    10  C   3.974        C    9 1.315    C   11 1.271    C   15 1.205
    11  C   3.949        C   12 1.371    C   10 1.271    S   13 1.128
    12  C   3.975        C    7 1.434    C   11 1.371    H   74 0.959
    13  S   2.567        C   14 1.165    C   11 1.128
    14  C   3.939        C   15 1.669    S   13 1.165    H   75 0.969
    15  C   3.979        C   14 1.669    C   10 1.205    H   76 0.962
    16  C   3.920        O   17 1.701    C   18 1.060    C    8 1.024
    17  O   2.056        C   16 1.701
    18  C   3.944        C   19 1.488    C    1 1.140    C   16 1.060
    19  C   3.943        C   18 1.488    C   20 1.293    H   77 0.927
    20  C   3.916        C   21 1.346    C   19 1.293    S   29 1.090
    21  C   3.938        C   20 1.346    C   22 1.228    S   25 1.146
    22  C   3.947        C   28 1.326    C   21 1.228    C   23 1.173
    23  C   3.863        C   24 1.572    C   22 1.173    F   27 0.946
    24  C   3.932        C   23 1.572    S   25 1.117    C   26 1.043
    25  S   2.672        C   21 1.146    C   24 1.117
    26  C   3.988        C   24 1.043    H   78 0.977    H   80 0.965    H   79 0.964
    27  F   1.098        C   23 0.946
    28  C   3.919        C   22 1.326    C   30 1.219    S   29 1.143
    29  S   2.579        C   28 1.143    C   20 1.090
    30  C   3.902        C   31 1.426    C   28 1.219    S   35 1.082
    31  C   3.941        C   30 1.426    C   32 1.371    H   81 0.935
    32  C   3.933        C   31 1.371    C   41 1.276    C   33 1.071
    33  C   3.973        C   34 1.562    C   36 1.178    C   32 1.071
    34  C   3.937        C   33 1.562    S   35 1.211    H   82 0.957
    35  S   2.630        C   34 1.211    C   30 1.082
    36  C   3.907        C   37 1.349    C   33 1.178    S   40 1.153
    37  C   3.971        C   36 1.349    C   38 1.244    C   41 1.149
    38  C   3.979        C   39 1.634    C   37 1.244    H   83 0.958
    39  C   3.925        C   38 1.634    S   40 1.174    H   84 0.970
    40  S   2.609        C   39 1.174    C   36 1.153
    41  C   3.934        C   32 1.276    C   42 1.269    C   37 1.149
    42  C   3.952        C   43 1.546    C   41 1.269    H   85 0.950
    43  C   3.904        C   42 1.546    C   44 1.262    H   86 0.950
    44  C   3.930        C   45 1.352    C   43 1.262    S   53 1.123
    45  C   3.911        C   44 1.352    C   46 1.260    S   49 1.095
    46  C   3.971        C   52 1.292    C   45 1.260    C   47 1.177
    47  C   3.873        C   48 1.569    C   46 1.177    F   51 0.959
    48  C   3.926        C   47 1.569    S   49 1.112    C   50 1.045
    49  S   2.492        C   48 1.112    C   45 1.095
    50  C   3.988        C   48 1.045    H   87 0.976    H   88 0.966    H   89 0.963
    51  F   1.099        C   47 0.959
    52  C   3.903        C   54 1.298    C   46 1.292    S   53 1.101
    53  S   2.566        C   44 1.123    C   52 1.101
    54  C   3.950        C   55 1.502    C   52 1.298    H   90 0.941
    55  C   3.914        C   54 1.502    C   56 1.156    C   64 1.012
    56  C   3.961        C   57 1.446    C   55 1.156    C   62 1.087
    57  C   3.941        C   56 1.446    C   58 1.116    C   60 1.101
    58  C   3.941        N   59 2.737    C   57 1.116
    59  N   2.963        C   58 2.737
    60  C   3.946        N   61 2.756    C   57 1.101
    61  N   2.967        C   60 2.756
    62  C   3.979        C   69 1.437    C   63 1.234    C   56 1.087
    63  C   3.973        C   66 1.474    C   62 1.234    C   64 1.023
    64  C   3.918        O   65 1.768    C   63 1.023    C   55 1.012
    65  O   2.035        C   64 1.768
    66  C   3.981        C   63 1.474    C   67 1.317    H   91 0.963
    67  C   3.973        C   66 1.317    C   68 1.266    C   72 1.207
    68  C   3.951        C   69 1.370    C   67 1.266    S   70 1.135
    69  C   3.972        C   62 1.437    C   68 1.370    H   92 0.950
    70  S   2.586        C   71 1.170    C   68 1.135
    71  C   3.939        C   72 1.665    S   70 1.170    H   93 0.969
    72  C   3.978        C   71 1.665    C   67 1.207    H   94 0.962
    73  H   0.996        C    9 0.963
    74  H   0.995        C   12 0.959
    75  H   0.996        C   14 0.969
    76  H   0.997        C   15 0.962
    77  H   0.988        C   19 0.927
    78  H   0.994        C   26 0.977
    79  H   0.990        C   26 0.964
    80  H   0.991        C   26 0.965
    81  H   0.995        C   31 0.935
    82  H   0.993        C   34 0.957
    83  H   0.998        C   38 0.958
    84  H   0.997        C   39 0.970
    85  H   0.996        C   42 0.950
    86  H   0.996        C   43 0.950
    87  H   0.995        C   50 0.976
    88  H   0.991        C   50 0.966
    89  H   0.990        C   50 0.963
    90  H   0.989        C   54 0.941
    91  H   0.995        C   66 0.963
    92  H   0.994        C   69 0.950
    93  H   0.996        C   71 0.969
    94  H   0.997        C   72 0.962

molecular dipole:
                 x           y           z       tot (Debye)
 q only:        0.502      -0.770      -3.474
   full:        0.299      -0.447      -3.048       7.867
molecular quadrupole (traceless):
                xx          xy          yy          xz          yz          zz
 q only:      -16.408      44.923      33.144      45.656     -92.332     -16.736
  q+dip:      -16.335      48.555      45.978      45.698     -74.484     -29.644
   full:       -7.221      43.553      40.946      41.250     -73.430     -33.726

           -------------------------------------------------
          |                Geometry Summary                 |
           -------------------------------------------------

      molecular mass/u    :     1077.2922000
   center of mass at/Å    :       -5.4216303       5.4915875       0.7593255
  moments of inertia/u·Å² :        0.1929153E+05   0.2980130E+05   0.4467758E+05
rotational constants/cm⁻¹ :        0.8738361E-03   0.5656677E-03   0.3773175E-03

 * 92 selected distances

     #   Z        #   Z                                     value/Å
     1   6 C      2   6 C                                 1.3715135
     3   6 C      4   7 N                                 1.1485811
     5   6 C      6   7 N                                 1.1492362
     7   6 C      8   6 C                                 1.4185618
     8   6 C      9   6 C                                 1.3729715
     9   6 C     10   6 C                                 1.3994322
    10   6 C     11   6 C                                 1.4146516
     7   6 C     12   6 C                                 1.3807683
    11   6 C     12   6 C                                 1.3903515
    11   6 C     13  16 S                                 1.7358546
    13  16 S     14   6 C                                 1.7293507
    10   6 C     15   6 C                                 1.4234553
    14   6 C     15   6 C                                 1.3509861
    16   6 C     17   8 O                                 1.2197830
    18   6 C     19   6 C                                 1.3721760
    19   6 C     20   6 C                                 1.4002404
    20   6 C     21   6 C                                 1.3903886
    21   6 C     22   6 C                                 1.4235434
    22   6 C     23   6 C                                 1.4244372
    23   6 C     24   6 C                                 1.3576662
    21   6 C     25  16 S                                 1.7209727
    24   6 C     25  16 S                                 1.7475383
    24   6 C     26   6 C                                 1.4847426
    23   6 C     27   9 F                                 1.3485964
    22   6 C     28   6 C                                 1.3990352
    20   6 C     29  16 S                                 1.7495418
    28   6 C     29  16 S                                 1.7480073
    28   6 C     30   6 C                                 1.4222644
    30   6 C     31   6 C                                 1.3824271
    31   6 C     32   6 C                                 1.3850983
    33   6 C     34   6 C                                 1.3523845
    34   6 C     35  16 S                                 1.7112133
    33   6 C     36   6 C                                 1.4202126
    36   6 C     37   6 C                                 1.3996254
    37   6 C     38   6 C                                 1.4136521
    38   6 C     39   6 C                                 1.3584848
    36   6 C     40  16 S                                 1.7170712
    39   6 C     40  16 S                                 1.7301997
    32   6 C     41   6 C                                 1.4168928
    37   6 C     41   6 C                                 1.4392577
    41   6 C     42   6 C                                 1.4059050
    42   6 C     43   6 C                                 1.3631552
    43   6 C     44   6 C                                 1.4061884
    44   6 C     45   6 C                                 1.3872956
    45   6 C     46   6 C                                 1.4089327
    46   6 C     47   6 C                                 1.4201862
    47   6 C     48   6 C                                 1.3593395
    45   6 C     49  16 S                                 1.7353408
    48   6 C     49  16 S                                 1.7503706
    48   6 C     50   6 C                                 1.4838333
    47   6 C     51   9 F                                 1.3427372
    46   6 C     52   6 C                                 1.4003646
    44   6 C     53  16 S                                 1.7468885
    52   6 C     53  16 S                                 1.7547169 (max)
    52   6 C     54   6 C                                 1.3994372
    54   6 C     55   6 C                                 1.3691533
    56   6 C     57   6 C                                 1.3761864
    58   6 C     59   7 N                                 1.1499990
    60   6 C     61   7 N                                 1.1488441
    62   6 C     63   6 C                                 1.4193114
    64   6 C     65   8 O                                 1.2110451
    63   6 C     66   6 C                                 1.3734608
    66   6 C     67   6 C                                 1.3994575
    67   6 C     68   6 C                                 1.4159036
    62   6 C     69   6 C                                 1.3791037
    68   6 C     69   6 C                                 1.3904033
    68   6 C     70  16 S                                 1.7339364
    70  16 S     71   6 C                                 1.7295215
    67   6 C     72   6 C                                 1.4227898
    71   6 C     72   6 C                                 1.3513829
     9   6 C     73   1 H                                 1.0789447
    12   6 C     74   1 H                                 1.0775621
    14   6 C     75   1 H                                 1.0726897
    15   6 C     76   1 H                                 1.0751119
    19   6 C     77   1 H                                 1.0842238
    26   6 C     78   1 H                                 1.0873936
    26   6 C     79   1 H                                 1.0892212
    26   6 C     80   1 H                                 1.0893686
    31   6 C     81   1 H                                 1.0817117
    34   6 C     82   1 H                                 1.0787088
    38   6 C     83   1 H                                 1.0743775
    39   6 C     84   1 H                                 1.0726763 (min)
    42   6 C     85   1 H                                 1.0834699
    43   6 C     86   1 H                                 1.0797897
    50   6 C     87   1 H                                 1.0874829
    50   6 C     88   1 H                                 1.0892608
    50   6 C     89   1 H                                 1.0898038
    54   6 C     90   1 H                                 1.0866684
    66   6 C     91   1 H                                 1.0790140
    69   6 C     92   1 H                                 1.0777428
    71   6 C     93   1 H                                 1.0727330
    72   6 C     94   1 H                                 1.0750904

 * 6 distinct bonds (by element types)

   Z      Z             #   av. dist./Å        max./Å        min./Å
   1 H    6 C          22     1.0810475     1.0898038     1.0726763
   6 C    6 C          47     1.3978088     1.4847426     1.3509861
   6 C    7 N           4     1.1491651     1.1499990     1.1485811
   6 C    8 O           2     1.2154141     1.2197830     1.2110451
   6 C    9 F           2     1.3456668     1.3485964     1.3427372
   6 C   16 S          15     1.7360349     1.7547169     1.7112133


optimized geometry written to: xtbopt.xyz


           -------------------------------------------------
          | TOTAL ENERGY             -186.209063824882 Eh   |
          | GRADIENT NORM               0.000894117490 Eh/α |
          | HOMO-LUMO GAP               0.687810864390 eV   |
           -------------------------------------------------

------------------------------------------------------------------------
 * finished run on 2021/07/03 at 02:55:26.985     
------------------------------------------------------------------------
 total:
 * wall-time:     0 d,  0 h,  0 min, 40.365 sec
 *  cpu-time:     0 d,  0 h,  7 min, 37.893 sec
 * ratio c/w:    11.344 speedup
 SCF:
 * wall-time:     0 d,  0 h,  0 min,  0.241 sec
 *  cpu-time:     0 d,  0 h,  0 min,  2.872 sec
 * ratio c/w:    11.916 speedup
 ANC optimizer:
 * wall-time:     0 d,  0 h,  0 min, 40.047 sec
 *  cpu-time:     0 d,  0 h,  7 min, 34.311 sec
 * ratio c/w:    11.344 speedup

