      -----------------------------------------------------------      
     |                   =====================                   |     
     |                           x T B                           |     
     |                   =====================                   |     
     |                         S. Grimme                         |     
     |          Mulliken Center for Theoretical Chemistry        |     
     |                    University of Bonn                     |     
     |                Version 6.2 RC2 (SAW190805)                |     
      -----------------------------------------------------------      

   This program is distributed in the hope that it will be useful,
   but WITHOUT ANY WARRANTY; without even the implied warranty of
   MERCHANTABILITY or FITNESS FOR A PARTICULAR PURPOSE.
   
   FOR NON-COMMERCIAL, ACADEMIA USE ONLY.
   
   Cite this work as:
   * S. Grimme, C. Bannwarth, P. Shushkov, J. Chem. Theory Comput., 2017,
     13, 1989-2009. DOI: 10.1021/acs.jctc.7b00118
   * C. Bannwarth, S. Ehlert and S. Grimme., J. Chem. Theory Comput., 2019,
     15, 1652-1671. DOI: 10.1021/acs.jctc.8b01176
   * P. Pracht, E. Caldeweyher, S. Ehlert, S. Grimme, ChemRxiv, 2019, preprint.
     DOI: 10.26434/chemrxiv.8326202.v1
   
   for DFT-D4:
   * E. Caldeweyher, C. Bannwarth and S. Grimme, J. Chem. Phys., 2017,
     147, 034112. DOI: 10.1063/1.4993215
   * E. Caldeweyher, S. Ehlert, A. Hansen, H. Neugebauer, S. Spicher,
     C. Bannwarth and S. Grimme, J. Chem. Phys., 2019, 150, 154122.
     DOI: 10.1063/1.5090222
   
   for sTDA-xTB:
   * S. Grimme and C. Bannwarth, J. Chem. Phys., 2016, 145, 054103.
     DOI: 10.1063/1.4959605
   
   in the mass-spec context:
   * V. Asgeirsson, C. Bauer and S. Grimme, Chem. Sci., 2017, 8, 4879.
     DOI: 10.1039/c7sc00601b
   
   for metadynamics refer to:
   * S. Grimme, J. Chem. Theory Comput., 2019, 155, 2847-2862
     DOI: 10.1021/acs.jctc.9b00143
   
   with help from (in alphabetical order)
   C. Bannwarth, F. Bohle, G. Brandenburg, E. Caldeweyher, M. Checinski,
   S. Dohm, S. Ehlert, S. Ehrlich, F. März, H. Neugebauer, J. Pisarek,
   P. Pracht, P. Shushkov, and S. Spicher.
   
 * started run on 2021/06/25 at 11:00:52.542     

           -------------------------------------------------
          |                Calculation Setup                |
           -------------------------------------------------

          program call               : /ihome/ghutchison/geoffh/xtb/xtb /ihome/ghutchison/blp62/GA/running_GA/opt_GA/generations/37/32_45_52_45_32_10201.xyz -opt
          hostname                   : smp-n70
          coordinate file            : /ihome/ghutchison/blp62/GA/running_GA/opt_GA/generations/37/32_45_52_45_32_10201.xyz
          omp threads                :                    12
          number of atoms            :                   104
          number of electrons        :                   394
          charge                     :                     0
          spin                       :                   0.0
          first test random number   :      0.98443372765410


########################################################################
# WARNING! Please study the warnings concerning your input carefully
#  - XTBPATH is not set, using XTBHOME instead
#  - the use of '-opt' is discouraged, please use '--opt' next time
########################################################################

           ------------------------------------------------- 
          |                 G F N 2 - x T B                 |
          | Geometry, Frequencies, Noncovalent interactions |
          |            JCTC 2019 parametrisation            |
           ------------------------------------------------- 
             KAB for C  - Si     :                1.0500
             KAB for H  - Pd     :                0.9500
             k(s)              :                1.8500
             k(p)              :                2.2300
             k(d)              :                2.2300
             k(f)              :                2.0000
             kEN (H0ij)        :               -2.0000
             D4 a1             :                0.5200
             D4 a2             :                5.0000
             D4 s6             :                1.0000
             D4 s8             :                2.7000
             D4 s9             :                5.0000
             alphaj            :                2.0000

  Z AO/shell   Hii/eV     exponent
  1     Wed Apr 25 08:07:45 CEST 2018   EN: 2.200 GM2: 0.406  GM3: 0.0800  RAES: 1.40
     1s    -10.707211    1.230000
  6     Wed Apr 25 08:07:45 CEST 2018   EN: 2.550 GM2: 0.538  GM3: 0.1500  RAES: 3.00
     2s    -13.970922    2.096432
     2p    -10.063292    1.800000
  7     Wed Apr 25 08:07:45 CEST 2018   EN: 3.040 GM2: 0.461  GM3:-0.0640  RAES: 1.90
     2s    -16.686243    2.339881
     2p    -12.523956    2.014332
  8     Wed Apr 25 08:07:45 CEST 2018   EN: 3.440 GM2: 0.452  GM3:-0.0517  RAES: 1.80
     2s    -20.229985    2.439742
     2p    -15.503117    2.137023
  9     Mon Apr 23 13:58:50 CEST 2018   EN: 3.980 GM2: 0.532  GM3: 0.1426  RAES: 2.40
     2s    -23.458179    2.416361
     2p    -15.746583    2.308399
 16     Tue Apr 24 11:44:34 CEST 2018   EN: 2.580 GM2: 0.340  GM3:-0.0502  RAES: 3.10
     3s    -20.029654    1.981333
     3p    -11.377694    2.025643
     3d     -0.420282    1.702555

           ------------------------------------------------- 
          |        Self-Consistent Charge Iterations        |
           ------------------------------------------------- 

          ...................................................
          :                      SETUP                      :
          :.................................................:
          :  # basis functions                 398          :
          :  # atomic orbitals                 392          :
          :  # shells                          196          :
          :  # electrons                       394          :
          :  max. iterations                   250          :
          :  Hamiltonian                  GFN2-xTB          :
          :  restarted?                      false          :
          :  GBSA solvation                  false          :
          :  PC potential                    false          :
          :  electronic temp.          300.0000000     K    :
          :  accuracy                    1.0000000          :
          :  -> integral cutoff          0.2500000E+02      :
          :  -> integral neglect         0.1000000E-07      :
          :  -> SCF convergence          0.1000000E-05 Eh   :
          :  -> wf. convergence          0.1000000E-03 e    :
          :  Broyden damping             0.4000000          :
          ...................................................

 iter      E             dE          RMSdq      gap      omega  full diag
   1   -219.5888553 -0.219589E+03  0.570E+00    1.29       0.0  T
   2   -219.5978422 -0.898689E-02  0.382E+00    1.09       1.0  T
   3   -219.4615878  0.136254E+00  0.266E+00    0.93       1.0  T
   4   -219.9449433 -0.483356E+00  0.634E-01    1.09       1.0  T
   5   -219.9757151 -0.307717E-01  0.217E-01    0.99       1.0  T
   6   -219.9772349 -0.151980E-02  0.117E-01    1.02       1.0  T
   7   -219.9782622 -0.102736E-02  0.473E-02    1.02       1.0  T
   8   -219.9783680 -0.105791E-03  0.223E-02    1.02       1.0  T
   9   -219.9783988 -0.307830E-04  0.107E-02    1.02       1.0  T
  10   -219.9784039 -0.508183E-05  0.544E-03    1.01       1.8  T
  11   -219.9784057 -0.181299E-05  0.223E-03    1.02       4.4  T
  12   -219.9784059 -0.216185E-06  0.117E-03    1.02       8.4  T
  13   -219.9784059 -0.189015E-07  0.665E-04    1.02      14.7  T
  14   -219.9784060 -0.232448E-07  0.274E-04    1.02      35.8  T

   *** convergence criteria satisfied after 14 iterations ***

         #    Occupation            Energy/Eh            Energy/eV
      -------------------------------------------------------------
         1        2.0000           -0.8367317             -22.7686
       ...           ...                  ...                  ...
       191        2.0000           -0.4180720             -11.3763
       192        2.0000           -0.4158700             -11.3164
       193        2.0000           -0.4151760             -11.2975
       194        2.0000           -0.4130335             -11.2392
       195        2.0000           -0.4119734             -11.2104
       196        2.0000           -0.4017893             -10.9332
       197        2.0000           -0.3899681             -10.6116 (HOMO)
       198                         -0.3526497              -9.5961 (LUMO)
       199                         -0.3511670              -9.5557
       200                         -0.3386866              -9.2161
       201                         -0.3381027              -9.2002
       202                         -0.3235140              -8.8033
       ...                                ...                  ...
       392                          1.1086043              30.1667
      -------------------------------------------------------------
                  HL-Gap            0.0373184 Eh            1.0155 eV
             Fermi-level           -0.3713992 Eh          -10.1063 eV

 SCC (total)                   0 d,  0 h,  0 min,  0.290 sec
 SCC setup                      ...        0 min,  0.003 sec (  0.897%)
 Dispersion                     ...        0 min,  0.007 sec (  2.371%)
 integral evaluation            ...        0 min,  0.027 sec (  9.272%)
 zeroth order Hamiltonian       ...        0 min,  0.002 sec (  0.583%)
 iterations                     ...        0 min,  0.227 sec ( 78.242%)
 molecular gradient             ...        0 min,  0.024 sec (  8.181%)
 printout                       ...        0 min,  0.001 sec (  0.420%)

         :::::::::::::::::::::::::::::::::::::::::::::::::::::
         ::                     SUMMARY                     ::
         :::::::::::::::::::::::::::::::::::::::::::::::::::::
         :: total energy            -216.412427408092 Eh    ::
         :: gradient norm              0.218847202353 Eh/a0 ::
         :: HOMO-LUMO gap              1.015484231093 eV    ::
         ::.................................................::
         :: SCC energy              -219.978405952784 Eh    ::
         :: -> isotropic ES            0.154443996574 Eh    ::
         :: -> anisotropic ES          0.014791935286 Eh    ::
         :: -> anisotropic XC          0.188513716943 Eh    ::
         :: -> dispersion             -0.183900715076 Eh    ::
         :: repulsion energy           3.566763515654 Eh    ::
         :: add. restraining           0.000000000000 Eh    ::
         :::::::::::::::::::::::::::::::::::::::::::::::::::::

      ----------------------------------------------------------- 
     |                   =====================                   |
     |                        A N C O P T                        |
     |                   =====================                   |
     |               Approximate Normal Coordinate               |
     |                Rational Function Optimizer                |
      ----------------------------------------------------------- 

          ...................................................
          :                      SETUP                      :
          :.................................................:
          :   optimization level            normal          :
          :   max. optcycles                   312          :
          :   ANC micro-cycles                  20          :
          :   degrees of freedom               306          :
          :.................................................:
          :   RF solver                   davidson          :
          :   input Hessian                  false          :
          :   write xtbopt.log                true          :
          :   linear?                        false          :
          :   energy convergence         0.5000000E-05 Eh   :
          :   grad. convergence          0.1000000E-02 Eh/α :
          :   maximium RF displ.         2.0000000          :
          :   Hlow (freq-cutoff)         0.5000000E-02      :
          :   Hmax (freq-cutoff)         5.0000000          :
          :   S6 in model hess.         20.0000000          :
          ...................................................

generating ANC from model Hessian ...
Using Lindh-Hessian (1995)
 Shifting diagonal of input Hessian by   5.004132145217857E-003
 Lowest  eigenvalues of input Hessian
    0.005000   -0.000000   -0.000000    0.000000    0.000000    0.000000
    0.000000    0.005015    0.005045    0.005063    0.005109    0.005131
    0.005156    0.005256    0.005268    0.005344    0.005355    0.005489
 Highest eigenvalues
    2.512470    2.513353    2.572205    2.588066    2.589781    2.590052
 

........................................................................
.............................. CYCLE    1 ..............................
........................................................................
   1   -219.9784060 -0.219978E+03  0.126E-04    1.02       0.0  T
   2   -219.9784060  0.230216E-10  0.105E-04    1.02      93.4  T
   3   -219.9784060 -0.674902E-09  0.602E-05    1.02     163.0  T
     SCC iter.                  ...        0 min,  0.045 sec
     gradient                   ...        0 min,  0.024 sec
 * total energy  :  -216.4124272 Eh     change        0.1705222E-06 Eh
   gradient norm :     0.2188477 Eh/α   predicted     0.0000000E+00 (-100.00%)
   displ. norm   :     0.4394187 α      lambda       -0.5247199E-01
   maximum displ.:     0.1921267 α      in ANC's #99, #56, #97, ...

........................................................................
.............................. CYCLE    2 ..............................
........................................................................
   1   -220.1151062 -0.220115E+03  0.340E-01    0.95       0.0  T
   2   -220.1154806 -0.374446E-03  0.199E-01    0.97       1.0  T
   3   -220.1142970  0.118366E-02  0.139E-01    0.94       1.0  T
   4   -220.1163030 -0.200604E-02  0.456E-02    0.96       1.0  T
   5   -220.1164673 -0.164277E-03  0.203E-02    0.96       1.0  T
   6   -220.1164831 -0.157540E-04  0.912E-03    0.96       1.1  T
   7   -220.1164880 -0.497346E-05  0.355E-03    0.96       2.8  T
   8   -220.1164893 -0.127574E-05  0.125E-03    0.96       7.9  T
     SCC iter.                  ...        0 min,  0.121 sec
     gradient                   ...        0 min,  0.023 sec
 * total energy  :  -216.4482116 Eh     change       -0.3578435E-01 Eh
   gradient norm :     0.0891602 Eh/α   predicted    -0.3130208E-01 ( -12.53%)
   displ. norm   :     0.5141410 α      lambda       -0.1970921E-01
   maximum displ.:     0.1610329 α      in ANC's #99, #56, #21, ...

........................................................................
.............................. CYCLE    3 ..............................
........................................................................
   1   -220.1497876 -0.220150E+03  0.365E-01    0.88       0.0  T
   2   -220.1501839 -0.396377E-03  0.193E-01    0.90       1.0  T
   3   -220.1489014  0.128258E-02  0.125E-01    0.88       1.0  T
   4   -220.1505580 -0.165661E-02  0.396E-02    0.90       1.0  T
   5   -220.1506660 -0.108083E-03  0.194E-02    0.89       1.0  T
   6   -220.1506821 -0.160118E-04  0.854E-03    0.89       1.1  T
   7   -220.1506866 -0.450652E-05  0.321E-03    0.89       3.1  T
   8   -220.1506875 -0.973278E-06  0.124E-03    0.89       7.9  T
     SCC iter.                  ...        0 min,  0.119 sec
     gradient                   ...        0 min,  0.023 sec
 * total energy  :  -216.4610865 Eh     change       -0.1287488E-01 Eh
   gradient norm :     0.0289950 Eh/α   predicted    -0.1245959E-01 (  -3.23%)
   displ. norm   :     0.6364470 α      lambda       -0.8754656E-02
   maximum displ.:     0.2568448 α      in ANC's #30, #33, #56, ...

........................................................................
.............................. CYCLE    4 ..............................
........................................................................
   1   -220.1518568 -0.220152E+03  0.364E-01    0.85       0.0  T
   2   -220.1520463 -0.189454E-03  0.192E-01    0.86       1.0  T
   3   -220.1511918  0.854506E-03  0.939E-02    0.85       1.0  T
   4   -220.1521496 -0.957770E-03  0.297E-02    0.85       1.0  T
   5   -220.1521921 -0.425797E-04  0.160E-02    0.85       1.0  T
   6   -220.1522061 -0.139875E-04  0.646E-03    0.85       1.5  T
   7   -220.1522102 -0.405483E-05  0.223E-03    0.85       4.4  T
   8   -220.1522105 -0.301310E-06  0.130E-03    0.85       7.5  T
     SCC iter.                  ...        0 min,  0.125 sec
     gradient                   ...        0 min,  0.024 sec
 * total energy  :  -216.4656787 Eh     change       -0.4592233E-02 Eh
   gradient norm :     0.0366134 Eh/α   predicted    -0.6150433E-02 (  33.93%)
   displ. norm   :     0.6740003 α      lambda       -0.9674645E-02
   maximum displ.:     0.2156564 α      in ANC's #14, #21, #20, ...

........................................................................
.............................. CYCLE    5 ..............................
........................................................................
   1   -220.1666688 -0.220167E+03  0.402E-01    0.82       0.0  T
   2   -220.1668367 -0.167950E-03  0.217E-01    0.82       1.0  T
   3   -220.1652836  0.155310E-02  0.120E-01    0.82       1.0  T
   4   -220.1670103 -0.172671E-02  0.290E-02    0.82       1.0  T
   5   -220.1670539 -0.436048E-04  0.164E-02    0.82       1.0  T
   6   -220.1670698 -0.158346E-04  0.598E-03    0.82       1.6  T
   7   -220.1670731 -0.329641E-05  0.231E-03    0.82       4.2  T
   8   -220.1670733 -0.247820E-06  0.136E-03    0.82       7.2  T
     SCC iter.                  ...        0 min,  0.122 sec
     gradient                   ...        0 min,  0.023 sec
 * total energy  :  -216.4709071 Eh     change       -0.5228425E-02 Eh
   gradient norm :     0.0291410 Eh/α   predicted    -0.7034808E-02 (  34.55%)
   displ. norm   :     0.5296712 α      lambda       -0.4032180E-02
   maximum displ.:     0.2155557 α      in ANC's #21, #30, #17, ...

........................................................................
.............................. CYCLE    6 ..............................
........................................................................
   1   -220.1630952 -0.220163E+03  0.204E-01    0.82       0.0  T
   2   -220.1631132 -0.179970E-04  0.114E-01    0.82       1.0  T
   3   -220.1623581  0.755061E-03  0.746E-02    0.82       1.0  T
   4   -220.1631878 -0.829704E-03  0.138E-02    0.82       1.0  T
   5   -220.1631947 -0.694858E-05  0.809E-03    0.82       1.2  T
   6   -220.1631990 -0.426014E-05  0.290E-03    0.82       3.4  T
   7   -220.1631998 -0.798568E-06  0.123E-03    0.82       8.0  T
     SCC iter.                  ...        0 min,  0.103 sec
     gradient                   ...        0 min,  0.023 sec
 * total energy  :  -216.4739742 Eh     change       -0.3067065E-02 Eh
   gradient norm :     0.0237503 Eh/α   predicted    -0.2581711E-02 ( -15.82%)
   displ. norm   :     0.7058947 α      lambda       -0.4940536E-02
   maximum displ.:     0.2609828 α      in ANC's #21, #30, #17, ...

........................................................................
.............................. CYCLE    7 ..............................
........................................................................
   1   -220.1563672 -0.220156E+03  0.301E-01    0.82       0.0  T
   2   -220.1564394 -0.721745E-04  0.169E-01    0.82       1.0  T
   3   -220.1549623  0.147712E-02  0.111E-01    0.83       1.0  T
   4   -220.1565903 -0.162807E-02  0.214E-02    0.82       1.0  T
   5   -220.1566211 -0.307105E-04  0.117E-02    0.82       1.0  T
   6   -220.1566312 -0.101855E-04  0.459E-03    0.82       2.1  T
   7   -220.1566328 -0.154404E-05  0.206E-03    0.82       4.8  T
   8   -220.1566331 -0.296671E-06  0.944E-04    0.82      10.4  T
     SCC iter.                  ...        0 min,  0.118 sec
     gradient                   ...        0 min,  0.023 sec
 * total energy  :  -216.4755704 Eh     change       -0.1596215E-02 Eh
   gradient norm :     0.0407684 Eh/α   predicted    -0.3701173E-02 ( 131.87%)
   displ. norm   :     0.4749416 α      lambda       -0.5045556E-02
   maximum displ.:     0.1815586 α      in ANC's #17, #20, #33, ...

........................................................................
.............................. CYCLE    8 ..............................
........................................................................
   1   -220.1680607 -0.220168E+03  0.265E-01    0.83       0.0  T
   2   -220.1681419 -0.812877E-04  0.146E-01    0.83       1.0  T
   3   -220.1677456  0.396319E-03  0.593E-02    0.83       1.0  T
   4   -220.1681984 -0.452765E-03  0.127E-02    0.83       1.0  T
   5   -220.1682055 -0.711126E-05  0.773E-03    0.83       1.3  T
   6   -220.1682103 -0.478446E-05  0.319E-03    0.83       3.1  T
   7   -220.1682112 -0.948627E-06  0.125E-03    0.83       7.9  T
     SCC iter.                  ...        0 min,  0.106 sec
     gradient                   ...        0 min,  0.023 sec
 * total energy  :  -216.4769946 Eh     change       -0.1424227E-02 Eh
   gradient norm :     0.0312806 Eh/α   predicted    -0.3091841E-02 ( 117.09%)
   displ. norm   :     0.3708060 α      lambda       -0.3729390E-02
   maximum displ.:     0.1422049 α      in ANC's #21, #17, #20, ...

........................................................................
.............................. CYCLE    9 ..............................
........................................................................
   1   -220.1677961 -0.220168E+03  0.249E-01    0.82       0.0  T
   2   -220.1678709 -0.748252E-04  0.136E-01    0.82       1.0  T
   3   -220.1675794  0.291493E-03  0.563E-02    0.81       1.0  T
   4   -220.1679218 -0.342356E-03  0.118E-02    0.82       1.0  T
   5   -220.1679259 -0.408090E-05  0.766E-03    0.82       1.3  T
   6   -220.1679313 -0.537442E-05  0.280E-03    0.82       3.5  T
   7   -220.1679320 -0.714245E-06  0.110E-03    0.82       8.9  T
     SCC iter.                  ...        0 min,  0.106 sec
     gradient                   ...        0 min,  0.023 sec
 * total energy  :  -216.4783713 Eh     change       -0.1376698E-02 Eh
   gradient norm :     0.0266084 Eh/α   predicted    -0.2121086E-02 (  54.07%)
   displ. norm   :     0.3902446 α      lambda       -0.2442651E-02
   maximum displ.:     0.1618010 α      in ANC's #17, #20, #21, ...

........................................................................
.............................. CYCLE   10 ..............................
........................................................................
   1   -220.1649098 -0.220165E+03  0.206E-01    0.82       0.0  T
   2   -220.1649497 -0.398927E-04  0.113E-01    0.81       1.0  T
   3   -220.1647911  0.158599E-03  0.384E-02    0.82       1.0  T
   4   -220.1649733 -0.182270E-03  0.928E-03    0.81       1.1  T
   5   -220.1649755 -0.217085E-05  0.597E-03    0.81       1.6  T
   6   -220.1649790 -0.349848E-05  0.180E-03    0.81       5.5  T
     SCC iter.                  ...        0 min,  0.092 sec
     gradient                   ...        0 min,  0.023 sec
 * total energy  :  -216.4791184 Eh     change       -0.7470511E-03 Eh
   gradient norm :     0.0243097 Eh/α   predicted    -0.1407326E-02 (  88.38%)
   displ. norm   :     0.4534881 α      lambda       -0.3445980E-02
   maximum displ.:     0.1546993 α      in ANC's #17, #14, #34, ...

........................................................................
.............................. CYCLE   11 ..............................
........................................................................
   1   -220.1677179 -0.220168E+03  0.259E-01    0.82       0.0  T
   2   -220.1678000 -0.821095E-04  0.143E-01    0.82       1.0  T
   3   -220.1675605  0.239558E-03  0.508E-02    0.82       1.0  T
   4   -220.1678425 -0.282077E-03  0.108E-02    0.82       1.0  T
   5   -220.1678474 -0.490257E-05  0.673E-03    0.82       1.5  T
   6   -220.1678520 -0.452713E-05  0.250E-03    0.82       3.9  T
   7   -220.1678525 -0.529929E-06  0.103E-03    0.82       9.5  T
     SCC iter.                  ...        0 min,  0.107 sec
     gradient                   ...        0 min,  0.023 sec
 * total energy  :  -216.4798897 Eh     change       -0.7713590E-03 Eh
   gradient norm :     0.0401572 Eh/α   predicted    -0.2077321E-02 ( 169.31%)
   displ. norm   :     0.3048643 α      lambda       -0.2370978E-02
   maximum displ.:     0.1269494 α      in ANC's #17, #21, #20, ...

........................................................................
.............................. CYCLE   12 ..............................
........................................................................
   1   -220.1759973 -0.220176E+03  0.160E-01    0.82       0.0  T
   2   -220.1760227 -0.253696E-04  0.885E-02    0.82       1.0  T
   3   -220.1757945  0.228206E-03  0.501E-02    0.82       1.0  T
   4   -220.1760570 -0.262542E-03  0.736E-03    0.82       1.3  T
   5   -220.1760575 -0.484354E-06  0.535E-03    0.82       1.8  T
   6   -220.1760601 -0.262299E-05  0.174E-03    0.82       5.6  T
     SCC iter.                  ...        0 min,  0.089 sec
     gradient                   ...        0 min,  0.023 sec
 * total energy  :  -216.4811541 Eh     change       -0.1264384E-02 Eh
   gradient norm :     0.0198685 Eh/α   predicted    -0.1295671E-02 (   2.47%)
   displ. norm   :     0.4420620 α      lambda       -0.1735826E-02
   maximum displ.:     0.1763207 α      in ANC's #17, #20, #12, ...

........................................................................
.............................. CYCLE   13 ..............................
........................................................................
   1   -220.1688259 -0.220169E+03  0.197E-01    0.82       0.0  T
   2   -220.1688739 -0.479981E-04  0.107E-01    0.82       1.0  T
   3   -220.1688051  0.687611E-04  0.296E-02    0.81       1.0  T
   4   -220.1688913 -0.862332E-04  0.978E-03    0.82       1.0  T
   5   -220.1688929 -0.162490E-05  0.646E-03    0.81       1.5  T
   6   -220.1688974 -0.443570E-05  0.177E-03    0.82       5.5  T
   7   -220.1688976 -0.243406E-06  0.901E-04    0.82      10.9  T
   8   -220.1688977 -0.414500E-07  0.481E-04    0.82      20.4  T
     SCC iter.                  ...        0 min,  0.123 sec
     gradient                   ...        0 min,  0.023 sec
 * total energy  :  -216.4816158 Eh     change       -0.4616747E-03 Eh
   gradient norm :     0.0345231 Eh/α   predicted    -0.1037516E-02 ( 124.73%)
   displ. norm   :     0.4006968 α      lambda       -0.1691020E-02
   maximum displ.:     0.1783149 α      in ANC's #17, #21, #14, ...

........................................................................
.............................. CYCLE   14 ..............................
........................................................................
   1   -220.1616609 -0.220162E+03  0.165E-01    0.81       0.0  T
   2   -220.1616895 -0.286273E-04  0.913E-02    0.81       1.0  T
   3   -220.1615332  0.156251E-03  0.398E-02    0.82       1.0  T
   4   -220.1617097 -0.176461E-03  0.805E-03    0.81       1.2  T
   5   -220.1617107 -0.969739E-06  0.551E-03    0.81       1.8  T
   6   -220.1617138 -0.313574E-05  0.192E-03    0.81       5.1  T
     SCC iter.                  ...        0 min,  0.088 sec
     gradient                   ...        0 min,  0.023 sec
 * total energy  :  -216.4824050 Eh     change       -0.7892152E-03 Eh
   gradient norm :     0.0328962 Eh/α   predicted    -0.9812629E-03 (  24.33%)
   displ. norm   :     0.3945987 α      lambda       -0.1890433E-02
   maximum displ.:     0.1187349 α      in ANC's #8, #12, #17, ...

........................................................................
.............................. CYCLE   15 ..............................
........................................................................
   1   -220.1866617 -0.220187E+03  0.180E-01    0.81       0.0  T
   2   -220.1867004 -0.386900E-04  0.100E-01    0.81       1.0  T
   3   -220.1863338  0.366611E-03  0.641E-02    0.81       1.0  T
   4   -220.1867562 -0.422432E-03  0.106E-02    0.81       1.0  T
   5   -220.1867632 -0.703402E-05  0.670E-03    0.81       1.5  T
   6   -220.1867670 -0.374570E-05  0.245E-03    0.81       4.0  T
   7   -220.1867676 -0.572850E-06  0.948E-04    0.81      10.3  T
     SCC iter.                  ...        0 min,  0.100 sec
     gradient                   ...        0 min,  0.023 sec
 * total energy  :  -216.4820175 Eh     change        0.3875359E-03 Eh
   gradient norm :     0.0500424 Eh/α   predicted    -0.1092392E-02 (-381.88%)
   displ. norm   :     0.2724324 α      lambda       -0.2478735E-02
   maximum displ.:     0.1129736 α      in ANC's #17, #21, #12, ...

........................................................................
.............................. CYCLE   16 ..............................
........................................................................
   1   -220.1774098 -0.220177E+03  0.160E-01    0.82       0.0  T
   2   -220.1774355 -0.257003E-04  0.899E-02    0.81       1.0  T
   3   -220.1771480  0.287502E-03  0.535E-02    0.82       1.0  T
   4   -220.1774709 -0.322905E-03  0.813E-03    0.82       1.2  T
   5   -220.1774774 -0.653340E-05  0.391E-03    0.82       2.5  T
   6   -220.1774783 -0.842993E-06  0.167E-03    0.82       5.9  T
   7   -220.1774785 -0.264059E-06  0.648E-04    0.82      15.1  T
     SCC iter.                  ...        0 min,  0.100 sec
     gradient                   ...        0 min,  0.023 sec
 * total energy  :  -216.4831964 Eh     change       -0.1178884E-02 Eh
   gradient norm :     0.0240375 Eh/α   predicted    -0.1331352E-02 (  12.93%)
   displ. norm   :     0.3327918 α      lambda       -0.1169605E-02
   maximum displ.:     0.1230289 α      in ANC's #17, #14, #12, ...

........................................................................
.............................. CYCLE   17 ..............................
........................................................................
   1   -220.1606795 -0.220161E+03  0.158E-01    0.81       0.0  T
   2   -220.1607128 -0.333612E-04  0.866E-02    0.81       1.0  T
   3   -220.1606208  0.920749E-04  0.319E-02    0.81       1.0  T
   4   -220.1607301 -0.109334E-03  0.749E-03    0.81       1.3  T
   5   -220.1607314 -0.125480E-05  0.491E-03    0.81       2.0  T
   6   -220.1607337 -0.235666E-05  0.189E-03    0.81       5.2  T
     SCC iter.                  ...        0 min,  0.085 sec
     gradient                   ...        0 min,  0.023 sec
 * total energy  :  -216.4834466 Eh     change       -0.2501892E-03 Eh
   gradient norm :     0.0318086 Eh/α   predicted    -0.6495788E-03 ( 159.63%)
   displ. norm   :     0.2994197 α      lambda       -0.8432852E-03
   maximum displ.:     0.1150661 α      in ANC's #17, #8, #12, ...

........................................................................
.............................. CYCLE   18 ..............................
........................................................................
   1   -220.1692085 -0.220169E+03  0.104E-01    0.81       0.0  T
   2   -220.1692190 -0.105107E-04  0.568E-02    0.81       1.0  T
   3   -220.1691664  0.525572E-04  0.239E-02    0.81       1.0  T
   4   -220.1692272 -0.607483E-04  0.489E-03    0.81       2.0  T
   5   -220.1692271  0.310037E-07  0.272E-03    0.81       3.6  T
   6   -220.1692279 -0.720717E-06  0.116E-03    0.81       8.5  T
     SCC iter.                  ...        0 min,  0.086 sec
     gradient                   ...        0 min,  0.023 sec
 * total energy  :  -216.4839988 Eh     change       -0.5522747E-03 Eh
   gradient norm :     0.0110626 Eh/α   predicted    -0.4594440E-03 ( -16.81%)
   displ. norm   :     0.4345439 α      lambda       -0.5883771E-03
   maximum displ.:     0.1804789 α      in ANC's #8, #12, #17, ...

........................................................................
.............................. CYCLE   19 ..............................
........................................................................
   1   -220.1753934 -0.220175E+03  0.142E-01    0.81       0.0  T
   2   -220.1754104 -0.169809E-04  0.775E-02    0.81       1.0  T
   3   -220.1753510  0.593800E-04  0.257E-02    0.81       1.0  T
   4   -220.1754193 -0.683302E-04  0.776E-03    0.81       1.3  T
   5   -220.1754191  0.289564E-06  0.457E-03    0.81       2.1  T
   6   -220.1754218 -0.273481E-05  0.114E-03    0.81       8.6  T
   7   -220.1754219 -0.926454E-07  0.603E-04    0.81      16.3  T
     SCC iter.                  ...        0 min,  0.103 sec
     gradient                   ...        0 min,  0.023 sec
 * total energy  :  -216.4843044 Eh     change       -0.3055733E-03 Eh
   gradient norm :     0.0192267 Eh/α   predicted    -0.3497399E-03 (  14.45%)
   displ. norm   :     0.5080598 α      lambda       -0.6761732E-03
   maximum displ.:     0.2192692 α      in ANC's #12, #8, #17, ...

........................................................................
.............................. CYCLE   20 ..............................
........................................................................
   1   -220.1812843 -0.220181E+03  0.158E-01    0.81       0.0  T
   2   -220.1813054 -0.210776E-04  0.848E-02    0.81       1.0  T
   3   -220.1812802  0.251694E-04  0.202E-02    0.81       1.0  T
   4   -220.1813091 -0.288747E-04  0.983E-03    0.81       1.0  T
   5   -220.1813116 -0.252573E-05  0.494E-03    0.81       2.0  T
   6   -220.1813147 -0.301165E-05  0.120E-03    0.81       8.2  T
   7   -220.1813148 -0.105922E-06  0.669E-04    0.81      14.7  T
   8   -220.1813148 -0.172389E-07  0.376E-04    0.81      26.1  T
     SCC iter.                  ...        0 min,  0.117 sec
     gradient                   ...        0 min,  0.023 sec
 * total energy  :  -216.4847228 Eh     change       -0.4184002E-03 Eh
   gradient norm :     0.0172276 Eh/α   predicted    -0.4253605E-03 (   1.66%)
   displ. norm   :     0.5367066 α      lambda       -0.5786754E-03
   maximum displ.:     0.2376464 α      in ANC's #8, #12, #17, ...
 * RMSD in coord.:     0.6635326 α      energy gain  -0.7229540E-01 Eh

generating ANC from model Hessian ...
Using Lindh-Hessian (1995)
 Shifting diagonal of input Hessian by   5.040077827994384E-003
 Lowest  eigenvalues of input Hessian
    0.005000    0.005034   -0.000000   -0.000000   -0.000000    0.000000
    0.000000    0.000000    0.005072    0.005084    0.005119    0.005178
    0.005200    0.005224    0.005373    0.005412    0.005481    0.005662
 Highest eigenvalues
    2.589325    2.607750    2.644377    2.661670    2.665891    2.667197
 

........................................................................
.............................. CYCLE   21 ..............................
........................................................................
   1   -220.1695564 -0.220170E+03  0.177E-01    0.80       0.0  T
   2   -220.1695853 -0.288824E-04  0.958E-02    0.80       1.0  T
   3   -220.1695411  0.441987E-04  0.247E-02    0.81       1.0  T
   4   -220.1695925 -0.513944E-04  0.105E-02    0.80       1.0  T
   5   -220.1695946 -0.210621E-05  0.619E-03    0.80       1.6  T
   6   -220.1695990 -0.439558E-05  0.158E-03    0.80       6.2  T
   7   -220.1695992 -0.246633E-06  0.734E-04    0.80      13.4  T
   8   -220.1695993 -0.310529E-07  0.394E-04    0.80      24.9  T
     SCC iter.                  ...        0 min,  0.116 sec
     gradient                   ...        0 min,  0.024 sec
 * total energy  :  -216.4850288 Eh     change       -0.3059735E-03 Eh
   gradient norm :     0.0149304 Eh/α   predicted     0.0000000E+00 (-100.00%)
   displ. norm   :     0.1896116 α      lambda       -0.4637090E-03
   maximum displ.:     0.0665941 α      in ANC's #9, #7, #26, ...

........................................................................
.............................. CYCLE   22 ..............................
........................................................................
   1   -220.1716590 -0.220172E+03  0.123E-01    0.80       0.0  T
   2   -220.1716758 -0.167301E-04  0.667E-02    0.80       1.0  T
   3   -220.1716088  0.669339E-04  0.268E-02    0.80       1.0  T
   4   -220.1716885 -0.796257E-04  0.465E-03    0.80       2.1  T
   5   -220.1716880  0.465611E-06  0.354E-03    0.80       2.8  T
   6   -220.1716895 -0.154498E-05  0.101E-03    0.80       9.8  T
   7   -220.1716896 -0.102146E-06  0.427E-04    0.80      23.0  T
     SCC iter.                  ...        0 min,  0.105 sec
     gradient                   ...        0 min,  0.023 sec
 * total energy  :  -216.4850908 Eh     change       -0.6205216E-04 Eh
   gradient norm :     0.0087755 Eh/α   predicted    -0.2401913E-03 ( 287.08%)
   displ. norm   :     0.1765587 α      lambda       -0.6370307E-03
   maximum displ.:     0.0827142 α      in ANC's #22, #9, #34, ...

........................................................................
.............................. CYCLE   23 ..............................
........................................................................
   1   -220.1775971 -0.220178E+03  0.117E-01    0.80       0.0  T
   2   -220.1776119 -0.147886E-04  0.633E-02    0.80       1.0  T
   3   -220.1775765  0.354059E-04  0.202E-02    0.80       1.0  T
   4   -220.1776206 -0.441136E-04  0.503E-03    0.80       1.9  T
   5   -220.1776210 -0.396590E-06  0.265E-03    0.80       3.7  T
   6   -220.1776215 -0.513383E-06  0.850E-04    0.80      11.5  T
     SCC iter.                  ...        0 min,  0.092 sec
     gradient                   ...        0 min,  0.023 sec
 * total energy  :  -216.4851696 Eh     change       -0.7873196E-04 Eh
   gradient norm :     0.0187043 Eh/α   predicted    -0.3284554E-03 ( 317.18%)
   displ. norm   :     0.1512833 α      lambda       -0.6370741E-03
   maximum displ.:     0.0469962 α      in ANC's #43, #8, #40, ...

........................................................................
.............................. CYCLE   24 ..............................
........................................................................
   1   -220.1770673 -0.220177E+03  0.123E-01    0.80       0.0  T
   2   -220.1770847 -0.173948E-04  0.679E-02    0.80       1.0  T
   3   -220.1770381  0.466140E-04  0.237E-02    0.80       1.0  T
   4   -220.1770961 -0.580104E-04  0.342E-03    0.80       2.9  T
   5   -220.1770965 -0.429088E-06  0.241E-03    0.80       4.1  T
   6   -220.1770970 -0.463861E-06  0.898E-04    0.80      10.9  T
     SCC iter.                  ...        0 min,  0.090 sec
     gradient                   ...        0 min,  0.023 sec
 * total energy  :  -216.4852078 Eh     change       -0.3822276E-04 Eh
   gradient norm :     0.0123823 Eh/α   predicted    -0.3258279E-03 ( 752.44%)
   displ. norm   :     0.1629087 α      lambda       -0.8388098E-03
   maximum displ.:     0.0494982 α      in ANC's #25, #24, #40, ...

........................................................................
.............................. CYCLE   25 ..............................
........................................................................
   1   -220.1737292 -0.220174E+03  0.133E-01    0.80       0.0  T
   2   -220.1737500 -0.208438E-04  0.734E-02    0.80       1.0  T
   3   -220.1737267  0.233057E-04  0.163E-02    0.80       1.0  T
   4   -220.1737599 -0.331679E-04  0.370E-03    0.80       2.6  T
   5   -220.1737604 -0.497786E-06  0.244E-03    0.80       4.0  T
   6   -220.1737609 -0.482823E-06  0.861E-04    0.80      11.4  T
     SCC iter.                  ...        0 min,  0.089 sec
     gradient                   ...        0 min,  0.023 sec
 * total energy  :  -216.4851694 Eh     change        0.3843120E-04 Eh
   gradient norm :     0.0166856 Eh/α   predicted    -0.4305367E-03 (*******%)
   displ. norm   :     0.1590183 α      lambda       -0.9145786E-03
   maximum displ.:     0.0484478 α      in ANC's #44, #21, #46, ...

........................................................................
.............................. CYCLE   26 ..............................
........................................................................
   1   -220.1734575 -0.220173E+03  0.132E-01    0.80       0.0  T
   2   -220.1734787 -0.212935E-04  0.727E-02    0.80       1.0  T
   3   -220.1734397  0.389954E-04  0.216E-02    0.80       1.0  T
   4   -220.1734910 -0.512128E-04  0.344E-03    0.80       2.9  T
   5   -220.1734911 -0.141384E-06  0.237E-03    0.80       4.1  T
   6   -220.1734916 -0.538631E-06  0.980E-04    0.80      10.0  T
     SCC iter.                  ...        0 min,  0.091 sec
     gradient                   ...        0 min,  0.023 sec
 * total energy  :  -216.4854339 Eh     change       -0.2645696E-03 Eh
   gradient norm :     0.0110547 Eh/α   predicted    -0.4688536E-03 (  77.21%)
   displ. norm   :     0.1751502 α      lambda       -0.5934655E-03
   maximum displ.:     0.0587636 α      in ANC's #22, #9, #29, ...

........................................................................
.............................. CYCLE   27 ..............................
........................................................................
   1   -220.1766484 -0.220177E+03  0.118E-01    0.80       0.0  T
   2   -220.1766635 -0.151863E-04  0.644E-02    0.80       1.0  T
   3   -220.1766059  0.576839E-04  0.249E-02    0.80       1.0  T
   4   -220.1766753 -0.694514E-04  0.416E-03    0.80       2.4  T
   5   -220.1766752  0.131957E-06  0.262E-03    0.80       3.7  T
   6   -220.1766759 -0.672725E-06  0.743E-04    0.80      13.2  T
     SCC iter.                  ...        0 min,  0.094 sec
     gradient                   ...        0 min,  0.023 sec
 * total energy  :  -216.4854478 Eh     change       -0.1390281E-04 Eh
   gradient norm :     0.0138229 Eh/α   predicted    -0.3058381E-03 (2099.83%)
   displ. norm   :     0.1414577 α      lambda       -0.5146867E-03
   maximum displ.:     0.0556413 α      in ANC's #9, #11, #26, ...

........................................................................
.............................. CYCLE   28 ..............................
........................................................................
   1   -220.1776909 -0.220178E+03  0.980E-02    0.80       0.0  T
   2   -220.1777025 -0.116782E-04  0.539E-02    0.80       1.0  T
   3   -220.1776553  0.472552E-04  0.237E-02    0.80       1.0  T
   4   -220.1777119 -0.566232E-04  0.323E-03    0.80       3.0  T
   5   -220.1777124 -0.464346E-06  0.203E-03    0.80       4.8  T
   6   -220.1777127 -0.278826E-06  0.889E-04    0.80      11.0  T
     SCC iter.                  ...        0 min,  0.091 sec
     gradient                   ...        0 min,  0.023 sec
 * total energy  :  -216.4856323 Eh     change       -0.1845079E-03 Eh
   gradient norm :     0.0099659 Eh/α   predicted    -0.2624984E-03 (  42.27%)
   displ. norm   :     0.1518891 α      lambda       -0.3901522E-03
   maximum displ.:     0.0567368 α      in ANC's #9, #7, #11, ...

........................................................................
.............................. CYCLE   29 ..............................
........................................................................
   1   -220.1736191 -0.220174E+03  0.961E-02    0.80       0.0  T
   2   -220.1736301 -0.109648E-04  0.526E-02    0.80       1.0  T
   3   -220.1736164  0.136194E-04  0.133E-02    0.80       1.0  T
   4   -220.1736355 -0.190651E-04  0.318E-03    0.80       3.1  T
   5   -220.1736355  0.298456E-09  0.206E-03    0.80       4.8  T
   6   -220.1736359 -0.447250E-06  0.751E-04    0.80      13.1  T
     SCC iter.                  ...        0 min,  0.091 sec
     gradient                   ...        0 min,  0.023 sec
 * total energy  :  -216.4855899 Eh     change        0.4247855E-04 Eh
   gradient norm :     0.0120686 Eh/α   predicted    -0.1995796E-03 (-569.84%)
   displ. norm   :     0.1426672 α      lambda       -0.5185828E-03
   maximum displ.:     0.0617923 α      in ANC's #9, #25, #24, ...

........................................................................
.............................. CYCLE   30 ..............................
........................................................................
   1   -220.1737139 -0.220174E+03  0.983E-02    0.79       0.0  T
   2   -220.1737255 -0.115495E-04  0.539E-02    0.80       1.0  T
   3   -220.1737063  0.191779E-04  0.158E-02    0.79       1.0  T
   4   -220.1737320 -0.256550E-04  0.284E-03    0.80       3.5  T
   5   -220.1737320 -0.274701E-07  0.187E-03    0.79       5.3  T
   6   -220.1737323 -0.350215E-06  0.620E-04    0.80      15.8  T
     SCC iter.                  ...        0 min,  0.093 sec
     gradient                   ...        0 min,  0.023 sec
 * total energy  :  -216.4857593 Eh     change       -0.1694001E-03 Eh
   gradient norm :     0.0107225 Eh/α   predicted    -0.2645697E-03 (  56.18%)
   displ. norm   :     0.1590516 α      lambda       -0.3828662E-03
   maximum displ.:     0.0670557 α      in ANC's #9, #11, #7, ...

........................................................................
.............................. CYCLE   31 ..............................
........................................................................
   1   -220.1763209 -0.220176E+03  0.969E-02    0.79       0.0  T
   2   -220.1763317 -0.108193E-04  0.524E-02    0.79       1.0  T
   3   -220.1763178  0.139120E-04  0.135E-02    0.79       1.0  T
   4   -220.1763366 -0.187614E-04  0.391E-03    0.79       2.5  T
   5   -220.1763368 -0.254083E-06  0.233E-03    0.79       4.2  T
   6   -220.1763373 -0.500948E-06  0.622E-04    0.79      15.8  T
     SCC iter.                  ...        0 min,  0.092 sec
     gradient                   ...        0 min,  0.023 sec
 * total energy  :  -216.4858433 Eh     change       -0.8403387E-04 Eh
   gradient norm :     0.0082956 Eh/α   predicted    -0.1962793E-03 ( 133.57%)
   displ. norm   :     0.1506447 α      lambda       -0.2316049E-03
   maximum displ.:     0.0772758 α      in ANC's #9, #7, #11, ...

........................................................................
.............................. CYCLE   32 ..............................
........................................................................
   1   -220.1770045 -0.220177E+03  0.640E-02    0.79       0.0  T
   2   -220.1770094 -0.487370E-05  0.342E-02    0.79       1.0  T
   3   -220.1769982  0.112037E-04  0.115E-02    0.79       1.0  T
   4   -220.1770119 -0.137649E-04  0.310E-03    0.79       3.2  T
   5   -220.1770120 -0.122277E-06  0.170E-03    0.79       5.8  T
   6   -220.1770123 -0.286752E-06  0.495E-04    0.79      19.8  T
     SCC iter.                  ...        0 min,  0.093 sec
     gradient                   ...        0 min,  0.023 sec
 * total energy  :  -216.4859896 Eh     change       -0.1462798E-03 Eh
   gradient norm :     0.0062136 Eh/α   predicted    -0.1184329E-03 ( -19.04%)
   displ. norm   :     0.2795307 α      lambda       -0.2021798E-03
   maximum displ.:     0.1537044 α      in ANC's #9, #7, #11, ...

........................................................................
.............................. CYCLE   33 ..............................
........................................................................
   1   -220.1745447 -0.220175E+03  0.891E-02    0.79       0.0  T
   2   -220.1745526 -0.796388E-05  0.460E-02    0.79       1.0  T
   3   -220.1745487  0.391159E-05  0.999E-03    0.79       1.0  T
   4   -220.1745537 -0.502533E-05  0.568E-03    0.79       1.7  T
   5   -220.1745550 -0.130531E-05  0.201E-03    0.79       4.9  T
   6   -220.1745556 -0.537288E-06  0.538E-04    0.79      18.2  T
     SCC iter.                  ...        0 min,  0.091 sec
     gradient                   ...        0 min,  0.023 sec
 * total energy  :  -216.4861180 Eh     change       -0.1284470E-03 Eh
   gradient norm :     0.0074027 Eh/α   predicted    -0.1089958E-03 ( -15.14%)
   displ. norm   :     0.3952658 α      lambda       -0.2231680E-03
   maximum displ.:     0.2150346 α      in ANC's #9, #7, #11, ...

........................................................................
.............................. CYCLE   34 ..............................
........................................................................
   1   -220.1725468 -0.220173E+03  0.131E-01    0.78       0.0  T
   2   -220.1725634 -0.166398E-04  0.674E-02    0.79       1.0  T
   3   -220.1725572  0.615428E-05  0.136E-02    0.78       1.0  T
   4   -220.1725653 -0.804168E-05  0.821E-03    0.79       1.2  T
   5   -220.1725688 -0.346721E-05  0.283E-03    0.78       3.5  T
   6   -220.1725697 -0.935772E-06  0.659E-04    0.79      14.9  T
   7   -220.1725697 -0.175834E-07  0.431E-04    0.79      22.7  T
     SCC iter.                  ...        0 min,  0.106 sec
     gradient                   ...        0 min,  0.023 sec
 * total energy  :  -216.4862358 Eh     change       -0.1177732E-03 Eh
   gradient norm :     0.0095460 Eh/α   predicted    -0.1290250E-03 (   9.55%)
   displ. norm   :     0.4780426 α      lambda       -0.3646715E-03
   maximum displ.:     0.2568064 α      in ANC's #9, #7, #11, ...

........................................................................
.............................. CYCLE   35 ..............................
........................................................................
   1   -220.1737652 -0.220174E+03  0.151E-01    0.78       0.0  T
   2   -220.1737866 -0.213869E-04  0.771E-02    0.78       1.0  T
   3   -220.1737857  0.915409E-06  0.135E-02    0.78       1.0  T
   4   -220.1737846  0.113010E-05  0.101E-02    0.78       1.0  T
   5   -220.1737926 -0.801226E-05  0.280E-03    0.78       3.5  T
   6   -220.1737936 -0.952426E-06  0.712E-04    0.78      13.8  T
   7   -220.1737936 -0.216013E-07  0.461E-04    0.78      21.3  T
     SCC iter.                  ...        0 min,  0.102 sec
     gradient                   ...        0 min,  0.023 sec
 * total energy  :  -216.4865076 Eh     change       -0.2717932E-03 Eh
   gradient norm :     0.0045895 Eh/α   predicted    -0.2240067E-03 ( -17.58%)
   displ. norm   :     0.5781094 α      lambda       -0.3072229E-03
   maximum displ.:     0.3110096 α      in ANC's #9, #7, #11, ...

........................................................................
.............................. CYCLE   36 ..............................
........................................................................
   1   -220.1767306 -0.220177E+03  0.176E-01    0.78       0.0  T
   2   -220.1767592 -0.285513E-04  0.897E-02    0.78       1.0  T
   3   -220.1767581  0.106746E-05  0.156E-02    0.78       1.0  T
   4   -220.1767549  0.321745E-05  0.119E-02    0.78       1.0  T
   5   -220.1767668 -0.119046E-04  0.333E-03    0.78       2.9  T
   6   -220.1767682 -0.140946E-05  0.866E-04    0.78      11.3  T
   7   -220.1767682 -0.472336E-07  0.510E-04    0.78      19.2  T
     SCC iter.                  ...        0 min,  0.106 sec
     gradient                   ...        0 min,  0.023 sec
 * total energy  :  -216.4867345 Eh     change       -0.2269219E-03 Eh
   gradient norm :     0.0068105 Eh/α   predicted    -0.2049489E-03 (  -9.68%)
   displ. norm   :     0.6457901 α      lambda       -0.3272448E-03
   maximum displ.:     0.3457294 α      in ANC's #9, #7, #11, ...

........................................................................
.............................. CYCLE   37 ..............................
........................................................................
   1   -220.1744854 -0.220174E+03  0.200E-01    0.77       0.0  T
   2   -220.1745228 -0.373885E-04  0.102E-01    0.77       1.0  T
   3   -220.1745194  0.344256E-05  0.182E-02    0.77       1.0  T
   4   -220.1745226 -0.323042E-05  0.127E-02    0.77       1.0  T
   5   -220.1745341 -0.114934E-04  0.346E-03    0.77       2.8  T
   6   -220.1745355 -0.139992E-05  0.906E-04    0.77      10.8  T
   7   -220.1745355 -0.368662E-07  0.539E-04    0.77      18.2  T
     SCC iter.                  ...        0 min,  0.104 sec
     gradient                   ...        0 min,  0.023 sec
 * total energy  :  -216.4869434 Eh     change       -0.2088831E-03 Eh
   gradient norm :     0.0098896 Eh/α   predicted    -0.2318619E-03 (  11.00%)
   displ. norm   :     0.5343197 α      lambda       -0.2974891E-03
   maximum displ.:     0.2805801 α      in ANC's #9, #7, #2, ...

........................................................................
.............................. CYCLE   38 ..............................
........................................................................
   1   -220.1752010 -0.220175E+03  0.160E-01    0.77       0.0  T
   2   -220.1752240 -0.229058E-04  0.816E-02    0.77       1.0  T
   3   -220.1752217  0.221513E-05  0.143E-02    0.77       1.0  T
   4   -220.1752188  0.292417E-05  0.112E-02    0.77       1.0  T
   5   -220.1752302 -0.114211E-04  0.300E-03    0.77       3.3  T
   6   -220.1752314 -0.111930E-05  0.789E-04    0.77      12.4  T
   7   -220.1752314 -0.431199E-07  0.439E-04    0.77      22.3  T
     SCC iter.                  ...        0 min,  0.105 sec
     gradient                   ...        0 min,  0.023 sec
 * total energy  :  -216.4871874 Eh     change       -0.2440062E-03 Eh
   gradient norm :     0.0058625 Eh/α   predicted    -0.1912129E-03 ( -21.64%)
   displ. norm   :     0.6195868 α      lambda       -0.3317459E-03
   maximum displ.:     0.3145520 α      in ANC's #9, #7, #2, ...

........................................................................
.............................. CYCLE   39 ..............................
........................................................................
   1   -220.1775715 -0.220178E+03  0.190E-01    0.77       0.0  T
   2   -220.1776038 -0.322771E-04  0.970E-02    0.77       1.0  T
   3   -220.1775963  0.748902E-05  0.182E-02    0.77       1.0  T
   4   -220.1776034 -0.714812E-05  0.124E-02    0.77       1.0  T
   5   -220.1776137 -0.103046E-04  0.342E-03    0.77       2.9  T
   6   -220.1776151 -0.141168E-05  0.904E-04    0.77      10.8  T
   7   -220.1776152 -0.449031E-07  0.555E-04    0.77      17.7  T
     SCC iter.                  ...        0 min,  0.107 sec
     gradient                   ...        0 min,  0.023 sec
 * total energy  :  -216.4874346 Eh     change       -0.2472394E-03 Eh
   gradient norm :     0.0053346 Eh/α   predicted    -0.2295523E-03 (  -7.15%)
   displ. norm   :     0.7656189 α      lambda       -0.2633626E-03
   maximum displ.:     0.3996909 α      in ANC's #9, #7, #2, ...

........................................................................
.............................. CYCLE   40 ..............................
........................................................................
   1   -220.1707959 -0.220171E+03  0.237E-01    0.76       0.0  T
   2   -220.1708450 -0.490955E-04  0.120E-01    0.77       1.0  T
   3   -220.1708461 -0.110324E-05  0.202E-02    0.77       1.0  T
   4   -220.1708421  0.400707E-05  0.143E-02    0.77       1.0  T
   5   -220.1708587 -0.165903E-04  0.387E-03    0.77       2.5  T
   6   -220.1708603 -0.162427E-05  0.976E-04    0.77      10.0  T
   7   -220.1708603 -0.349593E-07  0.619E-04    0.77      15.8  T
     SCC iter.                  ...        0 min,  0.109 sec
     gradient                   ...        0 min,  0.023 sec
 * total energy  :  -216.4876275 Eh     change       -0.1928590E-03 Eh
   gradient norm :     0.0046555 Eh/α   predicted    -0.2088621E-03 (   8.30%)
   displ. norm   :     0.5438999 α      lambda       -0.2352230E-03
   maximum displ.:     0.2479052 α      in ANC's #9, #2, #7, ...

........................................................................
.............................. CYCLE   41 ..............................
........................................................................
   1   -220.1732000 -0.220173E+03  0.164E-01    0.76       0.0  T
   2   -220.1732228 -0.227562E-04  0.840E-02    0.77       1.0  T
   3   -220.1732192  0.360959E-05  0.154E-02    0.77       1.0  T
   4   -220.1732222 -0.307644E-05  0.106E-02    0.77       1.0  T
   5   -220.1732297 -0.744948E-05  0.260E-03    0.77       3.8  T
   6   -220.1732305 -0.768556E-06  0.762E-04    0.77      12.9  T
   7   -220.1732305 -0.317258E-07  0.468E-04    0.77      21.0  T
     SCC iter.                  ...        0 min,  0.106 sec
     gradient                   ...        0 min,  0.023 sec
 * total energy  :  -216.4877676 Eh     change       -0.1400750E-03 Eh
   gradient norm :     0.0084389 Eh/α   predicted    -0.1524100E-03 (   8.81%)
   displ. norm   :     0.5850347 α      lambda       -0.1845441E-03
   maximum displ.:     0.2928870 α      in ANC's #9, #7, #2, ...

........................................................................
.............................. CYCLE   42 ..............................
........................................................................
   1   -220.1690815 -0.220169E+03  0.184E-01    0.76       0.0  T
   2   -220.1691104 -0.289702E-04  0.936E-02    0.76       1.0  T
   3   -220.1691054  0.503585E-05  0.173E-02    0.76       1.0  T
   4   -220.1691109 -0.553569E-05  0.116E-02    0.76       1.0  T
   5   -220.1691192 -0.821475E-05  0.313E-03    0.76       3.1  T
   6   -220.1691204 -0.121996E-05  0.863E-04    0.76      11.4  T
   7   -220.1691204 -0.403049E-07  0.534E-04    0.76      18.4  T
     SCC iter.                  ...        0 min,  0.100 sec
     gradient                   ...        0 min,  0.023 sec
 * total energy  :  -216.4878950 Eh     change       -0.1274124E-03 Eh
   gradient norm :     0.0060091 Eh/α   predicted    -0.1238579E-03 (  -2.79%)
   displ. norm   :     0.3805009 α      lambda       -0.1368700E-03
   maximum displ.:     0.1781482 α      in ANC's #2, #9, #7, ...
 * RMSD in coord.:     0.6563523 α      energy gain  -0.3172175E-02 Eh

generating ANC from model Hessian ...
Using Lindh-Hessian (1995)
 Shifting diagonal of input Hessian by   5.006113920005852E-003
 Lowest  eigenvalues of input Hessian
    0.005000   -0.000000   -0.000000   -0.000000   -0.000000   -0.000000
    0.000000    0.005013    0.005051    0.005066    0.005142    0.005150
    0.005163    0.005348    0.005413    0.005434    0.005663    0.005765
 Highest eigenvalues
    2.600472    2.601627    2.654493    2.654843    2.663952    2.669014
 

........................................................................
.............................. CYCLE   43 ..............................
........................................................................
   1   -220.1723581 -0.220172E+03  0.122E-01    0.76       0.0  T
   2   -220.1723705 -0.123719E-04  0.619E-02    0.76       1.0  T
   3   -220.1723651  0.541537E-05  0.121E-02    0.76       1.0  T
   4   -220.1723689 -0.382381E-05  0.846E-03    0.76       1.2  T
   5   -220.1723743 -0.540000E-05  0.224E-03    0.76       4.4  T
   6   -220.1723749 -0.624443E-06  0.635E-04    0.76      15.4  T
   7   -220.1723749 -0.252205E-07  0.385E-04    0.76      25.4  T
     SCC iter.                  ...        0 min,  0.108 sec
     gradient                   ...        0 min,  0.025 sec
 * total energy  :  -216.4880006 Eh     change       -0.1056536E-03 Eh
   gradient norm :     0.0051065 Eh/α   predicted     0.0000000E+00 (-100.00%)
   displ. norm   :     0.0852875 α      lambda       -0.8822313E-04
   maximum displ.:     0.0417191 α      in ANC's #25, #1, #6, ...

........................................................................
.............................. CYCLE   44 ..............................
........................................................................
   1   -220.1740455 -0.220174E+03  0.508E-02    0.76       0.0  T
   2   -220.1740482 -0.272031E-05  0.275E-02    0.76       1.0  T
   3   -220.1740416  0.655822E-05  0.805E-03    0.76       1.2  T
   4   -220.1740493 -0.770576E-05  0.250E-03    0.76       3.9  T
   5   -220.1740497 -0.337547E-06  0.127E-03    0.76       7.7  T
   6   -220.1740498 -0.128271E-06  0.524E-04    0.76      18.7  T
     SCC iter.                  ...        0 min,  0.091 sec
     gradient                   ...        0 min,  0.023 sec
 * total energy  :  -216.4880284 Eh     change       -0.2779026E-04 Eh
   gradient norm :     0.0037535 Eh/α   predicted    -0.4445008E-04 (  59.95%)
   displ. norm   :     0.0901121 α      lambda       -0.1172110E-03
   maximum displ.:     0.0321360 α      in ANC's #35, #13, #1, ...

........................................................................
.............................. CYCLE   45 ..............................
........................................................................
   1   -220.1769489 -0.220177E+03  0.543E-02    0.76       0.0  T
   2   -220.1769524 -0.348981E-05  0.289E-02    0.76       1.0  T
   3   -220.1769495  0.284203E-05  0.709E-03    0.76       1.4  T
   4   -220.1769535 -0.394235E-05  0.290E-03    0.76       3.4  T
   5   -220.1769538 -0.308221E-06  0.138E-03    0.76       7.1  T
   6   -220.1769539 -0.146555E-06  0.501E-04    0.76      19.6  T
   7   -220.1769539 -0.245347E-07  0.236E-04    0.76      41.5  T
     SCC iter.                  ...        0 min,  0.103 sec
     gradient                   ...        0 min,  0.024 sec
 * total energy  :  -216.4880505 Eh     change       -0.2209280E-04 Eh
   gradient norm :     0.0063276 Eh/α   predicted    -0.5908538E-04 ( 167.44%)
   displ. norm   :     0.0661403 α      lambda       -0.1035842E-03
   maximum displ.:     0.0192943 α      in ANC's #1, #33, #40, ...

........................................................................
.............................. CYCLE   46 ..............................
........................................................................
   1   -220.1775481 -0.220178E+03  0.470E-02    0.76       0.0  T
   2   -220.1775503 -0.225167E-05  0.257E-02    0.76       1.0  T
   3   -220.1775412  0.916158E-05  0.985E-03    0.76       1.0  T
   4   -220.1775521 -0.109307E-04  0.155E-03    0.76       6.3  T
   5   -220.1775521  0.313365E-07  0.109E-03    0.76       9.0  T
   6   -220.1775522 -0.124444E-06  0.382E-04    0.76      25.6  T
     SCC iter.                  ...        0 min,  0.090 sec
     gradient                   ...        0 min,  0.023 sec
 * total energy  :  -216.4880703 Eh     change       -0.1979540E-04 Eh
   gradient norm :     0.0033533 Eh/α   predicted    -0.5202328E-04 ( 162.80%)
   displ. norm   :     0.0559039 α      lambda       -0.9257538E-04
   maximum displ.:     0.0208595 α      in ANC's #26, #38, #1, ...

........................................................................
.............................. CYCLE   47 ..............................
........................................................................
   1   -220.1762407 -0.220176E+03  0.394E-02    0.76       0.0  T
   2   -220.1762425 -0.179483E-05  0.217E-02    0.76       1.0  T
   3   -220.1762389  0.360668E-05  0.628E-03    0.76       1.6  T
   4   -220.1762435 -0.452524E-05  0.143E-03    0.76       6.8  T
   5   -220.1762436 -0.104483E-06  0.806E-04    0.76      12.2  T
   6   -220.1762436 -0.332307E-07  0.369E-04    0.76      26.6  T
     SCC iter.                  ...        0 min,  0.090 sec
     gradient                   ...        0 min,  0.024 sec
 * total energy  :  -216.4880987 Eh     change       -0.2840422E-04 Eh
   gradient norm :     0.0038999 Eh/α   predicted    -0.4643289E-04 (  63.47%)
   displ. norm   :     0.0818702 α      lambda       -0.8196471E-04
   maximum displ.:     0.0269198 α      in ANC's #34, #1, #6, ...

........................................................................
.............................. CYCLE   48 ..............................
........................................................................
   1   -220.1746848 -0.220175E+03  0.542E-02    0.76       0.0  T
   2   -220.1746880 -0.314204E-05  0.298E-02    0.76       1.0  T
   3   -220.1746778  0.101857E-04  0.107E-02    0.76       1.0  T
   4   -220.1746901 -0.123022E-04  0.171E-03    0.76       5.7  T
   5   -220.1746902 -0.105408E-06  0.114E-03    0.76       8.6  T
   6   -220.1746903 -0.117606E-06  0.513E-04    0.76      19.1  T
   7   -220.1746903 -0.283946E-07  0.191E-04    0.76      51.3  T
     SCC iter.                  ...        0 min,  0.107 sec
     gradient                   ...        0 min,  0.024 sec
 * total energy  :  -216.4880925 Eh     change        0.6265246E-05 Eh
   gradient norm :     0.0036008 Eh/α   predicted    -0.4126033E-04 (-758.56%)
   displ. norm   :     0.0666018 α      lambda       -0.9793119E-04
   maximum displ.:     0.0239737 α      in ANC's #1, #6, #13, ...

........................................................................
.............................. CYCLE   49 ..............................
........................................................................
   1   -220.1757347 -0.220176E+03  0.410E-02    0.76       0.0  T
   2   -220.1757366 -0.185039E-05  0.224E-02    0.76       1.0  T
   3   -220.1757333  0.324165E-05  0.650E-03    0.76       1.5  T
   4   -220.1757376 -0.423340E-05  0.148E-03    0.76       6.6  T
   5   -220.1757376 -0.416852E-07  0.824E-04    0.76      11.9  T
   6   -220.1757377 -0.597316E-07  0.315E-04    0.76      31.1  T
     SCC iter.                  ...        0 min,  0.090 sec
     gradient                   ...        0 min,  0.024 sec
 * total energy  :  -216.4881367 Eh     change       -0.4423946E-04 Eh
   gradient norm :     0.0023375 Eh/α   predicted    -0.4918704E-04 (  11.18%)
   displ. norm   :     0.0935944 α      lambda       -0.7705040E-04
   maximum displ.:     0.0377543 α      in ANC's #1, #6, #5, ...

........................................................................
.............................. CYCLE   50 ..............................
........................................................................
   1   -220.1771160 -0.220177E+03  0.513E-02    0.76       0.0  T
   2   -220.1771186 -0.262143E-05  0.282E-02    0.76       1.0  T
   3   -220.1771086  0.100084E-04  0.104E-02    0.76       1.0  T
   4   -220.1771205 -0.118701E-04  0.197E-03    0.76       5.0  T
   5   -220.1771205 -0.286386E-08  0.136E-03    0.76       7.2  T
   6   -220.1771206 -0.188350E-06  0.491E-04    0.76      20.0  T
   7   -220.1771207 -0.255142E-07  0.215E-04    0.76      45.5  T
     SCC iter.                  ...        0 min,  0.103 sec
     gradient                   ...        0 min,  0.024 sec
 * total energy  :  -216.4881192 Eh     change        0.1751064E-04 Eh
   gradient norm :     0.0040751 Eh/α   predicted    -0.3886338E-04 (-321.94%)
   displ. norm   :     0.0501197 α      lambda       -0.9245073E-04
   maximum displ.:     0.0187124 α      in ANC's #1, #6, #5, ...

........................................................................
.............................. CYCLE   51 ..............................
........................................................................
   1   -220.1762732 -0.220176E+03  0.302E-02    0.76       0.0  T
   2   -220.1762741 -0.974369E-06  0.167E-02    0.76       1.0  T
   3   -220.1762704  0.374414E-05  0.625E-03    0.76       1.6  T
   4   -220.1762748 -0.441180E-05  0.117E-03    0.76       8.4  T
   5   -220.1762748 -0.376766E-07  0.741E-04    0.76      13.2  T
   6   -220.1762749 -0.429027E-07  0.339E-04    0.76      28.9  T
     SCC iter.                  ...        0 min,  0.091 sec
     gradient                   ...        0 min,  0.023 sec
 * total energy  :  -216.4881750 Eh     change       -0.5578701E-04 Eh
   gradient norm :     0.0012483 Eh/α   predicted    -0.4634620E-04 ( -16.92%)
   displ. norm   :     0.1463506 α      lambda       -0.2761919E-04
   maximum displ.:     0.0711147 α      in ANC's #1, #6, #5, ...

........................................................................
.............................. CYCLE   52 ..............................
........................................................................
   1   -220.1754904 -0.220175E+03  0.438E-02    0.76       0.0  T
   2   -220.1754917 -0.132033E-05  0.238E-02    0.76       1.0  T
   3   -220.1754907  0.108554E-05  0.465E-03    0.76       2.1  T
   4   -220.1754918 -0.113346E-05  0.274E-03    0.76       3.6  T
   5   -220.1754922 -0.427018E-06  0.939E-04    0.76      10.4  T
   6   -220.1754923 -0.121079E-06  0.287E-04    0.76      34.2  T
     SCC iter.                  ...        0 min,  0.090 sec
     gradient                   ...        0 min,  0.024 sec
 * total energy  :  -216.4882038 Eh     change       -0.2880267E-04 Eh
   gradient norm :     0.0015864 Eh/α   predicted    -0.1394332E-04 ( -51.59%)
   displ. norm   :     0.3246772 α      lambda       -0.5223915E-04
   maximum displ.:     0.1563298 α      in ANC's #1, #6, #5, ...

........................................................................
.............................. CYCLE   53 ..............................
........................................................................
   1   -220.1740106 -0.220174E+03  0.961E-02    0.76       0.0  T
   2   -220.1740166 -0.604674E-05  0.522E-02    0.76       1.0  T
   3   -220.1740087  0.797358E-05  0.114E-02    0.76       1.0  T
   4   -220.1740177 -0.899868E-05  0.582E-03    0.76       1.7  T
   5   -220.1740193 -0.164323E-05  0.182E-03    0.76       5.4  T
   6   -220.1740197 -0.370776E-06  0.521E-04    0.76      18.8  T
   7   -220.1740197 -0.329607E-08  0.359E-04    0.76      27.3  T
     SCC iter.                  ...        0 min,  0.107 sec
     gradient                   ...        0 min,  0.024 sec
 * total energy  :  -216.4882357 Eh     change       -0.3189177E-04 Eh
   gradient norm :     0.0034418 Eh/α   predicted    -0.2734378E-04 ( -14.26%)
   displ. norm   :     0.2468463 α      lambda       -0.8098363E-04
   maximum displ.:     0.1206933 α      in ANC's #1, #6, #5, ...

........................................................................
.............................. CYCLE   54 ..............................
........................................................................
   1   -220.1746640 -0.220175E+03  0.670E-02    0.76       0.0  T
   2   -220.1746667 -0.267036E-05  0.363E-02    0.76       1.0  T
   3   -220.1746658  0.847775E-06  0.631E-03    0.76       1.6  T
   4   -220.1746661 -0.261438E-06  0.444E-03    0.76       2.2  T
   5   -220.1746674 -0.134896E-05  0.134E-03    0.76       7.3  T
   6   -220.1746677 -0.261903E-06  0.370E-04    0.76      26.5  T
   7   -220.1746677 -0.599550E-08  0.220E-04    0.76      44.6  T
     SCC iter.                  ...        0 min,  0.106 sec
     gradient                   ...        0 min,  0.024 sec
 * total energy  :  -216.4882974 Eh     change       -0.6171182E-04 Eh
   gradient norm :     0.0025834 Eh/α   predicted    -0.4296038E-04 ( -30.39%)
   displ. norm   :     0.3987515 α      lambda       -0.1248182E-03
   maximum displ.:     0.1988329 α      in ANC's #1, #6, #5, ...

........................................................................
.............................. CYCLE   55 ..............................
........................................................................
   1   -220.1743894 -0.220174E+03  0.121E-01    0.76       0.0  T
   2   -220.1744004 -0.110625E-04  0.657E-02    0.76       1.0  T
   3   -220.1743904  0.100819E-04  0.145E-02    0.76       1.0  T
   4   -220.1744043 -0.139309E-04  0.625E-03    0.76       1.6  T
   5   -220.1744047 -0.441335E-06  0.283E-03    0.76       3.5  T
   6   -220.1744059 -0.112147E-05  0.875E-04    0.76      11.2  T
   7   -220.1744059 -0.562158E-07  0.473E-04    0.76      20.7  T
   8   -220.1744059 -0.570606E-08  0.272E-04    0.76      36.0  T
     SCC iter.                  ...        0 min,  0.116 sec
     gradient                   ...        0 min,  0.024 sec
 * total energy  :  -216.4882919 Eh     change        0.5471352E-05 Eh
   gradient norm :     0.0063109 Eh/α   predicted    -0.7233482E-04 (*******%)
   displ. norm   :     0.1803836 α      lambda       -0.1806084E-03
   maximum displ.:     0.0899488 α      in ANC's #1, #6, #5, ...

........................................................................
.............................. CYCLE   56 ..............................
........................................................................
   1   -220.1760580 -0.220176E+03  0.566E-02    0.76       0.0  T
   2   -220.1760606 -0.255155E-05  0.309E-02    0.76       1.0  T
   3   -220.1760576  0.292868E-05  0.712E-03    0.76       1.4  T
   4   -220.1760615 -0.390058E-05  0.281E-03    0.76       3.5  T
   5   -220.1760617 -0.123378E-06  0.127E-03    0.76       7.7  T
   6   -220.1760619 -0.197020E-06  0.452E-04    0.76      21.7  T
     SCC iter.                  ...        0 min,  0.094 sec
     gradient                   ...        0 min,  0.023 sec
 * total energy  :  -216.4883923 Eh     change       -0.1003808E-03 Eh
   gradient norm :     0.0031333 Eh/α   predicted    -0.9324643E-04 (  -7.11%)
   displ. norm   :     0.2123743 α      lambda       -0.6211154E-04
   maximum displ.:     0.1111500 α      in ANC's #1, #6, #5, ...

........................................................................
.............................. CYCLE   57 ..............................
........................................................................
   1   -220.1761245 -0.220176E+03  0.586E-02    0.76       0.0  T
   2   -220.1761269 -0.239350E-05  0.317E-02    0.76       1.0  T
   3   -220.1761263  0.667368E-06  0.542E-03    0.76       1.8  T
   4   -220.1761268 -0.482957E-06  0.371E-03    0.76       2.6  T
   5   -220.1761277 -0.982356E-06  0.113E-03    0.76       8.7  T
   6   -220.1761279 -0.157787E-06  0.349E-04    0.76      28.1  T
   7   -220.1761279 -0.444209E-08  0.232E-04    0.76      42.2  T
     SCC iter.                  ...        0 min,  0.103 sec
     gradient                   ...        0 min,  0.024 sec
 * total energy  :  -216.4884318 Eh     change       -0.3951528E-04 Eh
   gradient norm :     0.0032073 Eh/α   predicted    -0.3245980E-04 ( -17.86%)
   displ. norm   :     0.3299862 α      lambda       -0.9942128E-04
   maximum displ.:     0.1752623 α      in ANC's #1, #6, #5, ...

........................................................................
.............................. CYCLE   58 ..............................
........................................................................
   1   -220.1765142 -0.220177E+03  0.863E-02    0.76       0.0  T
   2   -220.1765187 -0.453809E-05  0.465E-02    0.76       1.0  T
   3   -220.1765113  0.745560E-05  0.109E-02    0.76       1.0  T
   4   -220.1765192 -0.793585E-05  0.571E-03    0.76       1.7  T
   5   -220.1765208 -0.157890E-05  0.163E-03    0.76       6.0  T
   6   -220.1765211 -0.276461E-06  0.471E-04    0.76      20.8  T
   7   -220.1765211 -0.505935E-08  0.309E-04    0.76      31.8  T
     SCC iter.                  ...        0 min,  0.105 sec
     gradient                   ...        0 min,  0.024 sec
 * total energy  :  -216.4885011 Eh     change       -0.6927587E-04 Eh
   gradient norm :     0.0036092 Eh/α   predicted    -0.5512467E-04 ( -20.43%)
   displ. norm   :     0.4018378 α      lambda       -0.8388822E-04
   maximum displ.:     0.2152326 α      in ANC's #1, #6, #5, ...

........................................................................
.............................. CYCLE   59 ..............................
........................................................................
   1   -220.1751645 -0.220175E+03  0.104E-01    0.76       0.0  T
   2   -220.1751712 -0.676189E-05  0.560E-02    0.76       1.0  T
   3   -220.1751672  0.404545E-05  0.106E-02    0.76       1.0  T
   4   -220.1751706 -0.341201E-05  0.683E-03    0.76       1.4  T
   5   -220.1751737 -0.312826E-05  0.186E-03    0.76       5.3  T
   6   -220.1751741 -0.345342E-06  0.565E-04    0.76      17.3  T
   7   -220.1751741 -0.510150E-08  0.386E-04    0.76      25.4  T
     SCC iter.                  ...        0 min,  0.106 sec
     gradient                   ...        0 min,  0.024 sec
 * total energy  :  -216.4885671 Eh     change       -0.6600511E-04 Eh
   gradient norm :     0.0016806 Eh/α   predicted    -0.4872285E-04 ( -26.18%)
   displ. norm   :     0.5731787 α      lambda       -0.5812798E-04
   maximum displ.:     0.3140511 α      in ANC's #1, #6, #5, ...

........................................................................
.............................. CYCLE   60 ..............................
........................................................................
   1   -220.1741619 -0.220174E+03  0.146E-01    0.76       0.0  T
   2   -220.1741753 -0.134007E-04  0.785E-02    0.76       1.0  T
   3   -220.1741676  0.770633E-05  0.149E-02    0.76       1.0  T
   4   -220.1741738 -0.619188E-05  0.971E-03    0.76       1.0  T
   5   -220.1741801 -0.623259E-05  0.269E-03    0.76       3.6  T
   6   -220.1741809 -0.823854E-06  0.833E-04    0.76      11.8  T
   7   -220.1741809 -0.216320E-07  0.569E-04    0.76      17.2  T
     SCC iter.                  ...        0 min,  0.103 sec
     gradient                   ...        0 min,  0.025 sec
 * total energy  :  -216.4886276 Eh     change       -0.6048347E-04 Eh
   gradient norm :     0.0023631 Eh/α   predicted    -0.3331073E-04 ( -44.93%)
   displ. norm   :     0.3823617 α      lambda        0.1003560E-04
   maximum displ.:     0.2098076 α      in ANC's #1, #6, #5, ...

........................................................................
.............................. CYCLE   61 ..............................
........................................................................
   1   -220.1720600 -0.220172E+03  0.975E-02    0.76       0.0  T
   2   -220.1720660 -0.596579E-05  0.525E-02    0.76       1.0  T
   3   -220.1720619  0.408640E-05  0.103E-02    0.76       1.0  T
   4   -220.1720657 -0.375203E-05  0.645E-03    0.76       1.5  T
   5   -220.1720682 -0.252226E-05  0.179E-03    0.76       5.5  T
   6   -220.1720685 -0.348493E-06  0.539E-04    0.76      18.2  T
   7   -220.1720685 -0.669183E-08  0.367E-04    0.76      26.7  T
     SCC iter.                  ...        0 min,  0.107 sec
     gradient                   ...        0 min,  0.024 sec
 * total energy  :  -216.4886353 Eh     change       -0.7718608E-05 Eh
   gradient norm :     0.0044038 Eh/α   predicted     0.5750445E-05 (-174.50%)
   displ. norm   :     0.0791843 α      lambda       -0.3919616E-04
   maximum displ.:     0.0475023 α      in ANC's #1, #5, #6, ...

........................................................................
.............................. CYCLE   62 ..............................
........................................................................
   1   -220.1752868 -0.220175E+03  0.219E-02    0.76       0.0  T
   2   -220.1752872 -0.439042E-06  0.117E-02    0.76       1.0  T
   3   -220.1752866  0.623725E-06  0.315E-03    0.76       3.1  T
   4   -220.1752874 -0.778329E-06  0.127E-03    0.76       7.7  T
   5   -220.1752874 -0.320998E-07  0.569E-04    0.76      17.2  T
     SCC iter.                  ...        0 min,  0.073 sec
[...]
    24   6 C      3.250    -0.015    27.332     8.462
    25   6 C      3.082     0.022    27.434     8.587
    26  16 S      2.268     0.060   138.645    19.818
    27   6 C      3.085     0.016    27.556     8.605
    28   6 C      3.249    -0.014    27.315     8.462
    29   6 C      3.043     0.040    27.072     8.534
    30   6 C      2.946     0.026    27.422     8.589
    31   6 C      1.918     0.126    27.997     8.545
    32   7 N      0.911    -0.208    25.517     7.306
    33   6 C      1.921     0.129    27.948     8.538
    34   7 N      0.911    -0.217    25.741     7.338
    35   6 C      3.054    -0.043    29.001     8.832
    36   6 C      2.999     0.026    27.411     8.588
    37  16 S      2.465     0.028   139.899    19.907
    38   6 C      3.000    -0.004    28.121     8.699
    39   6 C      2.996     0.007    27.863     8.659
    40   6 C      3.236     0.066    25.690     8.223
    41   7 N      2.081    -0.198    25.971     7.560
    42   6 C      2.976     0.084    26.135     8.386
    43  16 S      2.447    -0.013   141.589    20.027
    44   6 C      3.010    -0.004    28.109     8.697
    45   6 C      2.998     0.007    27.858     8.658
    46   6 C      3.214     0.068    25.830     8.269
    47   7 N      1.947    -0.215    26.495     7.633
    48   6 C      2.972     0.087    26.063     8.374
    49  16 S      2.231    -0.011   141.514    20.022
    50   6 C      3.003     0.023    27.475     8.598
    51   6 C      3.052    -0.043    29.023     8.835
    52   6 C      3.247    -0.016    27.395     8.477
    53   6 C      3.083     0.008    27.744     8.635
    54  16 S      2.389     0.063   138.507    19.808
    55   6 C      3.085     0.023    27.400     8.581
    56   6 C      3.251    -0.015    27.307     8.457
    57   6 C      3.042     0.040    27.068     8.533
    58   6 C      2.946     0.024    27.468     8.596
    59   6 C      1.920     0.128    27.955     8.539
    60   7 N      0.911    -0.219    25.774     7.342
    61   6 C      1.918     0.126    27.997     8.545
    62   7 N      0.911    -0.213    25.641     7.324
    63   6 C      3.050    -0.030    28.689     8.785
    64   6 C      2.995     0.023    27.480     8.599
    65  16 S      2.270     0.062   138.548    19.811
    66   6 C      2.941    -0.015    28.392     8.739
    67   6 C      3.008    -0.030    28.734     8.793
    68   6 C      2.870     0.227    23.251     7.904
    69   8 O      0.856    -0.361    20.920     6.132
    70   6 C      3.032    -0.020    28.480     8.753
    71   6 C      2.913    -0.016    28.421     8.742
    72   6 C      2.987     0.014    27.691     8.632
    73   6 C      2.991     0.022    27.505     8.603
    74   6 C      2.917    -0.052    29.299     8.876
    75   6 C      2.782     0.177    24.198     8.057
    76   6 C      2.913    -0.042    29.052     8.838
    77   6 C      2.922    -0.029    28.732     8.790
    78   9 F      0.787    -0.213    11.375     3.984
    79   6 C      2.914    -0.030    28.740     8.791
    80   6 C      3.030     0.007    27.840     8.655
    81   6 C      3.014     0.032    27.260     8.564
    82   6 C      2.947     0.008    27.841     8.654
    83   6 C      1.932     0.125    28.031     8.550
    84   7 N      0.911    -0.241    26.281     7.414
    85   6 C      1.931     0.124    28.051     8.553
    86   7 N      0.911    -0.224    25.890     7.359
    87   1 H      0.926     0.073     2.057     2.243
    88   1 H      0.926     0.068     2.111     2.272
    89   1 H      0.926     0.057     2.233     2.337
    90   1 H      0.926     0.064     2.155     2.296
    91   1 H      0.926     0.064     2.148     2.292
    92   1 H      0.925     0.082     1.957     2.188
    93   1 H      0.926     0.059     2.208     2.324
    94   1 H      0.926     0.095     1.833     2.117
    95   1 H      0.926     0.073     2.058     2.243
    96   1 H      0.926     0.078     1.997     2.210
    97   1 H      0.926     0.072     2.062     2.246
    98   1 H      0.926     0.059     2.207     2.323
    99   1 H      0.925     0.082     1.956     2.187
   100   1 H      0.926     0.064     2.149     2.292
   101   1 H      0.926     0.073     2.058     2.243
   102   1 H      0.926     0.068     2.113     2.273
   103   1 H      0.926     0.057     2.235     2.338
   104   1 H      0.926     0.064     2.156     2.296

 Mol. C6AA /au·bohr⁶  :     259991.373604
 Mol. C8AA /au·bohr⁸  :    7600335.145983
 Mol. α(0) /au        :        821.650801


Wiberg/Mayer (AO) data.
largest (>0.10) Wiberg bond orders for each atom
          total WBO             WBO to atom ...
     1  C   3.977        C    2 1.490    C    7 1.291    H   87 0.963    C    5 0.111
     2  C   3.881        C    1 1.490    C    4 1.290    F    3 0.970
     3  F   1.100        C    2 0.970
     4  C   3.976        C    5 1.549    C    2 1.290    H   88 0.966
     5  C   3.981        C    4 1.549    C    6 1.285    H   89 0.966    C    1 0.111
     6  C   3.980        C    5 1.285    C   11 1.274    C    7 1.240
     7  C   3.984        C    1 1.291    C    8 1.271    C    6 1.240
     8  C   3.973        C    9 1.508    C    7 1.271    H   90 0.959
     9  C   3.985        C    8 1.508    C   10 1.198    C   15 1.080
    10  C   3.975        C   11 1.519    C    9 1.198    C   12 1.024
    11  C   3.980        C   10 1.519    C    6 1.274    H   91 0.963
    12  C   3.923        O   13 1.780    C   10 1.024    C   14 1.003
    13  O   2.048        C   12 1.780
    14  C   3.949        C   21 1.551    C   15 1.137    C   12 1.003
    15  C   3.976        C   16 1.485    C   14 1.137    C    9 1.080
    16  C   3.953        C   15 1.485    C   17 1.103    C   19 1.094
    17  C   3.945        N   18 2.761    C   16 1.103
    18  N   2.978        C   17 2.761
    19  C   3.947        N   20 2.774    C   16 1.094
    20  N   2.975        C   19 2.774
    21  C   3.953        C   14 1.551    C   22 1.247    H   92 0.950
    22  C   3.911        C   23 1.408    C   21 1.247    S   26 1.094
    23  C   3.973        C   22 1.408    C   24 1.363    H   93 0.954
    24  C   3.956        C   23 1.363    C   25 1.287    C   29 1.096
    25  C   3.921        C   24 1.287    S   26 1.222    C   27 1.198
    26  S   2.622        C   25 1.222    C   22 1.094
    27  C   3.909        C   28 1.303    C   25 1.198    S   37 1.187
    28  C   3.951        C   35 1.347    C   27 1.303    C   29 1.093
    29  C   3.981        C   30 1.516    C   24 1.096    C   28 1.093
    30  C   3.985        C   29 1.516    C   31 1.093    C   33 1.092
    31  C   3.949        N   32 2.788    C   30 1.093
    32  N   2.980        C   31 2.788
    33  C   3.947        N   34 2.784    C   30 1.092
    34  N   2.978        C   33 2.784
    35  C   3.945        C   36 1.439    C   28 1.347    H   94 0.940
    36  C   3.899        C   35 1.439    C   38 1.172    S   37 1.116
    37  S   2.640        C   27 1.187    C   36 1.116
    38  C   3.938        C   39 1.314    C   46 1.239    C   36 1.172
    39  C   3.941        C   38 1.314    C   40 1.278    S   43 1.127
    40  C   3.964        C   39 1.278    C   44 1.252    N   41 1.204
    41  N   3.206        C   42 1.671    C   40 1.204    S   43 0.160
    42  C   3.926        N   41 1.671    S   43 1.152    H   95 0.961
    43  S   2.636        C   42 1.152    C   39 1.127    N   41 0.160
    44  C   3.937        C   45 1.305    C   40 1.252    C   50 1.170
    45  C   3.944        C   44 1.305    C   46 1.278    S   49 1.136
    46  C   3.964        C   45 1.278    C   38 1.239    N   47 1.208
    47  N   3.148        C   48 1.682    C   46 1.208    S   49 0.166
    48  C   3.935        N   47 1.682    S   49 1.152    H   96 0.960
    49  S   2.628        C   48 1.152    C   45 1.136    N   47 0.166
    50  C   3.905        C   51 1.442    C   44 1.170    S   54 1.123
    51  C   3.941        C   50 1.442    C   52 1.341    H   97 0.945
    52  C   3.949        C   51 1.341    C   53 1.303    C   57 1.098
    53  C   3.915        C   52 1.303    S   54 1.204    C   55 1.193
    54  S   2.722        C   53 1.204    C   50 1.123
    55  C   3.921        C   56 1.289    S   65 1.225    C   53 1.193
    56  C   3.957        C   63 1.366    C   55 1.289    C   57 1.094
    57  C   3.981        C   58 1.513    C   52 1.098    C   56 1.094
    58  C   3.986        C   57 1.513    C   61 1.094    C   59 1.093
    59  C   3.947        N   60 2.784    C   58 1.093
    60  N   2.977        C   59 2.784
    61  C   3.948        N   62 2.785    C   58 1.094
    62  N   2.978        C   61 2.785
    63  C   3.973        C   64 1.406    C   56 1.366    H   98 0.954
    64  C   3.911        C   63 1.406    C   66 1.249    S   65 1.095
    65  S   2.633        C   55 1.225    C   64 1.095
    66  C   3.953        C   67 1.549    C   64 1.249    H   99 0.950
    67  C   3.950        C   66 1.549    C   81 1.137    C   68 1.003
    68  C   3.923        O   69 1.779    C   70 1.024    C   67 1.003
    69  O   2.052        C   68 1.779
    70  C   3.975        C   71 1.519    C   80 1.198    C   68 1.024
    71  C   3.980        C   70 1.519    C   72 1.274    H  100 0.963
    72  C   3.980        C   77 1.285    C   71 1.274    C   73 1.240
    73  C   3.984        C   74 1.291    C   79 1.271    C   72 1.240
    74  C   3.977        C   75 1.490    C   73 1.291    H  101 0.963    C   77 0.111
    75  C   3.881        C   74 1.490    C   76 1.290    F   78 0.969
    76  C   3.976        C   77 1.549    C   75 1.290    H  102 0.966
    77  C   3.981        C   76 1.549    C   72 1.285    H  103 0.966    C   74 0.111
    78  F   1.100        C   75 0.969
    79  C   3.973        C   80 1.508    C   73 1.271    H  104 0.959
    80  C   3.985        C   79 1.508    C   70 1.198    C   81 1.080
    81  C   3.976        C   82 1.485    C   67 1.137    C   80 1.080
    82  C   3.953        C   81 1.485    C   83 1.103    C   85 1.094
    83  C   3.945        N   84 2.761    C   82 1.103
    84  N   2.979        C   83 2.761
    85  C   3.947        N   86 2.774    C   82 1.094
    86  N   2.975        C   85 2.774
    87  H   0.994        C    1 0.963
    88  H   0.995        C    4 0.966
    89  H   0.996        C    5 0.966
    90  H   0.995        C    8 0.959
    91  H   0.995        C   11 0.963
    92  H   0.991        C   21 0.950
    93  H   0.996        C   23 0.954
    94  H   0.990        C   35 0.940
    95  H   0.993        C   42 0.961
    96  H   0.993        C   48 0.960
    97  H   0.994        C   51 0.945
    98  H   0.996        C   63 0.954
    99  H   0.991        C   66 0.950
   100  H   0.995        C   71 0.963
   101  H   0.994        C   74 0.963
   102  H   0.995        C   76 0.966
   103  H   0.996        C   77 0.966
   104  H   0.995        C   79 0.959

molecular dipole:
                 x           y           z       tot (Debye)
 q only:       -1.566      -3.216       0.905
   full:       -1.953      -3.799       0.792      11.043
molecular quadrupole (traceless):
                xx          xy          yy          xz          yz          zz
 q only:     -150.164     -95.896     100.219      62.266      22.696      49.945
  q+dip:     -170.125    -120.429     118.635      61.500      31.684      51.490
   full:     -175.113    -118.376     115.720      66.218      41.811      59.393

           -------------------------------------------------
          |                Geometry Summary                 |
           -------------------------------------------------

      molecular mass/u    :     1213.2908000
   center of mass at/Å    :       15.2055886      -3.7780189      -1.7353087
  moments of inertia/u·Å² :        0.9054463E+04   0.1267204E+06   0.1277939E+06
rotational constants/cm⁻¹ :        0.1861804E-02   0.1330301E-03   0.1319127E-03

 * 97 selected distances

     #   Z        #   Z                                     value/Å
     1   6 C      2   6 C                                 1.3673081
     2   6 C      4   6 C                                 1.4017053
     4   6 C      5   6 C                                 1.3670625
     5   6 C      6   6 C                                 1.4100638
     1   6 C      7   6 C                                 1.4082647
     6   6 C      7   6 C                                 1.4258012
     7   6 C      8   6 C                                 1.4147411
     8   6 C      9   6 C                                 1.3681117
     9   6 C     10   6 C                                 1.4248501
     6   6 C     11   6 C                                 1.4127832
    10   6 C     11   6 C                                 1.3651952
    12   6 C     13   8 O                                 1.2093978
    15   6 C     16   6 C                                 1.3709197
    17   6 C     18   7 N                                 1.1483046
    19   6 C     20   7 N                                 1.1472386
    14   6 C     21   6 C                                 1.3629634
    21   6 C     22   6 C                                 1.4099552
    22   6 C     23   6 C                                 1.3886576
    23   6 C     24   6 C                                 1.3873626
    24   6 C     25   6 C                                 1.4109191
    25   6 C     26  16 S                                 1.7006800
    25   6 C     27   6 C                                 1.4158490
    27   6 C     28   6 C                                 1.4070577
    24   6 C     29   6 C                                 1.4528103
    29   6 C     30   6 C                                 1.3636639
    31   6 C     32   7 N                                 1.1464054
    33   6 C     34   7 N                                 1.1466696
    28   6 C     35   6 C                                 1.3907491
    35   6 C     36   6 C                                 1.3859427
    27   6 C     37  16 S                                 1.7055605
    36   6 C     37  16 S                                 1.7599319 (max)
    36   6 C     38   6 C                                 1.4321815
    38   6 C     39   6 C                                 1.3997829
    39   6 C     40   6 C                                 1.4129266
    40   6 C     41   7 N                                 1.3587761
    41   7 N     42   6 C                                 1.2755131
    39   6 C     43  16 S                                 1.7412156
    42   6 C     43  16 S                                 1.7397485
    40   6 C     44   6 C                                 1.4083763
    44   6 C     45   6 C                                 1.4009896
    38   6 C     46   6 C                                 1.4165153
    45   6 C     46   6 C                                 1.4189464
    46   6 C     47   7 N                                 1.3604545
    47   7 N     48   6 C                                 1.2742440
    45   6 C     49  16 S                                 1.7393127
    48   6 C     49  16 S                                 1.7368914
    44   6 C     50   6 C                                 1.4310684
    50   6 C     51   6 C                                 1.3849233
    51   6 C     52   6 C                                 1.3919402
    52   6 C     53   6 C                                 1.4067745
    50   6 C     54  16 S                                 1.7569013
    53   6 C     54  16 S                                 1.7085277
    53   6 C     55   6 C                                 1.4179434
    55   6 C     56   6 C                                 1.4105648
    52   6 C     57   6 C                                 1.4526125
    56   6 C     57   6 C                                 1.4531939
    57   6 C     58   6 C                                 1.3641030
    59   6 C     60   7 N                                 1.1466695
    61   6 C     62   7 N                                 1.1465328
    56   6 C     63   6 C                                 1.3868364
    63   6 C     64   6 C                                 1.3891093
    55   6 C     65  16 S                                 1.7001271
    64   6 C     66   6 C                                 1.4096545
    66   6 C     67   6 C                                 1.3632021
    68   6 C     69   8 O                                 1.2094566
    70   6 C     71   6 C                                 1.3651712
    71   6 C     72   6 C                                 1.4127900
    72   6 C     73   6 C                                 1.4257734
    73   6 C     74   6 C                                 1.4082769
    74   6 C     75   6 C                                 1.3672922
    75   6 C     76   6 C                                 1.4016900
    72   6 C     77   6 C                                 1.4100615
    76   6 C     77   6 C                                 1.3670680
    73   6 C     79   6 C                                 1.4147705
    70   6 C     80   6 C                                 1.4248094
    79   6 C     80   6 C                                 1.3680907
    81   6 C     82   6 C                                 1.3709258
    83   6 C     84   7 N                                 1.1482054
    85   6 C     86   7 N                                 1.1472589
     1   6 C     87   1 H                                 1.0787491
     4   6 C     88   1 H                                 1.0784545
     5   6 C     89   1 H                                 1.0796260
     8   6 C     90   1 H                                 1.0785592
    11   6 C     91   1 H                                 1.0796961
    21   6 C     92   1 H                                 1.0861019
    23   6 C     93   1 H                                 1.0743168
    35   6 C     94   1 H                                 1.0741601
    42   6 C     95   1 H                                 1.0721842 (min)
    48   6 C     96   1 H                                 1.0723529
    51   6 C     97   1 H                                 1.0732392
    63   6 C     98   1 H                                 1.0742641
    66   6 C     99   1 H                                 1.0861021
    71   6 C    100   1 H                                 1.0796987
    74   6 C    101   1 H                                 1.0787503
    76   6 C    102   1 H                                 1.0784577
    77   6 C    103   1 H                                 1.0796334
    79   6 C    104   1 H                                 1.0785553

 * 5 distinct bonds (by element types)

   Z      Z             #   av. dist./Å        max./Å        min./Å
   1 H    6 C          18     1.0779390     1.0861021     1.0721842
   6 C    6 C          55     1.4000200     1.4531939     1.3629634
   6 C    7 N          12     1.2038560     1.3604545     1.1464054
   6 C    8 O           2     1.2094272     1.2094566     1.2093978
   6 C   16 S          10     1.7288897     1.7599319     1.7001271


optimized geometry written to: xtbopt.xyz


           -------------------------------------------------
          | TOTAL ENERGY             -216.489503987604 Eh   |
          | GRADIENT NORM               0.000838201631 Eh/α |
          | HOMO-LUMO GAP               0.762320871968 eV   |
           -------------------------------------------------

------------------------------------------------------------------------
 * finished run on 2021/06/25 at 11:01:14.602     
------------------------------------------------------------------------
 total:
 * wall-time:     0 d,  0 h,  0 min, 22.060 sec
 *  cpu-time:     0 d,  0 h,  4 min, 23.925 sec
 * ratio c/w:    11.964 speedup
 SCF:
 * wall-time:     0 d,  0 h,  0 min,  0.291 sec
 *  cpu-time:     0 d,  0 h,  0 min,  3.446 sec
 * ratio c/w:    11.830 speedup
 ANC optimizer:
 * wall-time:     0 d,  0 h,  0 min, 21.618 sec
 *  cpu-time:     0 d,  0 h,  4 min, 19.274 sec
 * ratio c/w:    11.993 speedup

