      -----------------------------------------------------------      
     |                   =====================                   |     
     |                           x T B                           |     
     |                   =====================                   |     
     |                         S. Grimme                         |     
     |          Mulliken Center for Theoretical Chemistry        |     
     |                    University of Bonn                     |     
     |                Version 6.2 RC2 (SAW190805)                |     
      -----------------------------------------------------------      

   This program is distributed in the hope that it will be useful,
   but WITHOUT ANY WARRANTY; without even the implied warranty of
   MERCHANTABILITY or FITNESS FOR A PARTICULAR PURPOSE.
   
   FOR NON-COMMERCIAL, ACADEMIA USE ONLY.
   
   Cite this work as:
   * S. Grimme, C. Bannwarth, P. Shushkov, J. Chem. Theory Comput., 2017,
     13, 1989-2009. DOI: 10.1021/acs.jctc.7b00118
   * C. Bannwarth, S. Ehlert and S. Grimme., J. Chem. Theory Comput., 2019,
     15, 1652-1671. DOI: 10.1021/acs.jctc.8b01176
   * P. Pracht, E. Caldeweyher, S. Ehlert, S. Grimme, ChemRxiv, 2019, preprint.
     DOI: 10.26434/chemrxiv.8326202.v1
   
   for DFT-D4:
   * E. Caldeweyher, C. Bannwarth and S. Grimme, J. Chem. Phys., 2017,
     147, 034112. DOI: 10.1063/1.4993215
   * E. Caldeweyher, S. Ehlert, A. Hansen, H. Neugebauer, S. Spicher,
     C. Bannwarth and S. Grimme, J. Chem. Phys., 2019, 150, 154122.
     DOI: 10.1063/1.5090222
   
   for sTDA-xTB:
   * S. Grimme and C. Bannwarth, J. Chem. Phys., 2016, 145, 054103.
     DOI: 10.1063/1.4959605
   
   in the mass-spec context:
   * V. Asgeirsson, C. Bauer and S. Grimme, Chem. Sci., 2017, 8, 4879.
     DOI: 10.1039/c7sc00601b
   
   for metadynamics refer to:
   * S. Grimme, J. Chem. Theory Comput., 2019, 155, 2847-2862
     DOI: 10.1021/acs.jctc.9b00143
   
   with help from (in alphabetical order)
   C. Bannwarth, F. Bohle, G. Brandenburg, E. Caldeweyher, M. Checinski,
   S. Dohm, S. Ehlert, S. Ehrlich, F. März, H. Neugebauer, J. Pisarek,
   P. Pracht, P. Shushkov, and S. Spicher.
   
 * started run on 2021/06/26 at 09:31:16.385     

           -------------------------------------------------
          |                Calculation Setup                |
           -------------------------------------------------

          program call               : /ihome/ghutchison/geoffh/xtb/xtb /ihome/ghutchison/blp62/GA/running_GA/opt_GA/generations/67/32_63_63_63_51_10023.xyz -opt
          hostname                   : smp-n140
          coordinate file            : /ihome/ghutchison/blp62/GA/running_GA/opt_GA/generations/67/32_63_63_63_51_10023.xyz
          omp threads                :                    12
          number of atoms            :                   114
          number of electrons        :                   386
          charge                     :                     0
          spin                       :                   0.0
          first test random number   :      0.49096145934040


########################################################################
# WARNING! Please study the warnings concerning your input carefully
#  - XTBPATH is not set, using XTBHOME instead
#  - the use of '-opt' is discouraged, please use '--opt' next time
########################################################################

           ------------------------------------------------- 
          |                 G F N 2 - x T B                 |
          | Geometry, Frequencies, Noncovalent interactions |
          |            JCTC 2019 parametrisation            |
           ------------------------------------------------- 
             KAB for C  - Si     :                1.0500
             KAB for H  - Pd     :                0.9500
             k(s)              :                1.8500
             k(p)              :                2.2300
             k(d)              :                2.2300
             k(f)              :                2.0000
             kEN (H0ij)        :               -2.0000
             D4 a1             :                0.5200
             D4 a2             :                5.0000
             D4 s6             :                1.0000
             D4 s8             :                2.7000
             D4 s9             :                5.0000
             alphaj            :                2.0000

  Z AO/shell   Hii/eV     exponent
  1     Wed Apr 25 08:07:45 CEST 2018   EN: 2.200 GM2: 0.406  GM3: 0.0800  RAES: 1.40
     1s    -10.707211    1.230000
  6     Wed Apr 25 08:07:45 CEST 2018   EN: 2.550 GM2: 0.538  GM3: 0.1500  RAES: 3.00
     2s    -13.970922    2.096432
     2p    -10.063292    1.800000
  7     Wed Apr 25 08:07:45 CEST 2018   EN: 3.040 GM2: 0.461  GM3:-0.0640  RAES: 1.90
     2s    -16.686243    2.339881
     2p    -12.523956    2.014332
  8     Wed Apr 25 08:07:45 CEST 2018   EN: 3.440 GM2: 0.452  GM3:-0.0517  RAES: 1.80
     2s    -20.229985    2.439742
     2p    -15.503117    2.137023
  9     Mon Apr 23 13:58:50 CEST 2018   EN: 3.980 GM2: 0.532  GM3: 0.1426  RAES: 2.40
     2s    -23.458179    2.416361
     2p    -15.746583    2.308399
 16     Tue Apr 24 11:44:34 CEST 2018   EN: 2.580 GM2: 0.340  GM3:-0.0502  RAES: 3.10
     3s    -20.029654    1.981333
     3p    -11.377694    2.025643
     3d     -0.420282    1.702555

           ------------------------------------------------- 
          |        Self-Consistent Charge Iterations        |
           ------------------------------------------------- 

          ...................................................
          :                      SETUP                      :
          :.................................................:
          :  # basis functions                 399          :
          :  # atomic orbitals                 393          :
          :  # shells                          203          :
          :  # electrons                       386          :
          :  max. iterations                   250          :
          :  Hamiltonian                  GFN2-xTB          :
          :  restarted?                      false          :
          :  GBSA solvation                  false          :
          :  PC potential                    false          :
          :  electronic temp.          300.0000000     K    :
          :  accuracy                    1.0000000          :
          :  -> integral cutoff          0.2500000E+02      :
          :  -> integral neglect         0.1000000E-07      :
          :  -> SCF convergence          0.1000000E-05 Eh   :
          :  -> wf. convergence          0.1000000E-03 e    :
          :  Broyden damping             0.4000000          :
          ...................................................

 iter      E             dE          RMSdq      gap      omega  full diag
   1   -212.6548446 -0.212655E+03  0.499E+00    1.37       0.0  T
   2   -212.6744898 -0.196452E-01  0.327E+00    0.72       1.0  T
   3   -212.4111731  0.263317E+00  0.238E+00    0.76       1.0  T
   4   -212.9175725 -0.506399E+00  0.509E-01    0.32       1.0  T
   5   -212.9331501 -0.155776E-01  0.210E-01    0.34       1.0  T
   6   -212.9345287 -0.137856E-02  0.111E-01    0.38       1.0  T
   7   -212.9356417 -0.111302E-02  0.462E-02    0.40       1.0  T
   8   -212.9358138 -0.172175E-03  0.235E-02    0.39       1.0  T
   9   -212.9358506 -0.367174E-04  0.105E-02    0.39       1.0  T
  10   -212.9358534 -0.283519E-05  0.570E-03    0.39       1.6  T
  11   -212.9358558 -0.239027E-05  0.246E-03    0.39       3.8  T
  12   -212.9358560 -0.259541E-06  0.154E-03    0.39       6.1  T
  13   -212.9358562 -0.165580E-06  0.774E-04    0.39      12.1  T
  14   -212.9358562 -0.188693E-07  0.440E-04    0.39      21.3  T

   *** convergence criteria satisfied after 14 iterations ***

         #    Occupation            Energy/Eh            Energy/eV
      -------------------------------------------------------------
         1        2.0000           -0.8386949             -22.8220
       ...           ...                  ...                  ...
       187        2.0000           -0.3902288             -10.6187
       188        2.0000           -0.3897712             -10.6062
       189        2.0000           -0.3843055             -10.4575
       190        2.0000           -0.3809734             -10.3668
       191        2.0000           -0.3661111              -9.9624
       192        2.0000           -0.3635015              -9.8914
       193        1.9989           -0.3531882              -9.6107 (HOMO)
       194        0.0011           -0.3389610              -9.2236 (LUMO)
       195                         -0.3229648              -8.7883
       196                         -0.3216250              -8.7519
       197                         -0.3040765              -8.2743
       198                         -0.2989190              -8.1340
       ...                                ...                  ...
       393                          1.0955454              29.8113
      -------------------------------------------------------------
                  HL-Gap            0.0142272 Eh            0.3871 eV
             Fermi-level           -0.3460746 Eh           -9.4172 eV

 SCC (total)                   0 d,  0 h,  0 min,  0.284 sec
 SCC setup                      ...        0 min,  0.003 sec (  0.962%)
 Dispersion                     ...        0 min,  0.007 sec (  2.299%)
 integral evaluation            ...        0 min,  0.029 sec ( 10.166%)
 zeroth order Hamiltonian       ...        0 min,  0.002 sec (  0.553%)
 iterations                     ...        0 min,  0.217 sec ( 76.255%)
 molecular gradient             ...        0 min,  0.026 sec (  9.270%)
 printout                       ...        0 min,  0.001 sec (  0.460%)

         :::::::::::::::::::::::::::::::::::::::::::::::::::::
         ::                     SUMMARY                     ::
         :::::::::::::::::::::::::::::::::::::::::::::::::::::
         :: total energy            -209.364833685352 Eh    ::
         :: gradient norm              0.186710386051 Eh/a0 ::
         :: HOMO-LUMO gap              0.387141686924 eV    ::
         ::.................................................::
         :: SCC energy              -212.935856230196 Eh    ::
         :: -> isotropic ES            0.099010407729 Eh    ::
         :: -> anisotropic ES          0.005364745664 Eh    ::
         :: -> anisotropic XC          0.144053384600 Eh    ::
         :: -> dispersion             -0.177138980575 Eh    ::
         :: repulsion energy           3.571835735778 Eh    ::
         :: add. restraining           0.000000000000 Eh    ::
         :::::::::::::::::::::::::::::::::::::::::::::::::::::

      ----------------------------------------------------------- 
     |                   =====================                   |
     |                        A N C O P T                        |
     |                   =====================                   |
     |               Approximate Normal Coordinate               |
     |                Rational Function Optimizer                |
      ----------------------------------------------------------- 

          ...................................................
          :                      SETUP                      :
          :.................................................:
          :   optimization level            normal          :
          :   max. optcycles                   342          :
          :   ANC micro-cycles                  20          :
          :   degrees of freedom               336          :
          :.................................................:
          :   RF solver                   davidson          :
          :   input Hessian                  false          :
          :   write xtbopt.log                true          :
          :   linear?                        false          :
          :   energy convergence         0.5000000E-05 Eh   :
          :   grad. convergence          0.1000000E-02 Eh/α :
          :   maximium RF displ.         2.0000000          :
          :   Hlow (freq-cutoff)         0.5000000E-02      :
          :   Hmax (freq-cutoff)         5.0000000          :
          :   S6 in model hess.         20.0000000          :
          ...................................................

generating ANC from model Hessian ...
Using Lindh-Hessian (1995)
 Shifting diagonal of input Hessian by   4.990177805321696E-003
 Lowest  eigenvalues of input Hessian
   -0.000000   -0.000000   -0.000000   -0.000000    0.000000    0.000000
    0.005000    0.005006    0.005008    0.005031    0.005047    0.005071
    0.005075    0.005236    0.005284    0.005292    0.005451    0.005552
 Highest eigenvalues
    2.252787    2.264279    2.506822    2.508525    2.565866    2.567771
 

........................................................................
.............................. CYCLE    1 ..............................
........................................................................
   1   -212.9358562 -0.212936E+03  0.197E-04    0.39       0.0  T
   2   -212.9358562  0.182351E-08  0.204E-04    0.39      45.9  T
   3   -212.9358562 -0.485619E-08  0.809E-05    0.39     115.8  T
     SCC iter.                  ...        0 min,  0.050 sec
     gradient                   ...        0 min,  0.026 sec
 * total energy  :  -209.3648335 Eh     change        0.1932108E-06 Eh
   gradient norm :     0.1867122 Eh/α   predicted     0.0000000E+00 (-100.00%)
   displ. norm   :     0.4061650 α      lambda       -0.3931299E-01
   maximum displ.:     0.0951906 α      in ANC's #90, #94, #91, ...

........................................................................
.............................. CYCLE    2 ..............................
........................................................................
   1   -213.0198764 -0.213020E+03  0.227E-01    0.36       0.0  T
   2   -213.0202274 -0.350966E-03  0.138E-01    0.40       1.0  T
   3   -213.0204230 -0.195630E-03  0.867E-02    0.40       1.0  T
   4   -213.0208630 -0.440025E-03  0.286E-02    0.39       1.0  T
   5   -213.0209039 -0.409142E-04  0.158E-02    0.40       1.0  T
   6   -213.0209233 -0.193086E-04  0.693E-03    0.40       1.4  T
   7   -213.0209273 -0.403542E-05  0.274E-03    0.40       3.4  T
   8   -213.0209278 -0.533157E-06  0.142E-03    0.40       6.6  T
     SCC iter.                  ...        0 min,  0.120 sec
     gradient                   ...        0 min,  0.025 sec
 * total energy  :  -209.3924746 Eh     change       -0.2764109E-01 Eh
   gradient norm :     0.0824971 Eh/α   predicted    -0.2289933E-01 ( -17.15%)
   displ. norm   :     0.4753763 α      lambda       -0.1654099E-01
   maximum displ.:     0.1601370 α      in ANC's #33, #34, #45, ...

........................................................................
.............................. CYCLE    3 ..............................
........................................................................
   1   -213.0393000 -0.213039E+03  0.236E-01    0.34       0.0  T
   2   -213.0396076 -0.307562E-03  0.132E-01    0.40       1.0  T
   3   -213.0394058  0.201789E-03  0.975E-02    0.38       1.0  T
   4   -213.0401634 -0.757629E-03  0.300E-02    0.40       1.0  T
   5   -213.0402198 -0.564290E-04  0.160E-02    0.40       1.0  T
   6   -213.0402375 -0.176891E-04  0.558E-03    0.40       1.7  T
   7   -213.0402403 -0.273894E-05  0.275E-03    0.39       3.4  T
   8   -213.0402409 -0.586400E-06  0.139E-03    0.40       6.7  T
     SCC iter.                  ...        0 min,  0.121 sec
     gradient                   ...        0 min,  0.025 sec
 * total energy  :  -209.4033354 Eh     change       -0.1086083E-01 Eh
   gradient norm :     0.0283251 Eh/α   predicted    -0.1013949E-01 (  -6.64%)
   displ. norm   :     0.5767031 α      lambda       -0.6741209E-02
   maximum displ.:     0.2353717 α      in ANC's #33, #34, #30, ...

........................................................................
.............................. CYCLE    4 ..............................
........................................................................
   1   -213.0384560 -0.213038E+03  0.222E-01    0.37       0.0  T
   2   -213.0385529 -0.968371E-04  0.122E-01    0.44       1.0  T
   3   -213.0374422  0.111068E-02  0.102E-01    0.39       1.0  T
   4   -213.0388386 -0.139635E-02  0.267E-02    0.43       1.0  T
   5   -213.0388917 -0.531989E-04  0.133E-02    0.42       1.0  T
   6   -213.0389020 -0.102272E-04  0.680E-03    0.43       1.4  T
   7   -213.0389071 -0.509601E-05  0.272E-03    0.42       3.4  T
   8   -213.0389078 -0.694086E-06  0.117E-03    0.42       8.0  T
     SCC iter.                  ...        0 min,  0.124 sec
     gradient                   ...        0 min,  0.026 sec
 * total energy  :  -209.4086682 Eh     change       -0.5332800E-02 Eh
   gradient norm :     0.0257548 Eh/α   predicted    -0.4491623E-02 ( -15.77%)
   displ. norm   :     0.7501351 α      lambda       -0.7110168E-02
   maximum displ.:     0.3299534 α      in ANC's #33, #34, #20, ...

........................................................................
.............................. CYCLE    5 ..............................
........................................................................
   1   -213.0308158 -0.213031E+03  0.301E-01    0.39       0.0  T
   2   -213.0307560  0.597201E-04  0.171E-01    0.49       1.0  T
   3   -213.0269027  0.385333E-02  0.167E-01    0.38       1.0  T
   4   -213.0314005 -0.449783E-02  0.351E-02    0.46       1.0  T
   5   -213.0314971 -0.965812E-04  0.182E-02    0.46       1.0  T
   6   -213.0315226 -0.255233E-04  0.915E-03    0.46       1.0  T
   7   -213.0315314 -0.878070E-05  0.357E-03    0.46       2.6  T
   8   -213.0315326 -0.122542E-05  0.146E-03    0.46       6.4  T
   9   -213.0315328 -0.108591E-06  0.834E-04    0.46      11.2  T
     SCC iter.                  ...        0 min,  0.133 sec
     gradient                   ...        0 min,  0.025 sec
 * total energy  :  -209.4136621 Eh     change       -0.4993888E-02 Eh
   gradient norm :     0.0297619 Eh/α   predicted    -0.5555543E-02 (  11.25%)
   displ. norm   :     0.6622003 α      lambda       -0.5695224E-02
   maximum displ.:     0.2556143 α      in ANC's #33, #30, #20, ...

........................................................................
.............................. CYCLE    6 ..............................
........................................................................
   1   -213.0293270 -0.213029E+03  0.245E-01    0.44       0.0  T
   2   -213.0291826  0.144427E-03  0.144E-01    0.53       1.0  T
   3   -213.0257587  0.342382E-02  0.152E-01    0.43       1.0  T
   4   -213.0296922 -0.393345E-02  0.322E-02    0.51       1.0  T
   5   -213.0298007 -0.108510E-03  0.144E-02    0.50       1.0  T
   6   -213.0298150 -0.142633E-04  0.744E-03    0.50       1.3  T
   7   -213.0298201 -0.516650E-05  0.312E-03    0.50       3.0  T
   8   -213.0298213 -0.116081E-05  0.106E-03    0.50       8.8  T
     SCC iter.                  ...        0 min,  0.120 sec
     gradient                   ...        0 min,  0.025 sec
 * total energy  :  -209.4181050 Eh     change       -0.4442852E-02 Eh
   gradient norm :     0.0294372 Eh/α   predicted    -0.4096318E-02 (  -7.80%)
   displ. norm   :     0.6357797 α      lambda       -0.4959785E-02
   maximum displ.:     0.2303438 α      in ANC's #20, #33, #21, ...

........................................................................
.............................. CYCLE    7 ..............................
........................................................................
   1   -213.0454680 -0.213045E+03  0.215E-01    0.48       0.0  T
   2   -213.0452324  0.235592E-03  0.128E-01    0.57       1.0  T
   3   -213.0420268  0.320567E-02  0.147E-01    0.47       1.0  T
   4   -213.0457773 -0.375053E-02  0.299E-02    0.55       1.0  T
   5   -213.0458655 -0.881571E-04  0.132E-02    0.54       1.0  T
   6   -213.0458734 -0.791373E-05  0.752E-03    0.54       1.2  T
   7   -213.0458796 -0.624346E-05  0.285E-03    0.54       3.3  T
   8   -213.0458807 -0.104546E-05  0.908E-04    0.54      10.3  T
   9   -213.0458807 -0.520202E-07  0.461E-04    0.54      20.3  T
     SCC iter.                  ...        0 min,  0.149 sec
     gradient                   ...        0 min,  0.025 sec
 * total energy  :  -209.4221086 Eh     change       -0.4003639E-02 Eh
   gradient norm :     0.0265600 Eh/α   predicted    -0.3482355E-02 ( -13.02%)
   displ. norm   :     0.7431873 α      lambda       -0.5090077E-02
   maximum displ.:     0.2655162 α      in ANC's #33, #20, #21, ...

........................................................................
.............................. CYCLE    8 ..............................
........................................................................
   1   -213.0449893 -0.213045E+03  0.271E-01    0.51       0.0  T
   2   -213.0444734  0.515955E-03  0.162E-01    0.61       1.0  T
   3   -213.0380159  0.645741E-02  0.202E-01    0.48       1.0  T
   4   -213.0454461 -0.743020E-02  0.333E-02    0.58       1.0  T
   5   -213.0455617 -0.115581E-03  0.151E-02    0.57       1.0  T
   6   -213.0455715 -0.979762E-05  0.873E-03    0.57       1.1  T
   7   -213.0455801 -0.853972E-05  0.358E-03    0.57       2.6  T
   8   -213.0455817 -0.165477E-05  0.131E-03    0.57       7.1  T
   9   -213.0455818 -0.103217E-06  0.702E-04    0.57      13.3  T
     SCC iter.                  ...        0 min,  0.141 sec
     gradient                   ...        0 min,  0.025 sec
 * total energy  :  -209.4258868 Eh     change       -0.3778200E-02 Eh
   gradient norm :     0.0382774 Eh/α   predicted    -0.3950746E-02 (   4.57%)
   displ. norm   :     0.7070886 α      lambda       -0.5019815E-02
   maximum displ.:     0.2598029 α      in ANC's #20, #13, #21, ...

........................................................................
.............................. CYCLE    9 ..............................
........................................................................
   1   -213.0714830 -0.213071E+03  0.253E-01    0.54       0.0  T
   2   -213.0710361  0.446894E-03  0.150E-01    0.62       1.0  T
   3   -213.0648050  0.623102E-02  0.194E-01    0.50       1.0  T
   4   -213.0718086 -0.700355E-02  0.322E-02    0.60       1.0  T
   5   -213.0719213 -0.112733E-03  0.149E-02    0.59       1.0  T
   6   -213.0719319 -0.105699E-04  0.820E-03    0.59       1.1  T
   7   -213.0719390 -0.709405E-05  0.331E-03    0.59       2.8  T
   8   -213.0719405 -0.148374E-05  0.135E-03    0.59       6.9  T
   9   -213.0719406 -0.146213E-06  0.713E-04    0.59      13.1  T
     SCC iter.                  ...        0 min,  0.143 sec
     gradient                   ...        0 min,  0.025 sec
 * total energy  :  -209.4295459 Eh     change       -0.3659102E-02 Eh
   gradient norm :     0.0284187 Eh/α   predicted    -0.3764816E-02 (   2.89%)
   displ. norm   :     0.6769543 α      lambda       -0.4135780E-02
   maximum displ.:     0.2591238 α      in ANC's #20, #21, #13, ...

........................................................................
.............................. CYCLE   10 ..............................
........................................................................
   1   -213.0743268 -0.213074E+03  0.234E-01    0.56       0.0  T
   2   -213.0740212  0.305683E-03  0.136E-01    0.62       1.0  T
   3   -213.0682246  0.579656E-02  0.181E-01    0.52       1.0  T
   4   -213.0745371 -0.631252E-02  0.300E-02    0.61       1.0  T
   5   -213.0746363 -0.992074E-04  0.153E-02    0.60       1.0  T
   6   -213.0746478 -0.114815E-04  0.879E-03    0.60       1.1  T
   7   -213.0746568 -0.898688E-05  0.326E-03    0.60       2.9  T
   8   -213.0746585 -0.165973E-05  0.131E-03    0.60       7.1  T
   9   -213.0746586 -0.127736E-06  0.698E-04    0.60      13.4  T
     SCC iter.                  ...        0 min,  0.142 sec
     gradient                   ...        0 min,  0.025 sec
 * total energy  :  -209.4322089 Eh     change       -0.2663041E-02 Eh
   gradient norm :     0.0308677 Eh/α   predicted    -0.3015537E-02 (  13.24%)
   displ. norm   :     0.7351435 α      lambda       -0.4541616E-02
   maximum displ.:     0.2427575 α      in ANC's #20, #13, #24, ...

........................................................................
.............................. CYCLE   11 ..............................
........................................................................
   1   -213.0492583 -0.213049E+03  0.225E-01    0.56       0.0  T
   2   -213.0482602  0.998052E-03  0.146E-01    0.63       1.0  T
   3   -213.0410329  0.722731E-02  0.209E-01    0.52       1.0  T
   4   -213.0497099 -0.867696E-02  0.257E-02    0.60       1.0  T
   5   -213.0497521 -0.421943E-04  0.141E-02    0.59       1.0  T
   6   -213.0497542 -0.210494E-05  0.934E-03    0.59       1.0  T
   7   -213.0497659 -0.117686E-04  0.361E-03    0.59       2.6  T
   8   -213.0497679 -0.193108E-05  0.117E-03    0.59       8.0  T
   9   -213.0497679 -0.539808E-07  0.785E-04    0.59      11.9  T
     SCC iter.                  ...        0 min,  0.148 sec
     gradient                   ...        0 min,  0.025 sec
 * total energy  :  -209.4346322 Eh     change       -0.2423264E-02 Eh
   gradient norm :     0.0336947 Eh/α   predicted    -0.3498070E-02 (  44.35%)
   displ. norm   :     0.4843310 α      lambda       -0.3758504E-02
   maximum displ.:     0.1787810 α      in ANC's #13, #20, #28, ...

........................................................................
.............................. CYCLE   12 ..............................
........................................................................
   1   -213.0607523 -0.213061E+03  0.185E-01    0.58       0.0  T
   2   -213.0607922 -0.399656E-04  0.102E-01    0.59       1.0  T
   3   -213.0602634  0.528866E-03  0.592E-02    0.57       1.0  T
   4   -213.0607897 -0.526358E-03  0.192E-02    0.59       1.0  T
   5   -213.0608172 -0.275164E-04  0.134E-02    0.59       1.0  T
   6   -213.0608385 -0.212864E-04  0.534E-03    0.59       1.8  T
   7   -213.0608425 -0.401499E-05  0.168E-03    0.59       5.6  T
   8   -213.0608427 -0.189852E-06  0.100E-03    0.59       9.3  T
     SCC iter.                  ...        0 min,  0.118 sec
     gradient                   ...        0 min,  0.025 sec
 * total energy  :  -209.4358949 Eh     change       -0.1262658E-02 Eh
   gradient norm :     0.0495063 Eh/α   predicted    -0.2320087E-02 (  83.75%)
   displ. norm   :     0.4845043 α      lambda       -0.3928866E-02
   maximum displ.:     0.1731014 α      in ANC's #13, #20, #21, ...

........................................................................
.............................. CYCLE   13 ..............................
........................................................................
   1   -213.0696321 -0.213070E+03  0.181E-01    0.57       0.0  T
   2   -213.0694991  0.132982E-03  0.106E-01    0.60       1.0  T
   3   -213.0660880  0.341110E-02  0.138E-01    0.54       1.0  T
   4   -213.0696615 -0.357342E-02  0.293E-02    0.60       1.0  T
   5   -213.0697839 -0.122448E-03  0.126E-02    0.59       1.0  T
   6   -213.0697965 -0.125630E-04  0.675E-03    0.59       1.4  T
   7   -213.0698021 -0.560904E-05  0.258E-03    0.59       3.6  T
   8   -213.0698029 -0.837335E-06  0.929E-04    0.59      10.1  T
     SCC iter.                  ...        0 min,  0.118 sec
     gradient                   ...        0 min,  0.025 sec
 * total energy  :  -209.4379722 Eh     change       -0.2077308E-02 Eh
   gradient norm :     0.0356521 Eh/α   predicted    -0.2425580E-02 (  16.77%)
   displ. norm   :     0.5092536 α      lambda       -0.2865990E-02
   maximum displ.:     0.2048692 α      in ANC's #13, #6, #20, ...

........................................................................
.............................. CYCLE   14 ..............................
........................................................................
   1   -213.0622346 -0.213062E+03  0.193E-01    0.57       0.0  T
   2   -213.0622558 -0.212684E-04  0.107E-01    0.58       1.0  T
   3   -213.0610821  0.117375E-02  0.812E-02    0.56       1.0  T
   4   -213.0622640 -0.118190E-02  0.191E-02    0.59       1.0  T
   5   -213.0623027 -0.387386E-04  0.119E-02    0.58       1.0  T
   6   -213.0623163 -0.135824E-04  0.460E-03    0.58       2.0  T
   7   -213.0623189 -0.265554E-05  0.181E-03    0.58       5.2  T
   8   -213.0623192 -0.285232E-06  0.980E-04    0.58       9.6  T
     SCC iter.                  ...        0 min,  0.117 sec
     gradient                   ...        0 min,  0.025 sec
 * total energy  :  -209.4389942 Eh     change       -0.1021995E-02 Eh
   gradient norm :     0.0353174 Eh/α   predicted    -0.1804632E-02 (  76.58%)
   displ. norm   :     0.4747528 α      lambda       -0.3032372E-02
   maximum displ.:     0.1954237 α      in ANC's #13, #6, #20, ...

........................................................................
.............................. CYCLE   15 ..............................
........................................................................
   1   -213.0595364 -0.213060E+03  0.155E-01    0.57       0.0  T
   2   -213.0593740  0.162326E-03  0.915E-02    0.58       1.0  T
   3   -213.0557827  0.359139E-02  0.136E-01    0.53       1.0  T
   4   -213.0595979 -0.381525E-02  0.231E-02    0.58       1.0  T
   5   -213.0596522 -0.542936E-04  0.114E-02    0.57       1.0  T
   6   -213.0596613 -0.911295E-05  0.654E-03    0.57       1.4  T
   7   -213.0596661 -0.475837E-05  0.249E-03    0.57       3.8  T
   8   -213.0596669 -0.789473E-06  0.110E-03    0.57       8.5  T
     SCC iter.                  ...        0 min,  0.117 sec
     gradient                   ...        0 min,  0.025 sec
 * total energy  :  -209.4396986 Eh     change       -0.7043976E-03 Eh
   gradient norm :     0.0477437 Eh/α   predicted    -0.1857923E-02 ( 163.76%)
   displ. norm   :     0.3643018 α      lambda       -0.3230384E-02
   maximum displ.:     0.1598255 α      in ANC's #13, #28, #19, ...

........................................................................
.............................. CYCLE   16 ..............................
........................................................................
   1   -213.0615562 -0.213062E+03  0.160E-01    0.56       0.0  T
   2   -213.0615957 -0.394734E-04  0.898E-02    0.57       1.0  T
   3   -213.0609090  0.686690E-03  0.611E-02    0.55       1.0  T
   4   -213.0615399 -0.630925E-03  0.246E-02    0.57       1.0  T
   5   -213.0616349 -0.949732E-04  0.107E-02    0.57       1.0  T
   6   -213.0616465 -0.115447E-04  0.523E-03    0.57       1.8  T
   7   -213.0616497 -0.326449E-05  0.221E-03    0.57       4.2  T
   8   -213.0616504 -0.647186E-06  0.968E-04    0.57       9.7  T
     SCC iter.                  ...        0 min,  0.117 sec
     gradient                   ...        0 min,  0.025 sec
 * total energy  :  -209.4409181 Eh     change       -0.1219528E-02 Eh
   gradient norm :     0.0310440 Eh/α   predicted    -0.1829560E-02 (  50.02%)
   displ. norm   :     0.3130181 α      lambda       -0.2361164E-02
   maximum displ.:     0.1393248 α      in ANC's #13, #6, #19, ...

........................................................................
.............................. CYCLE   17 ..............................
........................................................................
   1   -213.0736224 -0.213074E+03  0.126E-01    0.58       0.0  T
   2   -213.0735127  0.109667E-03  0.736E-02    0.56       1.0  T
   3   -213.0718489  0.166380E-02  0.101E-01    0.60       1.0  T
   4   -213.0736548 -0.180589E-02  0.207E-02    0.57       1.0  T
   5   -213.0737161 -0.612589E-04  0.779E-03    0.57       1.2  T
   6   -213.0737208 -0.469967E-05  0.477E-03    0.57       2.0  T
   7   -213.0737235 -0.278272E-05  0.161E-03    0.57       5.8  T
     SCC iter.                  ...        0 min,  0.103 sec
     gradient                   ...        0 min,  0.025 sec
 * total energy  :  -209.4411741 Eh     change       -0.2559972E-03 Eh
   gradient norm :     0.0421246 Eh/α   predicted    -0.1296261E-02 ( 406.36%)
   displ. norm   :     0.3678684 α      lambda       -0.2573360E-02
   maximum displ.:     0.1641515 α      in ANC's #13, #6, #5, ...

........................................................................
.............................. CYCLE   18 ..............................
........................................................................
   1   -213.0733953 -0.213073E+03  0.149E-01    0.57       0.0  T
   2   -213.0734246 -0.293447E-04  0.821E-02    0.56       1.0  T
   3   -213.0730969  0.327748E-03  0.479E-02    0.57       1.0  T
   4   -213.0734494 -0.352526E-03  0.105E-02    0.57       1.0  T
   5   -213.0734478  0.162137E-05  0.964E-03    0.56       1.0  T
   6   -213.0734592 -0.113852E-04  0.483E-03    0.57       1.9  T
   7   -213.0734626 -0.337691E-05  0.209E-03    0.56       4.5  T
   8   -213.0734632 -0.593126E-06  0.863E-04    0.57      10.9  T
     SCC iter.                  ...        0 min,  0.123 sec
     gradient                   ...        0 min,  0.026 sec
 * total energy  :  -209.4423779 Eh     change       -0.1203866E-02 Eh
   gradient norm :     0.0270145 Eh/α   predicted    -0.1460811E-02 (  21.34%)
   displ. norm   :     0.5313783 α      lambda       -0.2500081E-02
   maximum displ.:     0.2215225 α      in ANC's #13, #6, #19, ...

........................................................................
.............................. CYCLE   19 ..............................
........................................................................
   1   -213.0391404 -0.213039E+03  0.201E-01    0.53       0.0  T
   2   -213.0384976  0.642799E-03  0.128E-01    0.57       1.0  T
   3   -213.0309169  0.758066E-02  0.203E-01    0.49       1.0  T
   4   -213.0392069 -0.828992E-02  0.361E-02    0.55       1.0  T
   5   -213.0394249 -0.218050E-03  0.135E-02    0.55       1.0  T
   6   -213.0394347 -0.974464E-05  0.737E-03    0.55       1.3  T
   7   -213.0394382 -0.359288E-05  0.368E-03    0.55       2.5  T
   8   -213.0394405 -0.223371E-05  0.134E-03    0.55       7.0  T
     SCC iter.                  ...        0 min,  0.118 sec
     gradient                   ...        0 min,  0.025 sec
 * total energy  :  -209.4411553 Eh     change        0.1222613E-02 Eh
   gradient norm :     0.0653210 Eh/α   predicted    -0.1603014E-02 (-231.11%)
   displ. norm   :     0.2196464 α      lambda       -0.4476017E-02
   maximum displ.:     0.0681260 α      in ANC's #33, #34, #13, ...

........................................................................
.............................. CYCLE   20 ..............................
........................................................................
   1   -213.0633256 -0.213063E+03  0.115E-01    0.56       0.0  T
   2   -213.0632919  0.336560E-04  0.679E-02    0.55       1.0  T
   3   -213.0622936  0.998370E-03  0.830E-02    0.59       1.0  T
   4   -213.0632999 -0.100629E-02  0.257E-02    0.55       1.0  T
   5   -213.0634171 -0.117293E-03  0.836E-03    0.56       1.1  T
   6   -213.0634271 -0.995903E-05  0.333E-03    0.55       2.8  T
   7   -213.0634278 -0.684334E-06  0.180E-03    0.55       5.2  T
   8   -213.0634281 -0.346606E-06  0.772E-04    0.55      12.1  T
     SCC iter.                  ...        0 min,  0.117 sec
     gradient                   ...        0 min,  0.025 sec
 * total energy  :  -209.4434304 Eh     change       -0.2275038E-02 Eh
   gradient norm :     0.0156306 Eh/α   predicted    -0.2345987E-02 (   3.12%)
   displ. norm   :     0.3241162 α      lambda       -0.1530664E-02
   maximum displ.:     0.1113035 α      in ANC's #13, #6, #48, ...
 * RMSD in coord.:     0.7544158 α      energy gain  -0.7859669E-01 Eh

generating ANC from model Hessian ...
Using Lindh-Hessian (1995)
 Shifting diagonal of input Hessian by   5.023935286956317E-003
 Lowest  eigenvalues of input Hessian
    0.005000    0.005016   -0.000000   -0.000000   -0.000000   -0.000000
    0.000000    0.000000    0.005036    0.005056    0.005059    0.005095
    0.005118    0.005276    0.005306    0.005315    0.005395    0.005469
 Highest eigenvalues
    2.264385    2.281751    2.591293    2.593490    2.639436    2.644173
 

........................................................................
.............................. CYCLE   21 ..............................
........................................................................
   1   -213.0782697 -0.213078E+03  0.128E-01    0.58       0.0  T
   2   -213.0777921  0.477634E-03  0.862E-02    0.54       1.0  T
   3   -213.0757234  0.206869E-02  0.120E-01    0.60       1.0  T
   4   -213.0784082 -0.268480E-02  0.181E-02    0.57       1.0  T
   5   -213.0784472 -0.389793E-04  0.667E-03    0.56       1.4  T
   6   -213.0784460  0.120989E-05  0.575E-03    0.56       1.6  T
   7   -213.0784506 -0.465037E-05  0.199E-03    0.56       4.7  T
   8   -213.0784511 -0.491705E-06  0.974E-04    0.56       9.6  T
   9   -213.0784512 -0.912450E-07  0.431E-04    0.56      21.8  T
     SCC iter.                  ...        0 min,  0.142 sec
     gradient                   ...        0 min,  0.030 sec
 * total energy  :  -209.4431279 Eh     change        0.3025042E-03 Eh
   gradient norm :     0.0351621 Eh/α   predicted     0.0000000E+00 (-100.00%)
   displ. norm   :     0.2380153 α      lambda       -0.2031139E-02
   maximum displ.:     0.0958455 α      in ANC's #8, #41, #5, ...

........................................................................
.............................. CYCLE   22 ..............................
........................................................................
   1   -213.0732138 -0.213073E+03  0.107E-01    0.55       0.0  T
   2   -213.0731656  0.482301E-04  0.603E-02    0.57       1.0  T
   3   -213.0716304  0.153520E-02  0.872E-02    0.53       1.0  T
   4   -213.0732412 -0.161083E-02  0.113E-02    0.56       1.0  T
   5   -213.0732544 -0.131688E-04  0.582E-03    0.56       1.6  T
   6   -213.0732572 -0.281944E-05  0.269E-03    0.56       3.5  T
   7   -213.0732579 -0.691935E-06  0.998E-04    0.56       9.4  T
     SCC iter.                  ...        0 min,  0.102 sec
     gradient                   ...        0 min,  0.025 sec
 * total energy  :  -209.4442062 Eh     change       -0.1078296E-02 Eh
   gradient norm :     0.0114094 Eh/α   predicted    -0.1073103E-02 (  -0.48%)
   displ. norm   :     0.4439782 α      lambda       -0.2713428E-02
   maximum displ.:     0.1667817 α      in ANC's #9, #21, #1, ...

........................................................................
.............................. CYCLE   23 ..............................
........................................................................
   1   -213.0545488 -0.213055E+03  0.301E-01    0.55       0.0  T
   2   -213.0545155  0.333232E-04  0.168E-01    0.56       1.0  T
   3   -213.0480167  0.649871E-02  0.175E-01    0.50       1.0  T
   4   -213.0546602 -0.664341E-02  0.279E-02    0.56       1.0  T
   5   -213.0547794 -0.119247E-03  0.841E-03    0.55       1.1  T
   6   -213.0547806 -0.118042E-05  0.571E-03    0.55       1.6  T
   7   -213.0547837 -0.312067E-05  0.225E-03    0.55       4.2  T
   8   -213.0547844 -0.654522E-06  0.977E-04    0.55       9.6  T
   9   -213.0547844 -0.342931E-07  0.586E-04    0.55      16.0  T
     SCC iter.                  ...        0 min,  0.141 sec
     gradient                   ...        0 min,  0.025 sec
 * total energy  :  -209.4415021 Eh     change        0.2704079E-02 Eh
   gradient norm :     0.0433524 Eh/α   predicted    -0.1624149E-02 (-160.06%)
   displ. norm   :     0.2293997 α      lambda       -0.6204766E-02
   maximum displ.:     0.1063602 α      in ANC's #9, #21, #1, ...

........................................................................
.............................. CYCLE   24 ..............................
........................................................................
   1   -213.0726356 -0.213073E+03  0.185E-01    0.56       0.0  T
   2   -213.0726474 -0.117511E-04  0.104E-01    0.55       1.0  T
   3   -213.0711189  0.152852E-02  0.879E-02    0.59       1.0  T
   4   -213.0727050 -0.158611E-02  0.117E-02    0.56       1.0  T
   5   -213.0727198 -0.148653E-04  0.469E-03    0.56       2.0  T
   6   -213.0727201 -0.238934E-06  0.293E-03    0.55       3.2  T
   7   -213.0727212 -0.110692E-05  0.104E-03    0.55       9.0  T
     SCC iter.                  ...        0 min,  0.103 sec
     gradient                   ...        0 min,  0.025 sec
 * total energy  :  -209.4448022 Eh     change       -0.3300125E-02 Eh
   gradient norm :     0.0142685 Eh/α   predicted    -0.3265642E-02 (  -1.04%)
   displ. norm   :     0.1644119 α      lambda       -0.5183413E-03
   maximum displ.:     0.0667346 α      in ANC's #8, #57, #9, ...

........................................................................
.............................. CYCLE   25 ..............................
........................................................................
   1   -213.0697136 -0.213070E+03  0.852E-02    0.55       0.0  T
   2   -213.0697230 -0.942517E-05  0.465E-02    0.55       1.0  T
   3   -213.0697101  0.128479E-04  0.118E-02    0.55       1.0  T
   4   -213.0697265 -0.163909E-04  0.381E-03    0.55       2.5  T
   5   -213.0697238  0.274455E-05  0.448E-03    0.55       2.1  T
   6   -213.0697277 -0.395369E-05  0.118E-03    0.55       7.9  T
   7   -213.0697279 -0.173926E-06  0.499E-04    0.55      18.8  T
   8   -213.0697279 -0.216668E-07  0.256E-04    0.55      36.5  T
     SCC iter.                  ...        0 min,  0.124 sec
     gradient                   ...        0 min,  0.025 sec
 * total energy  :  -209.4449747 Eh     change       -0.1724501E-03 Eh
   gradient norm :     0.0075946 Eh/α   predicted    -0.2661766E-03 (  54.35%)
   displ. norm   :     0.2600504 α      lambda       -0.6200275E-03
   maximum displ.:     0.1052903 α      in ANC's #8, #5, #17, ...

........................................................................
.............................. CYCLE   26 ..............................
........................................................................
   1   -213.0677572 -0.213068E+03  0.102E-01    0.55       0.0  T
   2   -213.0677594 -0.214973E-05  0.552E-02    0.56       1.0  T
   3   -213.0673989  0.360534E-03  0.425E-02    0.54       1.0  T
   4   -213.0677701 -0.371209E-03  0.730E-03    0.56       1.3  T
   5   -213.0677717 -0.167318E-05  0.526E-03    0.55       1.8  T
   6   -213.0677749 -0.319643E-05  0.141E-03    0.55       6.6  T
   7   -213.0677752 -0.264236E-06  0.588E-04    0.55      15.9  T
   8   -213.0677752 -0.299165E-07  0.328E-04    0.55      28.6  T
     SCC iter.                  ...        0 min,  0.127 sec
     gradient                   ...        0 min,  0.025 sec
 * total energy  :  -209.4453152 Eh     change       -0.3405370E-03 Eh
   gradient norm :     0.0175645 Eh/α   predicted    -0.3309839E-03 (  -2.81%)
   displ. norm   :     0.3531318 α      lambda       -0.6092410E-03
   maximum displ.:     0.1435131 α      in ANC's #8, #5, #14, ...

........................................................................
.............................. CYCLE   27 ..............................
........................................................................
   1   -213.0697033 -0.213070E+03  0.119E-01    0.55       0.0  T
   2   -213.0697094 -0.609748E-05  0.637E-02    0.55       1.0  T
   3   -213.0693882  0.321236E-03  0.412E-02    0.54       1.0  T
   4   -213.0697128 -0.324604E-03  0.103E-02    0.55       1.0  T
   5   -213.0697192 -0.648591E-05  0.660E-03    0.55       1.4  T
   6   -213.0697243 -0.500301E-05  0.172E-03    0.55       5.4  T
   7   -213.0697247 -0.431500E-06  0.696E-04    0.55      13.5  T
   8   -213.0697247 -0.513024E-07  0.377E-04    0.55      24.8  T
     SCC iter.                  ...        0 min,  0.128 sec
     gradient                   ...        0 min,  0.025 sec
 * total energy  :  -209.4457428 Eh     change       -0.4276139E-03 Eh
   gradient norm :     0.0069094 Eh/α   predicted    -0.3426099E-03 ( -19.88%)
   displ. norm   :     0.6141815 α      lambda       -0.9862276E-03
   maximum displ.:     0.2598209 α      in ANC's #8, #5, #15, ...

........................................................................
.............................. CYCLE   28 ..............................
........................................................................
   1   -213.0755168 -0.213076E+03  0.201E-01    0.55       0.0  T
   2   -213.0754837  0.331341E-04  0.109E-01    0.56       1.0  T
   3   -213.0729492  0.253454E-02  0.111E-01    0.52       1.0  T
   4   -213.0755594 -0.261022E-02  0.170E-02    0.55       1.0  T
   5   -213.0755594 -0.466643E-07  0.135E-02    0.55       1.0  T
   6   -213.0755821 -0.226694E-04  0.415E-03    0.55       2.3  T
   7   -213.0755851 -0.296561E-05  0.132E-03    0.55       7.1  T
   8   -213.0755853 -0.228717E-06  0.631E-04    0.55      14.8  T
     SCC iter.                  ...        0 min,  0.140 sec
     gradient                   ...        0 min,  0.025 sec
 * total energy  :  -209.4459492 Eh     change       -0.2063409E-03 Eh
   gradient norm :     0.0274992 Eh/α   predicted    -0.6791298E-03 ( 229.13%)
   displ. norm   :     0.3170864 α      lambda       -0.9172669E-03
   maximum displ.:     0.1482746 α      in ANC's #8, #5, #14, ...

........................................................................
.............................. CYCLE   29 ..............................
........................................................................
   1   -213.0728547 -0.213073E+03  0.117E-01    0.55       0.0  T
   2   -213.0728683 -0.136118E-04  0.624E-02    0.55       1.0  T
   3   -213.0728199  0.484293E-04  0.183E-02    0.55       1.0  T
   4   -213.0728518 -0.318953E-04  0.121E-02    0.54       1.0  T
   5   -213.0728684 -0.165771E-04  0.679E-03    0.55       1.4  T
   6   -213.0728752 -0.681564E-05  0.155E-03    0.55       6.0  T
   7   -213.0728755 -0.346293E-06  0.731E-04    0.55      12.8  T
   8   -213.0728756 -0.549512E-07  0.379E-04    0.55      24.7  T
     SCC iter.                  ...        0 min,  0.117 sec
     gradient                   ...        0 min,  0.025 sec
 * total energy  :  -209.4465895 Eh     change       -0.6403702E-03 Eh
   gradient norm :     0.0105301 Eh/α   predicted    -0.5047461E-03 ( -21.18%)
   displ. norm   :     0.5248643 α      lambda       -0.5286472E-03
   maximum displ.:     0.2530260 α      in ANC's #8, #5, #14, ...

........................................................................
.............................. CYCLE   30 ..............................
........................................................................
   1   -213.0693296 -0.213069E+03  0.157E-01    0.55       0.0  T
   2   -213.0693509 -0.213335E-04  0.828E-02    0.55       1.0  T
   3   -213.0693206  0.303595E-04  0.197E-02    0.55       1.0  T
   4   -213.0693393 -0.187126E-04  0.134E-02    0.55       1.0  T
   5   -213.0693449 -0.561547E-05  0.868E-03    0.54       1.1  T
   6   -213.0693585 -0.135643E-04  0.276E-03    0.55       3.4  T
   7   -213.0693598 -0.130268E-05  0.687E-04    0.55      13.6  T
   8   -213.0693598 -0.242679E-07  0.433E-04    0.55      21.6  T
     SCC iter.                  ...        0 min,  0.133 sec
     gradient                   ...        0 min,  0.025 sec
 * total energy  :  -209.4469898 Eh     change       -0.4002590E-03 Eh
   gradient norm :     0.0090522 Eh/α   predicted    -0.3371415E-03 ( -15.77%)
   displ. norm   :     0.5791821 α      lambda       -0.5319025E-03
   maximum displ.:     0.2802843 α      in ANC's #8, #5, #15, ...

........................................................................
.............................. CYCLE   31 ..............................
........................................................................
   1   -213.0714073 -0.213071E+03  0.166E-01    0.55       0.0  T
   2   -213.0714287 -0.213867E-04  0.872E-02    0.55       1.0  T
   3   -213.0713762  0.525374E-04  0.227E-02    0.54       1.0  T
   4   -213.0713968 -0.206199E-04  0.165E-02    0.55       1.0  T
   5   -213.0714065 -0.974371E-05  0.135E-02    0.54       1.0  T
   6   -213.0714376 -0.310583E-04  0.253E-03    0.55       3.7  T
   7   -213.0714386 -0.106077E-05  0.726E-04    0.55      12.9  T
   8   -213.0714387 -0.284297E-07  0.429E-04    0.55      21.8  T
     SCC iter.                  ...        0 min,  0.134 sec
     gradient                   ...        0 min,  0.025 sec
 * total energy  :  -209.4473969 Eh     change       -0.4071029E-03 Eh
   gradient norm :     0.0095943 Eh/α   predicted    -0.3551657E-03 ( -12.76%)
   displ. norm   :     0.6480811 α      lambda       -0.5245429E-03
   maximum displ.:     0.3153664 α      in ANC's #8, #5, #15, ...

........................................................................
.............................. CYCLE   32 ..............................
........................................................................
   1   -213.0718116 -0.213072E+03  0.179E-01    0.55       0.0  T
   2   -213.0718346 -0.230403E-04  0.945E-02    0.54       1.0  T
   3   -213.0717727  0.619576E-04  0.261E-02    0.55       1.0  T
   4   -213.0718270 -0.543693E-04  0.153E-02    0.54       1.0  T
   5   -213.0718379 -0.108184E-04  0.659E-03    0.55       1.4  T
   6   -213.0718448 -0.698656E-05  0.277E-03    0.54       3.4  T
   7   -213.0718463 -0.149187E-05  0.699E-04    0.54      13.4  T
   8   -213.0718464 -0.420889E-07  0.358E-04    0.54      26.2  T
     SCC iter.                  ...        0 min,  0.132 sec
     gradient                   ...        0 min,  0.025 sec
 * total energy  :  -209.4478547 Eh     change       -0.4578236E-03 Eh
   gradient norm :     0.0095426 Eh/α   predicted    -0.3724309E-03 ( -18.65%)
   displ. norm   :     0.7138595 α      lambda       -0.5833551E-03
   maximum displ.:     0.3529146 α      in ANC's #8, #5, #4, ...

........................................................................
.............................. CYCLE   33 ..............................
........................................................................
   1   -213.0745947 -0.213075E+03  0.192E-01    0.54       0.0  T
   2   -213.0746163 -0.215684E-04  0.102E-01    0.54       1.0  T
   3   -213.0743833  0.233002E-03  0.402E-02    0.55       1.0  T
   4   -213.0745867 -0.203440E-03  0.197E-02    0.54       1.0  T
   5   -213.0745833  0.344582E-05  0.161E-02    0.54       1.0  T
   6   -213.0746349 -0.515881E-04  0.310E-03    0.54       3.0  T
   7   -213.0746362 -0.134246E-05  0.833E-04    0.54      11.2  T
   8   -213.0746363 -0.417745E-07  0.527E-04    0.54      17.8  T
     SCC iter.                  ...        0 min,  0.134 sec
     gradient                   ...        0 min,  0.025 sec
 * total energy  :  -209.4483415 Eh     change       -0.4867996E-03 Eh
   gradient norm :     0.0067328 Eh/α   predicted    -0.4403184E-03 (  -9.55%)
   displ. norm   :     0.7478689 α      lambda       -0.5718743E-03
   maximum displ.:     0.3700554 α      in ANC's #8, #5, #4, ...

........................................................................
.............................. CYCLE   34 ..............................
........................................................................
   1   -213.0718729 -0.213072E+03  0.201E-01    0.54       0.0  T
   2   -213.0718984 -0.254329E-04  0.106E-01    0.54       1.0  T
   3   -213.0717355  0.162906E-03  0.334E-02    0.53       1.0  T
   4   -213.0718387 -0.103281E-03  0.221E-02    0.54       1.0  T
   5   -213.0718758 -0.370661E-04  0.154E-02    0.53       1.0  T
   6   -213.0719138 -0.379939E-04  0.227E-03    0.54       4.1  T
   7   -213.0719145 -0.682496E-06  0.728E-04    0.54      12.9  T
   8   -213.0719145 -0.224935E-07  0.440E-04    0.54      21.3  T
     SCC iter.                  ...        0 min,  0.132 sec
     gradient                   ...        0 min,  0.025 sec
 * total energy  :  -209.4487984 Eh     change       -0.4568977E-03 Eh
   gradient norm :     0.0072986 Eh/α   predicted    -0.4458709E-03 (  -2.41%)
   displ. norm   :     0.7100004 α      lambda       -0.5804047E-03
   maximum displ.:     0.3457327 α      in ANC's #8, #5, #4, ...

........................................................................
.............................. CYCLE   35 ..............................
........................................................................
   1   -213.0782751 -0.213078E+03  0.182E-01    0.53       0.0  T
   2   -213.0782962 -0.210605E-04  0.972E-02    0.53       1.0  T
   3   -213.0781651  0.131070E-03  0.314E-02    0.54       1.0  T
   4   -213.0782746 -0.109457E-03  0.171E-02    0.53       1.0  T
   5   -213.0782693  0.521553E-05  0.141E-02    0.54       1.0  T
   6   -213.0783093 -0.399483E-04  0.324E-03    0.53       2.9  T
   7   -213.0783109 -0.161792E-05  0.938E-04    0.53      10.0  T
   8   -213.0783110 -0.715559E-07  0.548E-04    0.53      17.1  T
     SCC iter.                  ...        0 min,  0.133 sec
     gradient                   ...        0 min,  0.025 sec
 * total energy  :  -209.4492589 Eh     change       -0.4605267E-03 Eh
   gradient norm :     0.0109043 Eh/α   predicted    -0.4364970E-03 (  -5.22%)
   displ. norm   :     0.7359466 α      lambda       -0.5869832E-03
   maximum displ.:     0.3624935 α      in ANC's #8, #5, #4, ...

........................................................................
.............................. CYCLE   36 ..............................
........................................................................
   1   -213.0733437 -0.213073E+03  0.197E-01    0.53       0.0  T
   2   -213.0733701 -0.264707E-04  0.104E-01    0.53       1.0  T
   3   -213.0732048  0.165371E-03  0.337E-02    0.52       1.0  T
   4   -213.0733205 -0.115731E-03  0.210E-02    0.54       1.0  T
   5   -213.0733538 -0.333494E-04  0.133E-02    0.53       1.0  T
   6   -213.0733847 -0.308797E-04  0.300E-03    0.53       3.1  T
   7   -213.0733862 -0.153030E-05  0.893E-04    0.53      10.5  T
   8   -213.0733863 -0.449064E-07  0.539E-04    0.53      17.4  T
     SCC iter.                  ...        0 min,  0.120 sec
     gradient                   ...        0 min,  0.025 sec
 * total energy  :  -209.4497427 Eh     change       -0.4837297E-03 Eh
   gradient norm :     0.0095871 Eh/α   predicted    -0.4524541E-03 (  -6.47%)
   displ. norm   :     0.7242671 α      lambda       -0.5146713E-03
   maximum displ.:     0.3477542 α      in ANC's #8, #5, #1, ...

........................................................................
.............................. CYCLE   37 ..............................
........................................................................
   1   -213.0733753 -0.213073E+03  0.174E-01    0.52       0.0  T
   2   -213.0733827 -0.740576E-05  0.935E-02    0.53       1.0  T
   3   -213.0727703  0.612375E-03  0.558E-02    0.51       1.0  T
   4   -213.0733850 -0.614678E-03  0.157E-02    0.53       1.0  T
   5   -213.0733936 -0.854778E-05  0.973E-03    0.53       1.0  T
   6   -213.0734086 -0.150154E-04  0.237E-03    0.53       4.0  T
   7   -213.0734095 -0.914554E-06  0.779E-04    0.53      12.0  T
   8   -213.0734095 -0.286011E-07  0.488E-04    0.53      19.2  T
     SCC iter.                  ...        0 min,  0.121 sec
     gradient                   ...        0 min,  0.026 sec
 * total energy  :  -209.4501836 Eh     change       -0.4409752E-03 Eh
   gradient norm :     0.0073489 Eh/α   predicted    -0.3923270E-03 ( -11.03%)
   displ. norm   :     0.7883881 α      lambda       -0.4834900E-03
   maximum displ.:     0.3821939 α      in ANC's #8, #5, #1, ...

........................................................................
.............................. CYCLE   38 ..............................
........................................................................
   1   -213.0694363 -0.213069E+03  0.193E-01    0.52       0.0  T
   2   -213.0694397 -0.338939E-05  0.103E-01    0.53       1.0  T
   3   -213.0684784  0.961302E-03  0.700E-02    0.50       1.0  T
   4   -213.0694535 -0.975054E-03  0.172E-02    0.52       1.0  T
   5   -213.0694641 -0.105988E-04  0.984E-03    0.52       1.0  T
   6   -213.0694783 -0.142748E-04  0.216E-03    0.52       4.3  T
   7   -213.0694791 -0.722851E-06  0.770E-04    0.52      12.2  T
   8   -213.0694791 -0.303218E-07  0.491E-04    0.52      19.1  T
     SCC iter.                  ...        0 min,  0.120 sec
     gradient                   ...        0 min,  0.025 sec
 * total energy  :  -209.4506030 Eh     change       -0.4193734E-03 Eh
   gradient norm :     0.0065581 Eh/α   predicted    -0.3920065E-03 (  -6.53%)
   displ. norm   :     0.7312956 α      lambda       -0.5219831E-03
   maximum displ.:     0.3685230 α      in ANC's #5, #8, #1, ...

........................................................................
.............................. CYCLE   39 ..............................
........................................................................
   1   -213.0785814 -0.213079E+03  0.153E-01    0.51       0.0  T
   2   -213.0785786  0.280575E-05  0.831E-02    0.52       1.0  T
   3   -213.0777437  0.834926E-03  0.639E-02    0.50       1.0  T
   4   -213.0785914 -0.847698E-03  0.139E-02    0.52       1.0  T
   5   -213.0786039 -0.125273E-04  0.757E-03    0.52       1.2  T
   6   -213.0786101 -0.615274E-05  0.175E-03    0.52       5.3  T
   7   -213.0786104 -0.367432E-06  0.687E-04    0.52      13.6  T
   8   -213.0786104 -0.264403E-07  0.452E-04    0.52      20.7  T
     SCC iter.                  ...        0 min,  0.132 sec
     gradient                   ...        0 min,  0.025 sec
 * total energy  :  -209.4509935 Eh     change       -0.3904972E-03 Eh
   gradient norm :     0.0081115 Eh/α   predicted    -0.4005705E-03 (   2.58%)
   displ. norm   :     0.7819388 α      lambda       -0.4745046E-03
   maximum displ.:     0.3967081 α      in ANC's #5, #8, #1, ...

........................................................................
.............................. CYCLE   40 ..............................
........................................................................
   1   -213.0699576 -0.213070E+03  0.182E-01    0.52       0.0  T
   2   -213.0699773 -0.196315E-04  0.969E-02    0.52       1.0  T
   3   -213.0697833  0.193984E-03  0.357E-02    0.50       1.0  T
   4   -213.0699323 -0.149034E-03  0.200E-02    0.52       1.0  T
   5   -213.0699676 -0.352537E-04  0.118E-02    0.52       1.0  T
   6   -213.0699905 -0.229730E-04  0.242E-03    0.52       3.9  T
   7   -213.0699915 -0.934956E-06  0.743E-04    0.52      12.6  T
   8   -213.0699915 -0.237144E-07  0.458E-04    0.52      20.4  T
     SCC iter.                  ...        0 min,  0.134 sec
     gradient                   ...        0 min,  0.025 sec
 * total energy  :  -209.4513857 Eh     change       -0.3921642E-03 Eh
   gradient norm :     0.0080404 Eh/α   predicted    -0.3823176E-03 (  -2.51%)
   displ. norm   :     0.6599799 α      lambda       -0.4432319E-03
   maximum displ.:     0.3506368 α      in ANC's #5, #1, #8, ...

........................................................................
.............................. CYCLE   41 ..............................
........................................................................
   1   -213.0717596 -0.213072E+03  0.141E-01    0.52       0.0  T
   2   -213.0717737 -0.141124E-04  0.757E-02    0.52       1.0  T
   3   -213.0717269  0.467475E-04  0.201E-02    0.51       1.0  T
   4   -213.0717415 -0.145772E-04  0.156E-02    0.52       1.0  T
   5   -213.0717644 -0.228915E-04  0.950E-03    0.52       1.0  T
   6   -213.0717796 -0.151994E-04  0.218E-03    0.52       4.3  T
   7   -213.0717804 -0.854624E-06  0.639E-04    0.52      14.7  T
   8   -213.0717805 -0.184580E-07  0.400E-04    0.52      23.4  T
     SCC iter.                  ...        0 min,  0.128 sec
     gradient                   ...        0 min,  0.025 sec
 * total energy  :  -209.4517447 Eh     change       -0.3590124E-03 Eh
   gradient norm :     0.0089193 Eh/α   predicted    -0.3181461E-03 ( -11.38%)
   displ. norm   :     0.7018494 α      lambda       -0.4456778E-03
   maximum displ.:     0.3797415 α      in ANC's #5, #1, #8, ...

........................................................................
.............................. CYCLE   42 ..............................
........................................................................
   1   -213.0730209 -0.213073E+03  0.136E-01    0.52       0.0  T
   2   -213.0730260 -0.509538E-05  0.746E-02    0.51       1.0  T
   3   -213.0726656  0.360338E-03  0.444E-02    0.53       1.0  T
   4   -213.0730204 -0.354780E-03  0.131E-02    0.51       1.0  T
   5   -213.0730342 -0.137999E-04  0.771E-03    0.52       1.2  T
   6   -213.0730418 -0.752830E-05  0.220E-03    0.52       4.3  T
   7   -213.0730425 -0.733254E-06  0.700E-04    0.52      13.4  T
   8   -213.0730425 -0.400872E-07  0.367E-04    0.52      25.5  T
     SCC iter.                  ...        0 min,  0.128 sec
     gradient                   ...        0 min,  0.025 sec
 * total energy  :  -209.4521190 Eh     change       -0.3742686E-03 Eh
   gradient norm :     0.0057852 Eh/α   predicted    -0.3326204E-03 ( -11.13%)
   displ. norm   :     0.7478726 α      lambda       -0.4235735E-03
   maximum displ.:     0.4079147 α      in ANC's #5, #1, #8, ...
 * RMSD in coord.:     1.0379942 α      energy gain  -0.8688580E-02 Eh

generating ANC from model Hessian ...
Using Lindh-Hessian (1995)
 Shifting diagonal of input Hessian by   5.022041960411313E-003
 Lowest  eigenvalues of input Hessian
    0.005000    0.005017   -0.000000   -0.000000   -0.000000   -0.000000
    0.000000    0.000000    0.005033    0.005050    0.005057    0.005095
    0.005127    0.005271    0.005278    0.005361    0.005424    0.005444
 Highest eigenvalues
    2.261275    2.279740    2.596627    2.599671    2.641238    2.646748
 

........................................................................
.............................. CYCLE   43 ..............................
........................................................................
   1   -213.0754716 -0.213075E+03  0.144E-01    0.52       0.0  T
   2   -213.0754785 -0.690161E-05  0.790E-02    0.51       1.0  T
   3   -213.0751562  0.322287E-03  0.434E-02    0.53       1.0  T
   4   -213.0754692 -0.313006E-03  0.137E-02    0.51       1.0  T
   5   -213.0754801 -0.109382E-04  0.937E-03    0.52       1.0  T
   6   -213.0754940 -0.138341E-04  0.231E-03    0.52       4.0  T
   7   -213.0754948 -0.791605E-06  0.725E-04    0.52      12.9  T
   8   -213.0754948 -0.377701E-07  0.374E-04    0.52      25.0  T
     SCC iter.                  ...        0 min,  0.119 sec
     gradient                   ...        0 min,  0.026 sec
 * total energy  :  -209.4524845 Eh     change       -0.3655512E-03 Eh
   gradient norm :     0.0065244 Eh/α   predicted     0.0000000E+00 (-100.00%)
   displ. norm   :     0.1377179 α      lambda       -0.1877775E-03
   maximum displ.:     0.0765229 α      in ANC's #4, #13, #1, ...

........................................................................
.............................. CYCLE   44 ..............................
........................................................................
   1   -213.0768078 -0.213077E+03  0.555E-02    0.52       0.0  T
   2   -213.0768110 -0.326796E-05  0.306E-02    0.52       1.0  T
   3   -213.0768007  0.103491E-04  0.854E-03    0.52       1.1  T
   4   -213.0768124 -0.116721E-04  0.259E-03    0.52       3.6  T
   5   -213.0768126 -0.249846E-06  0.187E-03    0.52       5.0  T
   6   -213.0768130 -0.397828E-06  0.849E-04    0.52      11.0  T
     SCC iter.                  ...        0 min,  0.098 sec
     gradient                   ...        0 min,  0.025 sec
 * total energy  :  -209.4525505 Eh     change       -0.6595572E-04 Eh
   gradient norm :     0.0051711 Eh/α   predicted    -0.9570652E-04 (  45.11%)
   displ. norm   :     0.1699134 α      lambda       -0.3294941E-03
   maximum displ.:     0.0849066 α      in ANC's #1, #4, #41, ...

........................................................................
.............................. CYCLE   45 ..............................
........................................................................
   1   -213.0797666 -0.213080E+03  0.787E-02    0.51       0.0  T
   2   -213.0797727 -0.606533E-05  0.433E-02    0.52       1.0  T
   3   -213.0797208  0.518796E-04  0.175E-02    0.51       1.0  T
   4   -213.0797704 -0.496302E-04  0.630E-03    0.52       1.5  T
   5   -213.0797766 -0.618944E-05  0.277E-03    0.51       3.4  T
   6   -213.0797774 -0.743192E-06  0.902E-04    0.52      10.4  T
   7   -213.0797774 -0.739368E-07  0.427E-04    0.52      21.9  T
     SCC iter.                  ...        0 min,  0.113 sec
     gradient                   ...        0 min,  0.025 sec
 * total energy  :  -209.4526424 Eh     change       -0.9197264E-04 Eh
   gradient norm :     0.0087761 Eh/α   predicted    -0.1695061E-03 (  84.30%)
   displ. norm   :     0.1416024 α      lambda       -0.2655440E-03
   maximum displ.:     0.0557649 α      in ANC's #4, #1, #10, ...

........................................................................
.............................. CYCLE   46 ..............................
........................................................................
   1   -213.0784834 -0.213078E+03  0.805E-02    0.51       0.0  T
   2   -213.0784852 -0.178534E-05  0.444E-02    0.52       1.0  T
   3   -213.0782529  0.232263E-03  0.335E-02    0.50       1.0  T
   4   -213.0784921 -0.239138E-03  0.523E-03    0.52       1.8  T
   5   -213.0784950 -0.290849E-05  0.282E-03    0.51       3.3  T
   6   -213.0784955 -0.502540E-06  0.113E-03    0.51       8.3  T
     SCC iter.                  ...        0 min,  0.096 sec
     gradient                   ...        0 min,  0.025 sec
 * total energy  :  -209.4526139 Eh     change        0.2858201E-04 Eh
   gradient norm :     0.0081367 Eh/α   predicted    -0.1354376E-03 (-573.86%)
   displ. norm   :     0.0999146 α      lambda       -0.3962903E-03
   maximum displ.:     0.0395427 α      in ANC's #1, #4, #27, ...

........................................................................
.............................. CYCLE   47 ..............................
........................................................................
   1   -213.0759840 -0.213076E+03  0.712E-02    0.52       0.0  T
   2   -213.0759848 -0.831188E-06  0.389E-02    0.51       1.0  T
   3   -213.0757718  0.212964E-03  0.326E-02    0.52       1.0  T
   4   -213.0759912 -0.219400E-03  0.511E-03    0.51       1.8  T
   5   -213.0759943 -0.304042E-05  0.251E-03    0.52       3.7  T
   6   -213.0759947 -0.422374E-06  0.125E-03    0.51       7.5  T
   7   -213.0759950 -0.243758E-06  0.418E-04    0.51      22.4  T
     SCC iter.                  ...        0 min,  0.112 sec
     gradient                   ...        0 min,  0.025 sec
 * total energy  :  -209.4528090 Eh     change       -0.1951225E-03 Eh
   gradient norm :     0.0048212 Eh/α   predicted    -0.2001272E-03 (   2.56%)
   displ. norm   :     0.1537673 α      lambda       -0.1914429E-03
   maximum displ.:     0.0779505 α      in ANC's #1, #4, #57, ...

........................................................................
.............................. CYCLE   48 ..............................
........................................................................
   1   -213.0756545 -0.213076E+03  0.681E-02    0.52       0.0  T
   2   -213.0756591 -0.459938E-05  0.376E-02    0.52       1.0  T
   3   -213.0756475  0.116315E-04  0.989E-03    0.52       1.0  T
   4   -213.0756613 -0.137999E-04  0.265E-03    0.52       3.5  T
   5   -213.0756607  0.552256E-06  0.269E-03    0.51       3.5  T
   6   -213.0756618 -0.104621E-05  0.126E-03    0.52       7.4  T
     SCC iter.                  ...        0 min,  0.098 sec
     gradient                   ...        0 min,  0.025 sec
 * total energy  :  -209.4528333 Eh     change       -0.2429433E-04 Eh
   gradient norm :     0.0062983 Eh/α   predicted    -0.9798528E-04 ( 303.33%)
   displ. norm   :     0.1687480 α      lambda       -0.2180543E-03
   maximum displ.:     0.0886713 α      in ANC's #1, #4, #13, ...

........................................................................
.............................. CYCLE   49 ..............................
........................................................................
   1   -213.0772402 -0.213077E+03  0.475E-02    0.52       0.0  T
   2   -213.0772423 -0.209189E-05  0.263E-02    0.52       1.0  T
   3   -213.0772346  0.775802E-05  0.726E-03    0.51       1.3  T
   4   -213.0772412 -0.660868E-05  0.388E-03    0.52       2.4  T
   5   -213.0772422 -0.107085E-05  0.275E-03    0.51       3.4  T
   6   -213.0772434 -0.120138E-05  0.758E-04    0.52      12.4  T
     SCC iter.                  ...        0 min,  0.098 sec
     gradient                   ...        0 min,  0.025 sec
 * total energy  :  -209.4529846 Eh     change       -0.1512864E-03 Eh
   gradient norm :     0.0033802 Eh/α   predicted    -0.1121330E-03 ( -25.88%)
   displ. norm   :     0.3191862 α      lambda       -0.1919240E-03
   maximum displ.:     0.1777028 α      in ANC's #1, #4, #13, ...

........................................................................
.............................. CYCLE   50 ..............................
........................................................................
   1   -213.0767600 -0.213077E+03  0.770E-02    0.52       0.0  T
   2   -213.0767642 -0.417279E-05  0.414E-02    0.52       1.0  T
   3   -213.0767540  0.101624E-04  0.975E-03    0.51       1.0  T
   4   -213.0767614 -0.736160E-05  0.628E-03    0.52       1.5  T
   5   -213.0767646 -0.321994E-05  0.318E-03    0.52       2.9  T
   6   -213.0767662 -0.158553E-05  0.988E-04    0.52       9.5  T
   7   -213.0767663 -0.140874E-06  0.524E-04    0.52      17.9  T
   8   -213.0767664 -0.293207E-07  0.278E-04    0.52      33.7  T
     SCC iter.                  ...        0 min,  0.118 sec
     gradient                   ...        0 min,  0.026 sec
 * total energy  :  -209.4531393 Eh     change       -0.1547208E-03 Eh
   gradient norm :     0.0035760 Eh/α   predicted    -0.1057408E-03 ( -31.66%)
   displ. norm   :     0.5177089 α      lambda       -0.2458690E-03
   maximum displ.:     0.2942231 α      in ANC's #1, #4, #13, ...

........................................................................
.............................. CYCLE   51 ..............................
........................................................................
   1   -213.0758069 -0.213076E+03  0.116E-01    0.52       0.0  T
   2   -213.0758152 -0.835863E-05  0.627E-02    0.52       1.0  T
   3   -213.0757940  0.212717E-04  0.145E-02    0.52       1.0  T
   4   -213.0758083 -0.143228E-04  0.959E-03    0.52       1.0  T
   5   -213.0758151 -0.680731E-05  0.486E-03    0.52       1.9  T
   6   -213.0758190 -0.393388E-05  0.158E-03    0.52       5.9  T
   7   -213.0758194 -0.422210E-06  0.660E-04    0.52      14.2  T
   8   -213.0758195 -0.436688E-07  0.374E-04    0.52      25.0  T
     SCC iter.                  ...        0 min,  0.118 sec
     gradient                   ...        0 min,  0.026 sec
 * total energy  :  -209.4533516 Eh     change       -0.2123009E-03 Eh
   gradient norm :     0.0040427 Eh/α   predicted    -0.1558891E-03 ( -26.57%)
   displ. norm   :     0.6324500 α      lambda       -0.3061619E-03
   maximum displ.:     0.3650096 α      in ANC's #1, #4, #13, ...

........................................................................
.............................. CYCLE   52 ..............................
........................................................................
   1   -213.0749002 -0.213075E+03  0.138E-01    0.52       0.0  T
   2   -213.0749116 -0.113512E-04  0.750E-02    0.52       1.0  T
   3   -213.0748649  0.466874E-04  0.192E-02    0.51       1.0  T
   4   -213.0748858 -0.209418E-04  0.142E-02    0.52       1.0  T
   5   -213.0749020 -0.161961E-04  0.918E-03    0.52       1.0  T
   6   -213.0749171 -0.150921E-04  0.192E-03    0.52       4.9  T
   7   -213.0749178 -0.641855E-06  0.676E-04    0.52      13.9  T
   8   -213.0749178 -0.258700E-07  0.399E-04    0.52      23.5  T
     SCC iter.                  ...        0 min,  0.128 sec
     gradient                   ...        0 min,  0.025 sec
 * total energy  :  -209.4536170 Eh     change       -0.2654743E-03 Eh
   gradient norm :     0.0040668 Eh/α   predicted    -0.2143149E-03 ( -19.27%)
   displ. norm   :     0.6117553 α      lambda       -0.3124428E-03
   maximum displ.:     0.3531693 α      in ANC's #1, #4, #13, ...

........................................................................
.............................. CYCLE   53 ..............................
........................................................................
   1   -213.0748086 -0.213075E+03  0.132E-01    0.52       0.0  T
   2   -213.0748204 -0.118168E-04  0.721E-02    0.52       1.0  T
   3   -213.0748138  0.661161E-05  0.125E-02    0.52       1.0  T
   4   -213.0747979  0.158172E-04  0.130E-02    0.52       1.0  T
   5   -213.0748155 -0.175159E-04  0.682E-03    0.52       1.4  T
   6   -213.0748244 -0.895669E-05  0.121E-03    0.52       7.7  T
   7   -213.0748246 -0.211154E-06  0.598E-04    0.52      15.6  T
   8   -213.0748246 -0.248683E-07  0.349E-04    0.52      26.9  T
     SCC iter.                  ...        0 min,  0.128 sec
     gradient                   ...        0 min,  0.025 sec
 * total energy  :  -209.4538912 Eh     change       -0.2741801E-03 Eh
   gradient norm :     0.0052111 Eh/α   predicted    -0.2146920E-03 ( -21.70%)
   displ. norm   :     0.6870715 α      lambda       -0.3353434E-03
   maximum displ.:     0.3915936 α      in ANC's #1, #4, #13, ...

........................................................................
.............................. CYCLE   54 ..............................
........................................................................
   1   -213.0763683 -0.213076E+03  0.141E-01    0.52       0.0  T
   2   -213.0763783 -0.100350E-04  0.771E-02    0.52       1.0  T
   3   -213.0762670  0.111355E-03  0.266E-02    0.51       1.0  T
   4   -213.0763588 -0.918411E-04  0.137E-02    0.52       1.0  T
   5   -213.0763778 -0.189334E-04  0.725E-03    0.52       1.3  T
   6   -213.0763856 -0.782480E-05  0.146E-03    0.52       6.4  T
   7   -213.0763859 -0.320279E-06  0.574E-04    0.52      16.3  T
   8   -213.0763859 -0.164943E-07  0.325E-04    0.52      28.8  T
     SCC iter.                  ...        0 min,  0.126 sec
     gradient                   ...        0 min,  0.025 sec
 * total energy  :  -209.4541922 Eh     change       -0.3009361E-03 Eh
   gradient norm :     0.0051081 Eh/α   predicted    -0.2468294E-03 ( -17.98%)
   displ. norm   :     0.7163535 α      lambda       -0.3456874E-03
   maximum displ.:     0.4075561 α      in ANC's #1, #4, #7, ...

........................................................................
.............................. CYCLE   55 ..............................
........................................................................
   1   -213.0765028 -0.213077E+03  0.147E-01    0.52       0.0  T
   2   -213.0765145 -0.117853E-04  0.809E-02    0.52       1.0  T
   3   -213.0763948  0.119765E-03  0.273E-02    0.51       1.0  T
   4   -213.0764955 -0.100751E-03  0.138E-02    0.52       1.0  T
   5   -213.0765144 -0.189004E-04  0.743E-03    0.52       1.3  T
   6   -213.0765227 -0.825431E-05  0.146E-03    0.52       6.4  T
   7   -213.0765230 -0.314808E-06  0.595E-04    0.52      15.7  T
   8   -213.0765230 -0.174659E-07  0.334E-04    0.52      28.0  T
     SCC iter.                  ...        0 min,  0.127 sec
     gradient                   ...        0 min,  0.025 sec
 * total energy  :  -209.4545038 Eh     change       -0.3116278E-03 Eh
   gradient norm :     0.0053617 Eh/α   predicted    -0.2615412E-03 ( -16.07%)
   displ. norm   :     0.7203116 α      lambda       -0.3566039E-03
   maximum displ.:     0.3957489 α      in ANC's #4, #1, #7, ...

........................................................................
.............................. CYCLE   56 ..............................
........................................................................
   1   -213.0802323 -0.213080E+03  0.142E-01    0.52       0.0  T
   2   -213.0802436 -0.112939E-04  0.778E-02    0.52       1.0  T
   3   -213.0801548  0.888290E-04  0.247E-02    0.51       1.0  T
   4   -213.0802171 -0.623474E-04  0.149E-02    0.52       1.0  T
   5   -213.0802380 -0.209001E-04  0.914E-03    0.52       1.0  T
   6   -213.0802509 -0.128288E-04  0.147E-03    0.52       6.4  T
   7   -213.0802512 -0.323137E-06  0.715E-04    0.52      13.1  T
   8   -213.0802512 -0.555667E-07  0.354E-04    0.52      26.4  T
     SCC iter.                  ...        0 min,  0.129 sec
     gradient                   ...        0 min,  0.025 sec
 * total energy  :  -209.4548007 Eh     change       -0.2968766E-03 Eh
   gradient norm :     0.0054993 Eh/α   predicted    -0.2708158E-03 (  -8.78%)
   displ. norm   :     0.7286414 α      lambda       -0.3322556E-03
   maximum displ.:     0.4114482 α      in ANC's #1, #4, #7, ...

........................................................................
.............................. CYCLE   57 ..............................
........................................................................
   1   -213.0758389 -0.213076E+03  0.153E-01    0.52       0.0  T
   2   -213.0758556 -0.166829E-04  0.838E-02    0.52       1.0  T
   3   -213.0758347  0.208616E-04  0.150E-02    0.51       1.0  T
   4   -213.0758272  0.749687E-05  0.142E-02    0.52       1.0  T
   5   -213.0758525 -0.252726E-04  0.747E-03    0.52       1.3  T
   6   -213.0758615 -0.897407E-05  0.220E-03    0.52       4.3  T
   7   -213.0758624 -0.890800E-06  0.684E-04    0.52      13.7  T
   8   -213.0758624 -0.279915E-07  0.373E-04    0.52      25.1  T
     SCC iter.                  ...        0 min,  0.133 sec
     gradient                   ...        0 min,  0.025 sec
 * total energy  :  -209.4550668 Eh     change       -0.2661270E-03 Eh
   gradient norm :     0.0079897 Eh/α   predicted    -0.2543352E-03 (  -4.43%)
   displ. norm   :     0.6242693 α      lambda       -0.2472244E-03
   maximum displ.:     0.3544511 α      in ANC's #4, #1, #7, ...

........................................................................
.............................. CYCLE   58 ..............................
........................................................................
   1   -213.0754704 -0.213075E+03  0.118E-01    0.52       0.0  T
   2   -213.0754775 -0.705219E-05  0.647E-02    0.52       1.0  T
   3   -213.0753898  0.876473E-04  0.229E-02    0.52       1.0  T
   4   -213.0754667 -0.768490E-04  0.110E-02    0.51       1.0  T
   5   -213.0754690 -0.226614E-05  0.869E-03    0.52       1.1  T
   6   -213.0754833 -0.143552E-04  0.216E-03    0.52       4.3  T
   7   -213.0754840 -0.716878E-06  0.556E-04    0.52      16.8  T
[...]
    59   6 C      2.952    -0.015    28.377     8.737
    60  16 S      2.233    -0.028   142.231    20.072
    61   6 C      3.024    -0.009    28.213     8.713
    62   6 C      2.899    -0.019    28.482     8.750
    63   6 C      2.902    -0.045    29.107     8.846
    64   6 C      2.900    -0.011    28.285     8.720
    65   6 C      3.013    -0.043    29.054     8.842
    66   6 C      3.017     0.024    27.447     8.594
    67   6 C      2.947    -0.006    28.181     8.707
    68   6 C      1.946     0.121    28.116     8.563
    69   7 N      0.911    -0.252    26.563     7.454
    70   6 C      1.944     0.120    28.122     8.564
    71   7 N      0.911    -0.256    26.648     7.466
    72   6 C      3.030    -0.001    28.022     8.683
    73   6 C      3.036    -0.026    28.621     8.775
    74   6 C      2.870     0.222    23.344     7.920
    75   8 O      0.856    -0.423    22.141     6.309
    76   6 C      2.913    -0.021    28.538     8.760
    77   6 C      2.988     0.012    27.729     8.638
    78   6 C      2.988     0.015    27.665     8.628
    79   6 C      2.916    -0.034    28.854     8.808
    80   6 C      2.920    -0.034    28.853     8.809
    81   6 C      2.916    -0.025    28.630     8.774
    82   6 C      2.916    -0.024    28.614     8.772
    83   6 C      2.918    -0.033    28.834     8.806
    84   1 H      0.926     0.069     2.093     2.262
    85   1 H      0.926     0.065     2.141     2.288
    86   1 H      0.926     0.055     2.261     2.352
    87   1 H      0.926     0.059     2.212     2.326
    88   1 H      0.926     0.062     2.178     2.308
    89   1 H      0.925     0.077     2.011     2.217
    90   1 H      0.925     0.060     2.204     2.322
    91   1 H      0.926     0.072     2.065     2.247
    92   1 H      0.926     0.043     2.411     2.428
    93   1 H      0.926     0.047     2.353     2.399
    94   1 H      0.925     0.048     2.345     2.395
    95   1 H      0.926     0.061     2.187     2.312
    96   1 H      0.926     0.065     2.136     2.285
    97   1 H      0.926     0.065     2.138     2.287
    98   1 H      0.926     0.043     2.413     2.429
    99   1 H      0.926     0.048     2.342     2.393
   100   1 H      0.925     0.048     2.346     2.395
   101   1 H      0.926     0.064     2.151     2.294
   102   1 H      0.926     0.079     1.992     2.207
   103   1 H      0.926     0.064     2.152     2.294
   104   1 H      0.926     0.046     2.369     2.407
   105   1 H      0.926     0.049     2.338     2.391
   106   1 H      0.925     0.050     2.323     2.383
   107   1 H      0.926     0.076     2.026     2.226
   108   1 H      0.925     0.051     2.310     2.377
   109   1 H      0.926     0.046     2.376     2.410
   110   1 H      0.926     0.052     2.298     2.371
   111   1 H      0.926     0.040     2.447     2.446
   112   1 H      0.926     0.057     2.235     2.338
   113   1 H      0.926     0.053     2.277     2.360
   114   1 H      0.926     0.033     2.548     2.496

 Mol. C6AA /au·bohr⁶  :     271634.575157
 Mol. C8AA /au·bohr⁸  :    7861967.104087
 Mol. α(0) /au        :        845.980812


Wiberg/Mayer (AO) data.
largest (>0.10) Wiberg bond orders for each atom
          total WBO             WBO to atom ...
     1  C   3.977        C    2 1.490    C    7 1.292    H   84 0.963    C    5 0.111
     2  C   3.880        C    1 1.490    C    4 1.293    F    3 0.966
     3  F   1.096        C    2 0.966
     4  C   3.976        C    5 1.546    C    2 1.293    H   85 0.966
     5  C   3.981        C    4 1.546    C    6 1.288    H   86 0.967    C    1 0.111
     6  C   3.980        C    5 1.288    C   11 1.269    C    7 1.242
     7  C   3.984        C    1 1.292    C    8 1.268    C    6 1.242
     8  C   3.968        C    9 1.513    C    7 1.268    H   87 0.960
     9  C   3.982        C    8 1.513    C   10 1.197    C   15 1.077
    10  C   3.974        C   11 1.525    C    9 1.197    C   12 1.020
    11  C   3.976        C   10 1.525    C    6 1.269    H   88 0.963
    12  C   3.917        O   13 1.765    C   10 1.020    C   14 1.015
    13  O   2.033        C   12 1.765
    14  C   3.903        C   21 1.504    C   15 1.158    C   12 1.015
    15  C   3.960        C   16 1.453    C   14 1.158    C    9 1.077
    16  C   3.933        C   15 1.453    C   19 1.106    C   17 1.105
    17  C   3.945        N   18 2.747    C   16 1.105
    18  N   2.962        C   17 2.747
    19  C   3.945        N   20 2.761    C   16 1.106
    20  N   2.962        C   19 2.761
    21  C   3.929        C   14 1.504    C   22 1.272    H   89 0.945
    22  C   3.895        C   23 1.397    C   21 1.272    S   27 1.059
    23  C   3.959        C   24 1.398    C   22 1.397    H   90 0.948
    24  C   3.937        C   23 1.398    C   33 1.258    C   25 1.068
    25  C   3.977        C   26 1.568    C   28 1.175    C   24 1.068
    26  C   3.935        C   25 1.568    S   27 1.201    H   91 0.957
    27  S   2.592        C   26 1.201    C   22 1.059
    28  C   3.906        C   29 1.341    C   25 1.175    S   32 1.165
    29  C   3.968        C   28 1.341    C   30 1.242    C   33 1.158
    30  C   3.977        C   31 1.633    C   29 1.242    H   92 0.958
    31  C   3.925        C   30 1.633    S   32 1.174    H   93 0.971
    32  S   2.625        C   31 1.174    C   28 1.165
    33  C   3.924        C   34 1.272    C   24 1.258    C   29 1.158
    34  C   3.928        C   35 1.548    C   33 1.272    H   94 0.947
    35  C   3.892        C   34 1.548    C   36 1.248    H   95 0.950
    36  C   3.909        C   37 1.421    C   35 1.248    S   41 1.066
    37  C   3.925        C   36 1.421    C   38 1.369    H   96 0.940
    38  C   3.929        C   37 1.369    C   47 1.280    C   39 1.068
    39  C   3.978        C   40 1.575    C   42 1.169    C   38 1.068
    40  C   3.938        C   39 1.575    S   41 1.193    H   97 0.959
    41  S   2.586        C   40 1.193    C   36 1.066
    42  C   3.904        C   43 1.361    C   39 1.169    S   46 1.151
    43  C   3.972        C   42 1.361    C   44 1.242    C   47 1.144
    44  C   3.977        C   45 1.636    C   43 1.242    H   98 0.962
    45  C   3.925        C   44 1.636    S   46 1.172    H   99 0.971
    46  S   2.603        C   45 1.172    C   42 1.151
    47  C   3.915        C   38 1.280    C   48 1.268    C   43 1.144
    48  C   3.928        C   49 1.551    C   47 1.268    H  100 0.955
    49  C   3.911        C   48 1.551    C   50 1.249    H  101 0.942
    50  C   3.912        C   51 1.407    C   49 1.249    S   55 1.080
    51  C   3.930        C   50 1.407    C   52 1.383    H  102 0.935
    52  C   3.938        C   51 1.383    C   61 1.259    C   53 1.076
    53  C   3.973        C   54 1.570    C   56 1.165    C   52 1.076
    54  C   3.939        C   53 1.570    S   55 1.192    H  103 0.959
    55  S   2.586        C   54 1.192    C   50 1.080
    56  C   3.905        C   57 1.367    C   53 1.165    S   60 1.149
    57  C   3.973        C   56 1.367    C   58 1.246    C   61 1.134
    58  C   3.978        C   59 1.632    C   57 1.246    H  104 0.962
    59  C   3.927        C   58 1.632    S   60 1.175    H  105 0.971
    60  S   2.603        C   59 1.175    C   56 1.149
    61  C   3.922        C   62 1.310    C   52 1.259    C   57 1.134
    62  C   3.942        C   63 1.481    C   61 1.310    H  106 0.959
    63  C   3.919        C   62 1.481    C   64 1.344    H  107 0.940
    64  C   3.936        C   65 1.449    C   63 1.344    H  108 0.950
    65  C   3.908        C   64 1.449    C   66 1.167    C   74 1.062
    66  C   3.965        C   67 1.453    C   65 1.167    C   72 1.083
    67  C   3.917        C   66 1.453    C   70 1.106    C   68 1.104
    68  C   3.943        N   69 2.751    C   67 1.104
    69  N   2.958        C   68 2.751
    70  C   3.944        N   71 2.745    C   67 1.106
    71  N   2.957        C   70 2.745
    72  C   3.982        C   79 1.510    C   73 1.197    C   66 1.083
    73  C   3.980        C   76 1.527    C   72 1.197    C   74 1.029
    74  C   3.916        O   75 1.705    C   65 1.062    C   73 1.029
    75  O   1.991        C   74 1.705
    76  C   3.977        C   73 1.527    C   77 1.264    H  109 0.964
    77  C   3.980        C   83 1.292    C   76 1.264    C   78 1.243
    78  C   3.983        C   80 1.289    C   79 1.268    C   77 1.243
    79  C   3.969        C   72 1.510    C   78 1.268    H  110 0.958
    80  C   3.979        C   81 1.542    C   78 1.289    H  111 0.967    C   83 0.111
    81  C   3.977        C   80 1.542    C   82 1.328    H  112 0.962
    82  C   3.975        C   83 1.541    C   81 1.328    H  113 0.967
    83  C   3.980        C   82 1.541    C   77 1.292    H  114 0.968    C   80 0.111
    84  H   0.995        C    1 0.963
    85  H   0.995        C    4 0.966
    86  H   0.997        C    5 0.967
    87  H   0.995        C    8 0.960
    88  H   0.995        C   11 0.963
    89  H   0.992        C   21 0.945
    90  H   0.996        C   23 0.948
    91  H   0.994        C   26 0.957
    92  H   0.998        C   30 0.958
    93  H   0.997        C   31 0.971
    94  H   0.996        C   34 0.947
    95  H   0.996        C   35 0.950
    96  H   0.995        C   37 0.940
    97  H   0.995        C   40 0.959
    98  H   0.998        C   44 0.962
    99  H   0.997        C   45 0.971
   100  H   0.997        C   48 0.955
   101  H   0.995        C   49 0.942
   102  H   0.993        C   51 0.935
   103  H   0.995        C   54 0.959
   104  H   0.997        C   58 0.962
   105  H   0.997        C   59 0.971
   106  H   0.995        C   62 0.959
   107  H   0.994        C   63 0.940
   108  H   0.996        C   64 0.950
   109  H   0.997        C   76 0.964
   110  H   0.996        C   79 0.958
   111  H   0.998        C   80 0.967
   112  H   0.996        C   81 0.962
   113  H   0.997        C   82 0.967
   114  H   0.998        C   83 0.968

molecular dipole:
                 x           y           z       tot (Debye)
 q only:       -4.602       0.024       2.011
   full:       -5.142       0.310       2.010      14.054
molecular quadrupole (traceless):
                xx          xy          yy          xz          yz          zz
 q only:     -135.971      30.503      92.862     173.771     -10.754      43.109
  q+dip:     -160.532      40.391     105.900     190.703     -32.812      54.632
   full:     -174.015      43.437     105.491     193.514     -19.574      68.524

           -------------------------------------------------
          |                Geometry Summary                 |
           -------------------------------------------------

      molecular mass/u    :     1171.3989000
   center of mass at/Å    :       10.1828829      -3.1356309      -6.6699807
  moments of inertia/u·Å² :        0.1487050E+05   0.5660082E+05   0.6851303E+05
rotational constants/cm⁻¹ :        0.1133629E-02   0.2978337E-03   0.2460500E-03

 * 110 selected distances

     #   Z        #   Z                                     value/Å
     1   6 C      2   6 C                                 1.3672644
     2   6 C      4   6 C                                 1.4009487
     4   6 C      5   6 C                                 1.3673956
     5   6 C      6   6 C                                 1.4095059
     1   6 C      7   6 C                                 1.4080323
     6   6 C      7   6 C                                 1.4252047
     7   6 C      8   6 C                                 1.4153325
     8   6 C      9   6 C                                 1.3671767
     9   6 C     10   6 C                                 1.4250172
     6   6 C     11   6 C                                 1.4136219
    10   6 C     11   6 C                                 1.3642646
    12   6 C     13   8 O                                 1.2115485
    14   6 C     15   6 C                                 1.4386361
    15   6 C     16   6 C                                 1.3744490
    17   6 C     18   7 N                                 1.1486856
    19   6 C     20   7 N                                 1.1484586
    14   6 C     21   6 C                                 1.3698299
    21   6 C     22   6 C                                 1.4107187
    22   6 C     23   6 C                                 1.3879561
    23   6 C     24   6 C                                 1.3819445
    25   6 C     26   6 C                                 1.3512629
    26   6 C     27  16 S                                 1.7127029
    25   6 C     28   6 C                                 1.4206948
    28   6 C     29   6 C                                 1.4008832
    29   6 C     30   6 C                                 1.4141823
    30   6 C     31   6 C                                 1.3585896
    28   6 C     32  16 S                                 1.7149571
    31   6 C     32  16 S                                 1.7298922
    24   6 C     33   6 C                                 1.4213445
    29   6 C     33   6 C                                 1.4376028
    33   6 C     34   6 C                                 1.4060381
    34   6 C     35   6 C                                 1.3640231
    35   6 C     36   6 C                                 1.4168303
    36   6 C     37   6 C                                 1.3837852
    37   6 C     38   6 C                                 1.3897244
    39   6 C     40   6 C                                 1.3508401
    40   6 C     41  16 S                                 1.7117444
    39   6 C     42   6 C                                 1.4213910
    42   6 C     43   6 C                                 1.3932555
    43   6 C     44   6 C                                 1.4127374
    44   6 C     45   6 C                                 1.3583980
    42   6 C     46  16 S                                 1.7179371
    45   6 C     46  16 S                                 1.7324346 (max)
    38   6 C     47   6 C                                 1.4198733
    43   6 C     47   6 C                                 1.4403458
    47   6 C     48   6 C                                 1.4094027
    48   6 C     49   6 C                                 1.3624340
    49   6 C     50   6 C                                 1.4147466
    50   6 C     51   6 C                                 1.3847308
    51   6 C     52   6 C                                 1.3847025
    53   6 C     54   6 C                                 1.3525800
    54   6 C     55  16 S                                 1.7157670
    53   6 C     56   6 C                                 1.4232540
    56   6 C     57   6 C                                 1.3938033
    57   6 C     58   6 C                                 1.4117031
    58   6 C     59   6 C                                 1.3588939
    56   6 C     60  16 S                                 1.7188832
    59   6 C     60  16 S                                 1.7314572
    52   6 C     61   6 C                                 1.4229620
    57   6 C     61   6 C                                 1.4420531
    61   6 C     62   6 C                                 1.4021100
    62   6 C     63   6 C                                 1.3736270
    63   6 C     64   6 C                                 1.3952451
    64   6 C     65   6 C                                 1.3816165
    66   6 C     67   6 C                                 1.3757032
    68   6 C     69   7 N                                 1.1490839
    70   6 C     71   7 N                                 1.1496761
    72   6 C     73   6 C                                 1.4231422
    74   6 C     75   8 O                                 1.2234209
    73   6 C     76   6 C                                 1.3636468
    76   6 C     77   6 C                                 1.4131642
    77   6 C     78   6 C                                 1.4231311
    72   6 C     79   6 C                                 1.3673653
    78   6 C     79   6 C                                 1.4143569
    78   6 C     80   6 C                                 1.4084283
    80   6 C     81   6 C                                 1.3677109
    81   6 C     82   6 C                                 1.4018285
    77   6 C     83   6 C                                 1.4078345
    82   6 C     83   6 C                                 1.3683813
     1   6 C     84   1 H                                 1.0787777
     4   6 C     85   1 H                                 1.0784249
     5   6 C     86   1 H                                 1.0796723
     8   6 C     87   1 H                                 1.0787340
    11   6 C     88   1 H                                 1.0797198
    21   6 C     89   1 H                                 1.0870403
    23   6 C     90   1 H                                 1.0818136
    26   6 C     91   1 H                                 1.0784136
    30   6 C     92   1 H                                 1.0743975
    31   6 C     93   1 H                                 1.0729858
    34   6 C     94   1 H                                 1.0828496
    35   6 C     95   1 H                                 1.0792579
    37   6 C     96   1 H                                 1.0789553
    40   6 C     97   1 H                                 1.0785729
    44   6 C     98   1 H                                 1.0749180
    45   6 C     99   1 H                                 1.0724836
    48   6 C    100   1 H                                 1.0841646
    49   6 C    101   1 H                                 1.0781678
    51   6 C    102   1 H                                 1.0779208
    54   6 C    103   1 H                                 1.0785364
    58   6 C    104   1 H                                 1.0747551
    59   6 C    105   1 H                                 1.0724535 (min)
    62   6 C    106   1 H                                 1.0843257
    63   6 C    107   1 H                                 1.0746746
    64   6 C    108   1 H                                 1.0819792
    76   6 C    109   1 H                                 1.0801806
    79   6 C    110   1 H                                 1.0783605
    80   6 C    111   1 H                                 1.0805516
    81   6 C    112   1 H                                 1.0789460
    82   6 C    113   1 H                                 1.0789624
    83   6 C    114   1 H                                 1.0808488

 * 5 distinct bonds (by element types)

   Z      Z             #   av. dist./Å        max./Å        min./Å
   1 H    6 C          31     1.0787692     1.0870403     1.0724535
   6 C    6 C          64     1.3959009     1.4420531     1.3508401
   6 C    7 N           4     1.1489761     1.1496761     1.1484586
   6 C    8 O           2     1.2174847     1.2234209     1.2115485
   6 C   16 S           9     1.7206417     1.7324346     1.7117444


optimized geometry written to: xtbopt.xyz


           -------------------------------------------------
          | TOTAL ENERGY             -209.484402344871 Eh   |
          | GRADIENT NORM               0.000397403240 Eh/α |
          | HOMO-LUMO GAP               0.488356265835 eV   |
           -------------------------------------------------

------------------------------------------------------------------------
 * finished run on 2021/06/26 at 09:31:58.612     
------------------------------------------------------------------------
 total:
 * wall-time:     0 d,  0 h,  0 min, 42.226 sec
 *  cpu-time:     0 d,  0 h,  8 min, 25.155 sec
 * ratio c/w:    11.963 speedup
 SCF:
 * wall-time:     0 d,  0 h,  0 min,  0.285 sec
 *  cpu-time:     0 d,  0 h,  0 min,  3.395 sec
 * ratio c/w:    11.910 speedup
 ANC optimizer:
 * wall-time:     0 d,  0 h,  0 min, 41.834 sec
 *  cpu-time:     0 d,  0 h,  8 min, 20.631 sec
 * ratio c/w:    11.967 speedup

