      -----------------------------------------------------------      
     |                   =====================                   |     
     |                           x T B                           |     
     |                   =====================                   |     
     |                         S. Grimme                         |     
     |          Mulliken Center for Theoretical Chemistry        |     
     |                    University of Bonn                     |     
     |                Version 6.2 RC2 (SAW190805)                |     
      -----------------------------------------------------------      

   This program is distributed in the hope that it will be useful,
   but WITHOUT ANY WARRANTY; without even the implied warranty of
   MERCHANTABILITY or FITNESS FOR A PARTICULAR PURPOSE.
   
   FOR NON-COMMERCIAL, ACADEMIA USE ONLY.
   
   Cite this work as:
   * S. Grimme, C. Bannwarth, P. Shushkov, J. Chem. Theory Comput., 2017,
     13, 1989-2009. DOI: 10.1021/acs.jctc.7b00118
   * C. Bannwarth, S. Ehlert and S. Grimme., J. Chem. Theory Comput., 2019,
     15, 1652-1671. DOI: 10.1021/acs.jctc.8b01176
   * P. Pracht, E. Caldeweyher, S. Ehlert, S. Grimme, ChemRxiv, 2019, preprint.
     DOI: 10.26434/chemrxiv.8326202.v1
   
   for DFT-D4:
   * E. Caldeweyher, C. Bannwarth and S. Grimme, J. Chem. Phys., 2017,
     147, 034112. DOI: 10.1063/1.4993215
   * E. Caldeweyher, S. Ehlert, A. Hansen, H. Neugebauer, S. Spicher,
     C. Bannwarth and S. Grimme, J. Chem. Phys., 2019, 150, 154122.
     DOI: 10.1063/1.5090222
   
   for sTDA-xTB:
   * S. Grimme and C. Bannwarth, J. Chem. Phys., 2016, 145, 054103.
     DOI: 10.1063/1.4959605
   
   in the mass-spec context:
   * V. Asgeirsson, C. Bauer and S. Grimme, Chem. Sci., 2017, 8, 4879.
     DOI: 10.1039/c7sc00601b
   
   for metadynamics refer to:
   * S. Grimme, J. Chem. Theory Comput., 2019, 155, 2847-2862
     DOI: 10.1021/acs.jctc.9b00143
   
   with help from (in alphabetical order)
   C. Bannwarth, F. Bohle, G. Brandenburg, E. Caldeweyher, M. Checinski,
   S. Dohm, S. Ehlert, S. Ehrlich, F. März, H. Neugebauer, J. Pisarek,
   P. Pracht, P. Shushkov, and S. Spicher.
   
 * started run on 2021/07/02 at 05:34:08.697     

           -------------------------------------------------
          |                Calculation Setup                |
           -------------------------------------------------

          program call               : /ihome/ghutchison/geoffh/xtb/xtb /ihome/ghutchison/blp62/GA/running_GA/opt_GA/generations/99/38_45_39_45_38_10201.xyz -opt
          hostname                   : smp-n33
          coordinate file            : /ihome/ghutchison/blp62/GA/running_GA/opt_GA/generations/99/38_45_39_45_38_10201.xyz
          omp threads                :                    12
          number of atoms            :                    95
          number of electrons        :                   346
          charge                     :                     0
          spin                       :                   0.0
          first test random number   :      0.67832782522676


########################################################################
# WARNING! Please study the warnings concerning your input carefully
#  - XTBPATH is not set, using XTBHOME instead
#  - the use of '-opt' is discouraged, please use '--opt' next time
########################################################################

           ------------------------------------------------- 
          |                 G F N 2 - x T B                 |
          | Geometry, Frequencies, Noncovalent interactions |
          |            JCTC 2019 parametrisation            |
           ------------------------------------------------- 
             KAB for C  - Si     :                1.0500
             KAB for H  - Pd     :                0.9500
             k(s)              :                1.8500
             k(p)              :                2.2300
             k(d)              :                2.2300
             k(f)              :                2.0000
             kEN (H0ij)        :               -2.0000
             D4 a1             :                0.5200
             D4 a2             :                5.0000
             D4 s6             :                1.0000
             D4 s8             :                2.7000
             D4 s9             :                5.0000
             alphaj            :                2.0000

  Z AO/shell   Hii/eV     exponent
  1     Wed Apr 25 08:07:45 CEST 2018   EN: 2.200 GM2: 0.406  GM3: 0.0800  RAES: 1.40
     1s    -10.707211    1.230000
  6     Wed Apr 25 08:07:45 CEST 2018   EN: 2.550 GM2: 0.538  GM3: 0.1500  RAES: 3.00
     2s    -13.970922    2.096432
     2p    -10.063292    1.800000
  7     Wed Apr 25 08:07:45 CEST 2018   EN: 3.040 GM2: 0.461  GM3:-0.0640  RAES: 1.90
     2s    -16.686243    2.339881
     2p    -12.523956    2.014332
 14     Tue Apr 24 12:33:07 CEST 2018   EN: 1.900 GM2: 0.720  GM3: 0.1936  RAES: 3.90
     3s    -14.360932    1.773917
     3p     -6.915131    1.718996
     3d     -1.825036    1.250000
 16     Tue Apr 24 11:44:34 CEST 2018   EN: 2.580 GM2: 0.340  GM3:-0.0502  RAES: 3.10
     3s    -20.029654    1.981333
     3p    -11.377694    2.025643
     3d     -0.420282    1.702555

           ------------------------------------------------- 
          |        Self-Consistent Charge Iterations        |
           ------------------------------------------------- 

          ...................................................
          :                      SETUP                      :
          :.................................................:
          :  # basis functions                 356          :
          :  # atomic orbitals                 351          :
          :  # shells                          177          :
          :  # electrons                       346          :
          :  max. iterations                   250          :
          :  Hamiltonian                  GFN2-xTB          :
          :  restarted?                      false          :
          :  GBSA solvation                  false          :
          :  PC potential                    false          :
          :  electronic temp.          300.0000000     K    :
          :  accuracy                    1.0000000          :
          :  -> integral cutoff          0.2500000E+02      :
          :  -> integral neglect         0.1000000E-07      :
          :  -> SCF convergence          0.1000000E-05 Eh   :
          :  -> wf. convergence          0.1000000E-03 e    :
          :  Broyden damping             0.4000000          :
          ...................................................

 iter      E             dE          RMSdq      gap      omega  full diag
   1   -189.8165280 -0.189817E+03  0.646E+00    1.20       0.0  T
   2   -189.7748652  0.416629E-01  0.447E+00    1.00       1.0  T
   3   -189.7411310  0.337342E-01  0.312E+00    0.79       1.0  T
   4   -190.2866577 -0.545527E+00  0.799E-01    0.94       1.0  T
   5   -190.3162193 -0.295616E-01  0.383E-01    0.83       1.0  T
   6   -190.3154906  0.728739E-03  0.274E-01    0.86       1.0  T
   7   -190.3206754 -0.518488E-02  0.122E-01    0.88       1.0  T
   8   -190.3211259 -0.450505E-03  0.629E-02    0.86       1.0  T
   9   -190.3211823 -0.563453E-04  0.339E-02    0.86       1.0  T
  10   -190.3212017 -0.194549E-04  0.178E-02    0.86       1.0  T
  11   -190.3212216 -0.198745E-04  0.648E-03    0.86       1.6  T
  12   -190.3212225 -0.880166E-06  0.335E-03    0.86       3.1  T
  13   -190.3212229 -0.356369E-06  0.200E-03    0.86       5.1  T
  14   -190.3212231 -0.273779E-06  0.771E-04    0.86      13.3  T
  15   -190.3212232 -0.220178E-07  0.417E-04    0.86      24.6  T

   *** convergence criteria satisfied after 15 iterations ***

         #    Occupation            Energy/Eh            Energy/eV
      -------------------------------------------------------------
         1        2.0000           -0.7881723             -21.4473
       ...           ...                  ...                  ...
       167        2.0000           -0.4331605             -11.7869
       168        2.0000           -0.4324359             -11.7672
       169        2.0000           -0.4301098             -11.7039
       170        2.0000           -0.4251776             -11.5697
       171        2.0000           -0.4201038             -11.4316
       172        2.0000           -0.4031954             -10.9715
       173        2.0000           -0.3879512             -10.5567 (HOMO)
       174        0.0000           -0.3563317              -9.6963 (LUMO)
       175                         -0.3539737              -9.6321
       176                         -0.3421595              -9.3106
       177                         -0.3413642              -9.2890
       178                         -0.3408817              -9.2759
       ...                                ...                  ...
       351                          1.0823262              29.4516
      -------------------------------------------------------------
                  HL-Gap            0.0316195 Eh            0.8604 eV
             Fermi-level           -0.3721796 Eh          -10.1275 eV

 SCC (total)                   0 d,  0 h,  0 min,  0.384 sec
 SCC setup                      ...        0 min,  0.003 sec (  0.688%)
 Dispersion                     ...        0 min,  0.007 sec (  1.735%)
 integral evaluation            ...        0 min,  0.032 sec (  8.395%)
 zeroth order Hamiltonian       ...        0 min,  0.001 sec (  0.369%)
 iterations                     ...        0 min,  0.317 sec ( 82.691%)
 molecular gradient             ...        0 min,  0.022 sec (  5.721%)
 printout                       ...        0 min,  0.001 sec (  0.356%)

         :::::::::::::::::::::::::::::::::::::::::::::::::::::
         ::                     SUMMARY                     ::
         :::::::::::::::::::::::::::::::::::::::::::::::::::::
         :: total energy            -186.828495138486 Eh    ::
         :: gradient norm              0.209042701684 Eh/a0 ::
         :: HOMO-LUMO gap              0.860410321145 eV    ::
         ::.................................................::
         :: SCC energy              -190.321223152727 Eh    ::
         :: -> isotropic ES            0.110062576522 Eh    ::
         :: -> anisotropic ES          0.020724491414 Eh    ::
         :: -> anisotropic XC          0.249678341963 Eh    ::
         :: -> dispersion             -0.162765397861 Eh    ::
         :: repulsion energy           3.492947348052 Eh    ::
         :: add. restraining           0.000000000000 Eh    ::
         :::::::::::::::::::::::::::::::::::::::::::::::::::::

      ----------------------------------------------------------- 
     |                   =====================                   |
     |                        A N C O P T                        |
     |                   =====================                   |
     |               Approximate Normal Coordinate               |
     |                Rational Function Optimizer                |
      ----------------------------------------------------------- 

          ...................................................
          :                      SETUP                      :
          :.................................................:
          :   optimization level            normal          :
          :   max. optcycles                   285          :
          :   ANC micro-cycles                  20          :
          :   degrees of freedom               279          :
          :.................................................:
          :   RF solver                   davidson          :
          :   input Hessian                  false          :
          :   write xtbopt.log                true          :
          :   linear?                        false          :
          :   energy convergence         0.5000000E-05 Eh   :
          :   grad. convergence          0.1000000E-02 Eh/α :
          :   maximium RF displ.         2.0000000          :
          :   Hlow (freq-cutoff)         0.5000000E-02      :
          :   Hmax (freq-cutoff)         5.0000000          :
          :   S6 in model hess.         20.0000000          :
          ...................................................

generating ANC from model Hessian ...
Using Lindh-Hessian (1995)
 Shifting diagonal of input Hessian by   5.026370835063390E-003
 Lowest  eigenvalues of input Hessian
    0.005000    0.005012   -0.000000   -0.000000    0.000000    0.000000
    0.000000    0.000000    0.005042    0.005084    0.005109    0.005160
    0.005229    0.005251    0.005328    0.005390    0.005755    0.005853
 Highest eigenvalues
    2.569190    2.570822    2.576154    2.577707    2.590223    2.590262
 

........................................................................
.............................. CYCLE    1 ..............................
........................................................................
   1   -190.3212232 -0.190321E+03  0.237E-04    0.86       0.0  T
   2   -190.3212232  0.515854E-09  0.185E-04    0.86      55.5  T
   3   -190.3212232 -0.236230E-08  0.108E-04    0.86      94.6  T
     SCC iter.                  ...        0 min,  0.050 sec
     gradient                   ...        0 min,  0.022 sec
 * total energy  :  -186.8284951 Eh     change       -0.9934837E-08 Eh
   gradient norm :     0.2090389 Eh/α   predicted     0.0000000E+00 (-100.00%)
   displ. norm   :     0.4152514 α      lambda       -0.4386465E-01
   maximum displ.:     0.1088362 α      in ANC's #58, #87, #129, ...

........................................................................
.............................. CYCLE    2 ..............................
........................................................................
   1   -190.4904159 -0.190490E+03  0.316E-01    0.78       0.0  T
   2   -190.4905394 -0.123530E-03  0.187E-01    0.80       1.0  T
   3   -190.4895066  0.103282E-02  0.139E-01    0.78       1.0  T
   4   -190.4912660 -0.175944E-02  0.394E-02    0.79       1.0  T
   5   -190.4913656 -0.996001E-04  0.212E-02    0.79       1.0  T
   6   -190.4913842 -0.185057E-04  0.835E-03    0.79       1.2  T
   7   -190.4913878 -0.361135E-05  0.325E-03    0.79       3.2  T
   8   -190.4913881 -0.339966E-06  0.214E-03    0.79       4.8  T
     SCC iter.                  ...        0 min,  0.134 sec
     gradient                   ...        0 min,  0.021 sec
 * total energy  :  -186.8569427 Eh     change       -0.2844759E-01 Eh
   gradient norm :     0.0773433 Eh/α   predicted    -0.2571467E-01 (  -9.61%)
   displ. norm   :     0.5039480 α      lambda       -0.1487155E-01
   maximum displ.:     0.1967097 α      in ANC's #58, #41, #52, ...

........................................................................
.............................. CYCLE    3 ..............................
........................................................................
   1   -190.5127166 -0.190513E+03  0.314E-01    0.71       0.0  T
   2   -190.5128986 -0.182012E-03  0.170E-01    0.73       1.0  T
   3   -190.5118473  0.105138E-02  0.127E-01    0.71       1.0  T
   4   -190.5132660 -0.141876E-02  0.346E-02    0.73       1.0  T
   5   -190.5133431 -0.770444E-04  0.194E-02    0.72       1.0  T
   6   -190.5133600 -0.169489E-04  0.661E-03    0.73       1.6  T
   7   -190.5133624 -0.242480E-05  0.229E-03    0.73       4.5  T
   8   -190.5133628 -0.315567E-06  0.118E-03    0.73       8.7  T
     SCC iter.                  ...        0 min,  0.128 sec
     gradient                   ...        0 min,  0.021 sec
 * total energy  :  -186.8670235 Eh     change       -0.1008079E-01 Eh
   gradient norm :     0.0293947 Eh/α   predicted    -0.9324358E-02 (  -7.50%)
   displ. norm   :     0.5719629 α      lambda       -0.6449504E-02
   maximum displ.:     0.1899310 α      in ANC's #41, #58, #20, ...

........................................................................
.............................. CYCLE    4 ..............................
........................................................................
   1   -190.5128553 -0.190513E+03  0.271E-01    0.67       0.0  T
   2   -190.5129345 -0.791306E-04  0.149E-01    0.69       1.0  T
   3   -190.5116997  0.123480E-02  0.120E-01    0.67       1.0  T
   4   -190.5131552 -0.145552E-02  0.287E-02    0.68       1.0  T
   5   -190.5132101 -0.549096E-04  0.143E-02    0.68       1.0  T
   6   -190.5132176 -0.752334E-05  0.629E-03    0.68       1.6  T
   7   -190.5132203 -0.268966E-05  0.263E-03    0.68       3.9  T
   8   -190.5132205 -0.217600E-06  0.170E-03    0.68       6.0  T
     SCC iter.                  ...        0 min,  0.139 sec
     gradient                   ...        0 min,  0.022 sec
 * total energy  :  -186.8711302 Eh     change       -0.4106666E-02 Eh
   gradient norm :     0.0262501 Eh/α   predicted    -0.4279699E-02 (   4.21%)
   displ. norm   :     0.6604301 α      lambda       -0.6131225E-02
   maximum displ.:     0.2010203 α      in ANC's #41, #58, #52, ...

........................................................................
.............................. CYCLE    5 ..............................
........................................................................
   1   -190.5180659 -0.190518E+03  0.328E-01    0.64       0.0  T
   2   -190.5181047 -0.388142E-04  0.184E-01    0.65       1.0  T
   3   -190.5154815  0.262330E-02  0.159E-01    0.63       1.0  T
   4   -190.5184568 -0.297531E-02  0.335E-02    0.64       1.0  T
   5   -190.5185341 -0.773422E-04  0.151E-02    0.64       1.0  T
   6   -190.5185392 -0.506159E-05  0.777E-03    0.64       1.3  T
   7   -190.5185430 -0.386879E-05  0.364E-03    0.64       2.8  T
   8   -190.5185432 -0.196217E-06  0.245E-03    0.64       4.2  T
     SCC iter.                  ...        0 min,  0.130 sec
     gradient                   ...        0 min,  0.021 sec
 * total energy  :  -186.8735222 Eh     change       -0.2391978E-02 Eh
   gradient norm :     0.0333706 Eh/α   predicted    -0.4402740E-02 (  84.06%)
   displ. norm   :     0.3860286 α      lambda       -0.3353702E-02
   maximum displ.:     0.1652019 α      in ANC's #41, #20, #23, ...

........................................................................
.............................. CYCLE    6 ..............................
........................................................................
   1   -190.5179086 -0.190518E+03  0.201E-01    0.64       0.0  T
   2   -190.5179195 -0.109331E-04  0.112E-01    0.64       1.0  T
   3   -190.5170894  0.830156E-03  0.825E-02    0.64       1.0  T
   4   -190.5180026 -0.913234E-03  0.127E-02    0.64       1.0  T
   5   -190.5180049 -0.225600E-05  0.894E-03    0.64       1.1  T
   6   -190.5180098 -0.495611E-05  0.385E-03    0.64       2.7  T
   7   -190.5180107 -0.831775E-06  0.215E-03    0.64       4.8  T
     SCC iter.                  ...        0 min,  0.119 sec
     gradient                   ...        0 min,  0.021 sec
 * total energy  :  -186.8754287 Eh     change       -0.1906525E-02 Eh
   gradient norm :     0.0241895 Eh/α   predicted    -0.1926748E-02 (   1.06%)
   displ. norm   :     0.5504655 α      lambda       -0.4508000E-02
   maximum displ.:     0.1599417 α      in ANC's #8, #20, #23, ...

........................................................................
.............................. CYCLE    7 ..............................
........................................................................
   1   -190.5050422 -0.190505E+03  0.331E-01    0.65       0.0  T
   2   -190.5051351 -0.928632E-04  0.184E-01    0.65       1.0  T
   3   -190.5035926  0.154241E-02  0.118E-01    0.66       1.0  T
   4   -190.5052867 -0.169403E-02  0.215E-02    0.65       1.0  T
   5   -190.5053150 -0.283153E-04  0.124E-02    0.65       1.0  T
   6   -190.5053232 -0.824997E-05  0.531E-03    0.65       1.9  T
   7   -190.5053241 -0.866942E-06  0.337E-03    0.65       3.0  T
   8   -190.5053248 -0.724114E-06  0.180E-03    0.65       5.7  T
     SCC iter.                  ...        0 min,  0.133 sec
     gradient                   ...        0 min,  0.021 sec
 * total energy  :  -186.8742554 Eh     change        0.1173275E-02 Eh
   gradient norm :     0.0547754 Eh/α   predicted    -0.2936996E-02 (-350.32%)
   displ. norm   :     0.2855550 α      lambda       -0.6506299E-02
   maximum displ.:     0.1064353 α      in ANC's #41, #6, #32, ...

........................................................................
.............................. CYCLE    8 ..............................
........................................................................
   1   -190.5299191 -0.190530E+03  0.238E-01    0.64       0.0  T
   2   -190.5299974 -0.783060E-04  0.131E-01    0.64       1.0  T
   3   -190.5297964  0.201025E-03  0.523E-02    0.64       1.0  T
   4   -190.5300427 -0.246304E-03  0.876E-03    0.64       1.2  T
   5   -190.5300466 -0.393027E-05  0.534E-03    0.64       1.9  T
   6   -190.5300484 -0.171369E-05  0.240E-03    0.64       4.3  T
     SCC iter.                  ...        0 min,  0.099 sec
     gradient                   ...        0 min,  0.021 sec
 * total energy  :  -186.8770406 Eh     change       -0.2785135E-02 Eh
   gradient norm :     0.0226331 Eh/α   predicted    -0.3518419E-02 (  26.33%)
   displ. norm   :     0.3672880 α      lambda       -0.2721052E-02
   maximum displ.:     0.1563616 α      in ANC's #40, #8, #38, ...

........................................................................
.............................. CYCLE    9 ..............................
........................................................................
   1   -190.5073928 -0.190507E+03  0.288E-01    0.63       0.0  T
   2   -190.5074895 -0.966533E-04  0.160E-01    0.63       1.0  T
   3   -190.5067106  0.778888E-03  0.881E-02    0.62       1.0  T
   4   -190.5075853 -0.874690E-03  0.140E-02    0.63       1.0  T
   5   -190.5075992 -0.138827E-04  0.884E-03    0.63       1.2  T
   6   -190.5076057 -0.652306E-05  0.307E-03    0.63       3.3  T
   7   -190.5076062 -0.507586E-06  0.142E-03    0.63       7.2  T
   8   -190.5076063 -0.109655E-06  0.676E-04    0.63      15.2  T
     SCC iter.                  ...        0 min,  0.133 sec
     gradient                   ...        0 min,  0.021 sec
 * total energy  :  -186.8763618 Eh     change        0.6787967E-03 Eh
   gradient norm :     0.0453323 Eh/α   predicted    -0.1544065E-02 (-327.47%)
   displ. norm   :     0.2504368 α      lambda       -0.3692098E-02
   maximum displ.:     0.0929609 α      in ANC's #32, #8, #43, ...

........................................................................
.............................. CYCLE   10 ..............................
........................................................................
   1   -190.5247884 -0.190525E+03  0.187E-01    0.63       0.0  T
   2   -190.5248368 -0.484181E-04  0.103E-01    0.63       1.0  T
   3   -190.5246519  0.184942E-03  0.428E-02    0.64       1.0  T
   4   -190.5248647 -0.212752E-03  0.789E-03    0.63       1.3  T
   5   -190.5248678 -0.309479E-05  0.513E-03    0.63       2.0  T
   6   -190.5248700 -0.224477E-05  0.185E-03    0.63       5.5  T
     SCC iter.                  ...        0 min,  0.101 sec
     gradient                   ...        0 min,  0.021 sec
 * total energy  :  -186.8781037 Eh     change       -0.1741911E-02 Eh
   gradient norm :     0.0156130 Eh/α   predicted    -0.1961832E-02 (  12.63%)
   displ. norm   :     0.3294472 α      lambda       -0.1201891E-02
   maximum displ.:     0.1381036 α      in ANC's #8, #38, #11, ...

........................................................................
.............................. CYCLE   11 ..............................
........................................................................
   1   -190.5283707 -0.190528E+03  0.177E-01    0.64       0.0  T
   2   -190.5284028 -0.321526E-04  0.978E-02    0.63       1.0  T
   3   -190.5281577  0.245127E-03  0.498E-02    0.64       1.0  T
   4   -190.5284288 -0.271143E-03  0.105E-02    0.63       1.0  T
   5   -190.5284356 -0.678303E-05  0.598E-03    0.63       1.7  T
   6   -190.5284379 -0.232591E-05  0.238E-03    0.63       4.3  T
   7   -190.5284384 -0.419808E-06  0.109E-03    0.63       9.4  T
     SCC iter.                  ...        0 min,  0.115 sec
     gradient                   ...        0 min,  0.021 sec
 * total energy  :  -186.8781882 Eh     change       -0.8451398E-04 Eh
   gradient norm :     0.0214478 Eh/α   predicted    -0.6661732E-03 ( 688.24%)
   displ. norm   :     0.2592223 α      lambda       -0.1193775E-02
   maximum displ.:     0.1187939 α      in ANC's #8, #11, #20, ...

........................................................................
.............................. CYCLE   12 ..............................
........................................................................
   1   -190.5265063 -0.190527E+03  0.131E-01    0.63       0.0  T
   2   -190.5265258 -0.194575E-04  0.715E-02    0.63       1.0  T
   3   -190.5264412  0.845732E-04  0.310E-02    0.63       1.0  T
   4   -190.5265381 -0.968731E-04  0.671E-03    0.63       1.5  T
   5   -190.5265396 -0.148949E-05  0.462E-03    0.63       2.2  T
   6   -190.5265413 -0.167265E-05  0.149E-03    0.63       6.9  T
     SCC iter.                  ...        0 min,  0.100 sec
     gradient                   ...        0 min,  0.021 sec
 * total energy  :  -186.8789472 Eh     change       -0.7590246E-03 Eh
   gradient norm :     0.0105191 Eh/α   predicted    -0.6369981E-03 ( -16.08%)
   displ. norm   :     0.3755368 α      lambda       -0.8526685E-03
   maximum displ.:     0.1962759 α      in ANC's #8, #11, #23, ...

........................................................................
.............................. CYCLE   13 ..............................
........................................................................
   1   -190.5216491 -0.190522E+03  0.167E-01    0.63       0.0  T
   2   -190.5216793 -0.302586E-04  0.920E-02    0.63       1.0  T
   3   -190.5215074  0.171884E-03  0.433E-02    0.62       1.0  T
   4   -190.5217032 -0.195742E-03  0.850E-03    0.63       1.2  T
   5   -190.5217048 -0.165829E-05  0.602E-03    0.63       1.7  T
   6   -190.5217076 -0.272515E-05  0.234E-03    0.63       4.4  T
   7   -190.5217081 -0.572960E-06  0.918E-04    0.63      11.2  T
     SCC iter.                  ...        0 min,  0.116 sec
     gradient                   ...        0 min,  0.021 sec
 * total energy  :  -186.8791888 Eh     change       -0.2416221E-03 Eh
   gradient norm :     0.0242369 Eh/α   predicted    -0.4864659E-03 ( 101.33%)
   displ. norm   :     0.3148166 α      lambda       -0.8214768E-03
   maximum displ.:     0.1756890 α      in ANC's #8, #11, #20, ...

........................................................................
.............................. CYCLE   14 ..............................
........................................................................
   1   -190.5239987 -0.190524E+03  0.117E-01    0.63       0.0  T
   2   -190.5240123 -0.135782E-04  0.642E-02    0.63       1.0  T
   3   -190.5239341  0.781872E-04  0.299E-02    0.63       1.0  T
   4   -190.5240221 -0.880625E-04  0.642E-03    0.63       1.6  T
   5   -190.5240225 -0.330898E-06  0.457E-03    0.63       2.2  T
   6   -190.5240242 -0.167461E-05  0.143E-03    0.63       7.2  T
     SCC iter.                  ...        0 min,  0.100 sec
     gradient                   ...        0 min,  0.021 sec
 * total energy  :  -186.8796897 Eh     change       -0.5008224E-03 Eh
   gradient norm :     0.0126623 Eh/α   predicted    -0.4514486E-03 (  -9.86%)
   displ. norm   :     0.4008019 α      lambda       -0.7394514E-03
   maximum displ.:     0.2353723 α      in ANC's #8, #11, #5, ...

........................................................................
.............................. CYCLE   15 ..............................
........................................................................
   1   -190.5316412 -0.190532E+03  0.160E-01    0.62       0.0  T
   2   -190.5316644 -0.231439E-04  0.881E-02    0.63       1.0  T
   3   -190.5315160  0.148392E-03  0.412E-02    0.63       1.0  T
   4   -190.5316846 -0.168608E-03  0.736E-03    0.62       1.4  T
   5   -190.5316837  0.826091E-06  0.583E-03    0.63       1.8  T
   6   -190.5316871 -0.331516E-05  0.173E-03    0.63       5.9  T
   7   -190.5316874 -0.297750E-06  0.760E-04    0.63      13.5  T
   8   -190.5316874 -0.264983E-07  0.422E-04    0.63      24.3  T
     SCC iter.                  ...        0 min,  0.133 sec
     gradient                   ...        0 min,  0.021 sec
 * total energy  :  -186.8798703 Eh     change       -0.1806097E-03 Eh
   gradient norm :     0.0229629 Eh/α   predicted    -0.4291205E-03 ( 137.60%)
   displ. norm   :     0.2772447 α      lambda       -0.6955917E-03
   maximum displ.:     0.1712691 α      in ANC's #8, #11, #5, ...

........................................................................
.............................. CYCLE   16 ..............................
........................................................................
   1   -190.5297102 -0.190530E+03  0.948E-02    0.62       0.0  T
   2   -190.5297206 -0.104014E-04  0.522E-02    0.62       1.0  T
   3   -190.5296599  0.607302E-04  0.246E-02    0.62       1.0  T
   4   -190.5297271 -0.672156E-04  0.543E-03    0.62       1.9  T
   5   -190.5297278 -0.717331E-06  0.379E-03    0.62       2.7  T
   6   -190.5297292 -0.138083E-05  0.126E-03    0.62       8.1  T
     SCC iter.                  ...        0 min,  0.102 sec
     gradient                   ...        0 min,  0.021 sec
 * total energy  :  -186.8803062 Eh     change       -0.4359688E-03 Eh
   gradient norm :     0.0099433 Eh/α   predicted    -0.3745341E-03 ( -14.09%)
   displ. norm   :     0.3823728 α      lambda       -0.5987561E-03
   maximum displ.:     0.2453323 α      in ANC's #8, #11, #5, ...

........................................................................
.............................. CYCLE   17 ..............................
........................................................................
   1   -190.5275895 -0.190528E+03  0.128E-01    0.62       0.0  T
   2   -190.5276058 -0.162894E-04  0.708E-02    0.62       1.0  T
   3   -190.5275221  0.837479E-04  0.314E-02    0.62       1.0  T
   4   -190.5276164 -0.942885E-04  0.728E-03    0.62       1.4  T
   5   -190.5276193 -0.289243E-05  0.430E-03    0.62       2.4  T
   6   -190.5276204 -0.117493E-05  0.180E-03    0.62       5.7  T
   7   -190.5276208 -0.310522E-06  0.719E-04    0.62      14.3  T
     SCC iter.                  ...        0 min,  0.116 sec
     gradient                   ...        0 min,  0.021 sec
 * total energy  :  -186.8805958 Eh     change       -0.2896058E-03 Eh
   gradient norm :     0.0120755 Eh/α   predicted    -0.3431555E-03 (  18.49%)
   displ. norm   :     0.3642292 α      lambda       -0.5198339E-03
   maximum displ.:     0.2388930 α      in ANC's #8, #5, #11, ...

........................................................................
.............................. CYCLE   18 ..............................
........................................................................
   1   -190.5299615 -0.190530E+03  0.101E-01    0.62       0.0  T
   2   -190.5299715 -0.999666E-05  0.556E-02    0.62       1.0  T
   3   -190.5299077  0.637636E-04  0.269E-02    0.62       1.0  T
   4   -190.5299793 -0.715722E-04  0.596E-03    0.62       1.7  T
   5   -190.5299798 -0.504458E-06  0.415E-03    0.62       2.5  T
   6   -190.5299811 -0.132056E-05  0.152E-03    0.62       6.8  T
   7   -190.5299813 -0.229050E-06  0.679E-04    0.62      15.1  T
     SCC iter.                  ...        0 min,  0.116 sec
     gradient                   ...        0 min,  0.021 sec
 * total energy  :  -186.8808587 Eh     change       -0.2628264E-03 Eh
   gradient norm :     0.0200016 Eh/α   predicted    -0.2943994E-03 (  12.01%)
   displ. norm   :     0.4267657 α      lambda       -0.7773135E-03
   maximum displ.:     0.2759220 α      in ANC's #8, #5, #11, ...

........................................................................
.............................. CYCLE   19 ..............................
........................................................................
   1   -190.5236198 -0.190524E+03  0.143E-01    0.62       0.0  T
   2   -190.5236357 -0.159695E-04  0.787E-02    0.62       1.0  T
   3   -190.5234697  0.166023E-03  0.414E-02    0.62       1.0  T
   4   -190.5236524 -0.182734E-03  0.771E-03    0.62       1.3  T
   5   -190.5236539 -0.146892E-05  0.563E-03    0.62       1.8  T
   6   -190.5236570 -0.308865E-05  0.173E-03    0.62       5.9  T
     SCC iter.                  ...        0 min,  0.104 sec
     gradient                   ...        0 min,  0.021 sec
 * total energy  :  -186.8812323 Eh     change       -0.3735911E-03 Eh
   gradient norm :     0.0164123 Eh/α   predicted    -0.4594463E-03 (  22.98%)
   displ. norm   :     0.3582675 α      lambda       -0.6119909E-03
   maximum displ.:     0.2305878 α      in ANC's #8, #5, #4, ...

........................................................................
.............................. CYCLE   20 ..............................
........................................................................
   1   -190.5316423 -0.190532E+03  0.119E-01    0.62       0.0  T
   2   -190.5316573 -0.149947E-04  0.657E-02    0.62       1.0  T
   3   -190.5315648  0.924718E-04  0.328E-02    0.62       1.0  T
   4   -190.5316709 -0.106101E-03  0.585E-03    0.62       1.8  T
   5   -190.5316712 -0.301396E-06  0.412E-03    0.62       2.5  T
   6   -190.5316726 -0.139656E-05  0.166E-03    0.62       6.2  T
   7   -190.5316729 -0.243801E-06  0.664E-04    0.62      15.4  T
     SCC iter.                  ...        0 min,  0.115 sec
     gradient                   ...        0 min,  0.021 sec
 * total energy  :  -186.8814295 Eh     change       -0.1972196E-03 Eh
   gradient norm :     0.0225709 Eh/α   predicted    -0.3452737E-03 (  75.07%)
   displ. norm   :     0.3611870 α      lambda       -0.7507597E-03
   maximum displ.:     0.2325121 α      in ANC's #8, #5, #4, ...
 * RMSD in coord.:     0.5489987 α      energy gain  -0.5293435E-01 Eh

generating ANC from model Hessian ...
Using Lindh-Hessian (1995)
 Shifting diagonal of input Hessian by   5.071782838820060E-003
 Lowest  eigenvalues of input Hessian
    0.005000    0.005040    0.005071   -0.000000   -0.000000    0.000000
    0.000000    0.000000    0.000000    0.005119    0.005152    0.005251
    0.005286    0.005309    0.005348    0.005469    0.005596    0.005761
 Highest eigenvalues
    2.646690    2.651175    2.654343    2.654370    2.663096    2.670371
 

........................................................................
.............................. CYCLE   21 ..............................
........................................................................
   1   -190.5306479 -0.190531E+03  0.123E-01    0.62       0.0  T
   2   -190.5306633 -0.154261E-04  0.675E-02    0.62       1.0  T
   3   -190.5306002  0.630709E-04  0.273E-02    0.62       1.0  T
   4   -190.5306728 -0.725508E-04  0.637E-03    0.62       1.6  T
   5   -190.5306742 -0.140860E-05  0.387E-03    0.62       2.7  T
   6   -190.5306752 -0.100784E-05  0.145E-03    0.62       7.1  T
   7   -190.5306754 -0.213616E-06  0.642E-04    0.62      16.0  T
   8   -190.5306754 -0.193262E-07  0.365E-04    0.62      28.1  T
     SCC iter.                  ...        0 min,  0.136 sec
     gradient                   ...        0 min,  0.022 sec
 * total energy  :  -186.8817903 Eh     change       -0.3607912E-03 Eh
   gradient norm :     0.0138022 Eh/α   predicted     0.0000000E+00 (-100.00%)
   displ. norm   :     0.2375177 α      lambda       -0.6459880E-03
   maximum displ.:     0.0812645 α      in ANC's #6, #24, #7, ...

........................................................................
.............................. CYCLE   22 ..............................
........................................................................
   1   -190.5224746 -0.190522E+03  0.173E-01    0.62       0.0  T
   2   -190.5225078 -0.332413E-04  0.954E-02    0.62       1.0  T
   3   -190.5224330  0.748190E-04  0.289E-02    0.61       1.0  T
   4   -190.5225268 -0.938586E-04  0.489E-03    0.62       2.1  T
   5   -190.5225279 -0.108988E-05  0.325E-03    0.62       3.2  T
   6   -190.5225287 -0.754210E-06  0.121E-03    0.62       8.5  T
   7   -190.5225288 -0.114659E-06  0.550E-04    0.62      18.7  T
     SCC iter.                  ...        0 min,  0.117 sec
     gradient                   ...        0 min,  0.021 sec
 * total energy  :  -186.8814939 Eh     change        0.2963385E-03 Eh
   gradient norm :     0.0168864 Eh/α   predicted    -0.3412186E-03 (-215.14%)
   displ. norm   :     0.1660230 α      lambda       -0.1281923E-02
   maximum displ.:     0.0934912 α      in ANC's #15, #31, #8, ...

........................................................................
.............................. CYCLE   23 ..............................
........................................................................
   1   -190.5267124 -0.190527E+03  0.140E-01    0.62       0.0  T
   2   -190.5267329 -0.204928E-04  0.771E-02    0.62       1.0  T
   3   -190.5267222  0.107594E-04  0.135E-02    0.62       1.0  T
   4   -190.5267424 -0.202553E-04  0.344E-03    0.62       3.0  T
   5   -190.5267429 -0.478756E-06  0.216E-03    0.62       4.8  T
   6   -190.5267431 -0.176142E-06  0.964E-04    0.62      10.6  T
     SCC iter.                  ...        0 min,  0.100 sec
     gradient                   ...        0 min,  0.021 sec
 * total energy  :  -186.8820000 Eh     change       -0.5060558E-03 Eh
   gradient norm :     0.0100847 Eh/α   predicted    -0.6586282E-03 (  30.15%)
   displ. norm   :     0.1836662 α      lambda       -0.7274394E-03
   maximum displ.:     0.0535575 α      in ANC's #56, #51, #47, ...

........................................................................
.............................. CYCLE   24 ..............................
........................................................................
   1   -190.5299389 -0.190530E+03  0.151E-01    0.62       0.0  T
   2   -190.5299634 -0.245187E-04  0.833E-02    0.62       1.0  T
   3   -190.5298744  0.889865E-04  0.309E-02    0.62       1.0  T
   4   -190.5299805 -0.106102E-03  0.470E-03    0.62       2.2  T
   5   -190.5299812 -0.740699E-06  0.315E-03    0.62       3.3  T
   6   -190.5299819 -0.693588E-06  0.125E-03    0.62       8.2  T
   7   -190.5299821 -0.144784E-06  0.465E-04    0.62      22.1  T
     SCC iter.                  ...        0 min,  0.118 sec
     gradient                   ...        0 min,  0.021 sec
 * total energy  :  -186.8817774 Eh     change        0.2225729E-03 Eh
   gradient norm :     0.0100070 Eh/α   predicted    -0.3759912E-03 (-268.93%)
   displ. norm   :     0.1326355 α      lambda       -0.8958612E-03
   maximum displ.:     0.0368304 α      in ANC's #15, #40, #56, ...

........................................................................
.............................. CYCLE   25 ..............................
........................................................................
   1   -190.5319073 -0.190532E+03  0.108E-01    0.62       0.0  T
   2   -190.5319200 -0.126614E-04  0.598E-02    0.62       1.0  T
   3   -190.5318860  0.340027E-04  0.196E-02    0.62       1.0  T
   4   -190.5319284 -0.424891E-04  0.242E-03    0.62       4.2  T
   5   -190.5319286 -0.126660E-06  0.178E-03    0.62       5.8  T
   6   -190.5319288 -0.190104E-06  0.717E-04    0.62      14.3  T
     SCC iter.                  ...        0 min,  0.097 sec
     gradient                   ...        0 min,  0.021 sec
 * total energy  :  -186.8822013 Eh     change       -0.4238499E-03 Eh
   gradient norm :     0.0058829 Eh/α   predicted    -0.4558106E-03 (   7.54%)
   displ. norm   :     0.2281569 α      lambda       -0.6540075E-03
   maximum displ.:     0.0696195 α      in ANC's #8, #56, #30, ...

........................................................................
.............................. CYCLE   26 ..............................
........................................................................
   1   -190.5214361 -0.190521E+03  0.182E-01    0.61       0.0  T
   2   -190.5214707 -0.346560E-04  0.101E-01    0.62       1.0  T
   3   -190.5213715  0.992641E-04  0.316E-02    0.61       1.0  T
   4   -190.5214919 -0.120447E-03  0.522E-03    0.62       2.0  T
   5   -190.5214937 -0.174478E-05  0.299E-03    0.62       3.4  T
   6   -190.5214941 -0.396909E-06  0.134E-03    0.62       7.7  T
     SCC iter.                  ...        0 min,  0.100 sec
     gradient                   ...        0 min,  0.021 sec
 * total energy  :  -186.8816012 Eh     change        0.6000337E-03 Eh
   gradient norm :     0.0178929 Eh/α   predicted    -0.3440274E-03 (-157.33%)
   displ. norm   :     0.1436616 α      lambda       -0.1543445E-02
   maximum displ.:     0.0492959 α      in ANC's #56, #30, #36, ...

........................................................................
.............................. CYCLE   27 ..............................
........................................................................
   1   -190.5294365 -0.190529E+03  0.129E-01    0.62       0.0  T
   2   -190.5294548 -0.182458E-04  0.712E-02    0.62       1.0  T
   3   -190.5294237  0.310444E-04  0.197E-02    0.62       1.0  T
   4   -190.5294647 -0.409829E-04  0.358E-03    0.62       2.9  T
   5   -190.5294655 -0.799082E-06  0.194E-03    0.62       5.3  T
   6   -190.5294656 -0.950483E-07  0.997E-04    0.62      10.3  T
     SCC iter.                  ...        0 min,  0.099 sec
     gradient                   ...        0 min,  0.021 sec
 * total energy  :  -186.8823940 Eh     change       -0.7927205E-03 Eh
   gradient norm :     0.0044076 Eh/α   predicted    -0.7876481E-03 (  -0.64%)
   displ. norm   :     0.1606033 α      lambda       -0.2523492E-03
   maximum displ.:     0.0630063 α      in ANC's #8, #7, #4, ...

........................................................................
.............................. CYCLE   28 ..............................
........................................................................
   1   -190.5291017 -0.190529E+03  0.888E-02    0.62       0.0  T
   2   -190.5291098 -0.805982E-05  0.487E-02    0.62       1.0  T
   3   -190.5290803  0.294277E-04  0.165E-02    0.62       1.0  T
   4   -190.5291148 -0.344319E-04  0.344E-03    0.62       3.0  T
   5   -190.5291152 -0.429728E-06  0.207E-03    0.62       5.0  T
   6   -190.5291155 -0.248718E-06  0.736E-04    0.62      13.9  T
     SCC iter.                  ...        0 min,  0.107 sec
     gradient                   ...        0 min,  0.021 sec
 * total energy  :  -186.8823597 Eh     change        0.3423580E-04 Eh
   gradient norm :     0.0067787 Eh/α   predicted    -0.1294303E-03 (-478.06%)
   displ. norm   :     0.1728831 α      lambda       -0.4037973E-03
   maximum displ.:     0.0745174 α      in ANC's #8, #6, #7, ...

........................................................................
.............................. CYCLE   29 ..............................
........................................................................
   1   -190.5289232 -0.190529E+03  0.715E-02    0.62       0.0  T
   2   -190.5289284 -0.523025E-05  0.394E-02    0.62       1.0  T
   3   -190.5289170  0.113477E-04  0.117E-02    0.62       1.0  T
   4   -190.5289314 -0.143166E-04  0.249E-03    0.62       4.1  T
   5   -190.5289313  0.660420E-07  0.197E-03    0.62       5.2  T
   6   -190.5289316 -0.335233E-06  0.648E-04    0.62      15.8  T
     SCC iter.                  ...        0 min,  0.098 sec
     gradient                   ...        0 min,  0.021 sec
 * total energy  :  -186.8826064 Eh     change       -0.2466813E-03 Eh
   gradient norm :     0.0042275 Eh/α   predicted    -0.2079321E-03 ( -15.71%)
   displ. norm   :     0.3253554 α      lambda       -0.4158415E-03
   maximum displ.:     0.1466337 α      in ANC's #8, #6, #7, ...

........................................................................
.............................. CYCLE   30 ..............................
........................................................................
   1   -190.5265347 -0.190527E+03  0.117E-01    0.61       0.0  T
   2   -190.5265468 -0.120514E-04  0.647E-02    0.61       1.0  T
   3   -190.5264973  0.495117E-04  0.212E-02    0.61       1.0  T
   4   -190.5265536 -0.563016E-04  0.519E-03    0.61       2.0  T
   5   -190.5265549 -0.130630E-05  0.313E-03    0.61       3.3  T
   6   -190.5265554 -0.550333E-06  0.112E-03    0.61       9.2  T
   7   -190.5265555 -0.110520E-06  0.492E-04    0.61      20.8  T
     SCC iter.                  ...        0 min,  0.115 sec
     gradient                   ...        0 min,  0.021 sec
 * total energy  :  -186.8827059 Eh     change       -0.9947483E-04 Eh
   gradient norm :     0.0083037 Eh/α   predicted    -0.2299331E-03 ( 131.15%)
   displ. norm   :     0.3029156 α      lambda       -0.4415264E-03
   maximum displ.:     0.1396034 α      in ANC's #8, #6, #7, ...

........................................................................
.............................. CYCLE   31 ..............................
........................................................................
   1   -190.5267041 -0.190527E+03  0.938E-02    0.61       0.0  T
   2   -190.5267113 -0.720551E-05  0.518E-02    0.61       1.0  T
   3   -190.5266915  0.197149E-04  0.154E-02    0.61       1.0  T
   4   -190.5267154 -0.238353E-04  0.386E-03    0.61       2.7  T
   5   -190.5267149  0.441081E-06  0.302E-03    0.61       3.4  T
   6   -190.5267159 -0.924016E-06  0.746E-04    0.61      13.8  T
   7   -190.5267159 -0.304066E-07  0.440E-04    0.61      23.3  T
     SCC iter.                  ...        0 min,  0.115 sec
     gradient                   ...        0 min,  0.021 sec
 * total energy  :  -186.8829454 Eh     change       -0.2395380E-03 Eh
   gradient norm :     0.0068413 Eh/α   predicted    -0.2410204E-03 (   0.62%)
   displ. norm   :     0.4297600 α      lambda       -0.6306716E-03
   maximum displ.:     0.1996313 α      in ANC's #8, #6, #4, ...

........................................................................
.............................. CYCLE   32 ..............................
........................................................................
   1   -190.5278180 -0.190528E+03  0.151E-01    0.61       0.0  T
   2   -190.5278370 -0.190164E-04  0.831E-02    0.61       1.0  T
   3   -190.5277271  0.109860E-03  0.348E-02    0.61       1.0  T
   4   -190.5278518 -0.124654E-03  0.721E-03    0.61       1.4  T
   5   -190.5278519 -0.774378E-07  0.537E-03    0.61       1.9  T
   6   -190.5278544 -0.253191E-05  0.161E-03    0.61       6.4  T
   7   -190.5278546 -0.255815E-06  0.636E-04    0.61      16.1  T
     SCC iter.                  ...        0 min,  0.112 sec
     gradient                   ...        0 min,  0.021 sec
 * total energy  :  -186.8830894 Eh     change       -0.1439432E-03 Eh
   gradient norm :     0.0101449 Eh/α   predicted    -0.3735761E-03 ( 159.53%)
   displ. norm   :     0.3164093 α      lambda       -0.5117288E-03
   maximum displ.:     0.1410256 α      in ANC's #8, #6, #4, ...

........................................................................
.............................. CYCLE   33 ..............................
........................................................................
   1   -190.5275055 -0.190528E+03  0.102E-01    0.61       0.0  T
   2   -190.5275146 -0.902605E-05  0.558E-02    0.61       1.0  T
   3   -190.5274909  0.236127E-04  0.173E-02    0.61       1.0  T
   4   -190.5275191 -0.281093E-04  0.478E-03    0.61       2.1  T
   5   -190.5275186  0.413202E-06  0.367E-03    0.61       2.8  T
   6   -190.5275201 -0.147849E-05  0.946E-04    0.61      10.8  T
   7   -190.5275202 -0.660156E-07  0.496E-04    0.61      20.7  T
     SCC iter.                  ...        0 min,  0.116 sec
     gradient                   ...        0 min,  0.021 sec
 * total energy  :  -186.8833842 Eh     change       -0.2948595E-03 Eh
   gradient norm :     0.0067362 Eh/α   predicted    -0.2814793E-03 (  -4.54%)
   displ. norm   :     0.4654708 α      lambda       -0.6241527E-03
   maximum displ.:     0.2257192 α      in ANC's #8, #6, #4, ...

........................................................................
.............................. CYCLE   34 ..............................
........................................................................
   1   -190.5234887 -0.190523E+03  0.165E-01    0.61       0.0  T
   2   -190.5235131 -0.243694E-04  0.911E-02    0.61       1.0  T
   3   -190.5234344  0.787076E-04  0.295E-02    0.61       1.0  T
   4   -190.5235263 -0.919154E-04  0.728E-03    0.61       1.4  T
   5   -190.5235268 -0.565511E-06  0.533E-03    0.61       1.9  T
   6   -190.5235294 -0.252605E-05  0.167E-03    0.61       6.1  T
   7   -190.5235296 -0.256008E-06  0.753E-04    0.61      13.6  T
     SCC iter.                  ...        0 min,  0.116 sec
     gradient                   ...        0 min,  0.021 sec
 * total energy  :  -186.8833319 Eh     change        0.5235989E-04 Eh
   gradient norm :     0.0123936 Eh/α   predicted    -0.3797022E-03 (-825.18%)
   displ. norm   :     0.2809728 α      lambda       -0.8494357E-03
   maximum displ.:     0.1187925 α      in ANC's #8, #6, #4, ...

........................................................................
.............................. CYCLE   35 ..............................
........................................................................
   1   -190.5250601 -0.190525E+03  0.113E-01    0.61       0.0  T
   2   -190.5250732 -0.130629E-04  0.623E-02    0.61       1.0  T
   3   -190.5250504  0.227424E-04  0.170E-02    0.61       1.0  T
   4   -190.5250797 -0.292905E-04  0.411E-03    0.61       2.5  T
   5   -190.5250798 -0.562790E-07  0.295E-03    0.61       3.5  T
   6   -190.5250806 -0.843307E-06  0.971E-04    0.61      10.6  T
     SCC iter.                  ...        0 min,  0.100 sec
     gradient                   ...        0 min,  0.021 sec
 * total energy  :  -186.8837268 Eh     change       -0.3948953E-03 Eh
   gradient norm :     0.0070792 Eh/α   predicted    -0.4582482E-03 (  16.04%)
   displ. norm   :     0.3641942 α      lambda       -0.5427477E-03
   maximum displ.:     0.1700883 α      in ANC's #8, #6, #4, ...

........................................................................
.............................. CYCLE   36 ..............................
........................................................................
   1   -190.5255990 -0.190526E+03  0.138E-01    0.61       0.0  T
   2   -190.5256161 -0.170699E-04  0.757E-02    0.61       1.0  T
   3   -190.5255357  0.804467E-04  0.279E-02    0.61       1.0  T
   4   -190.5256267 -0.910858E-04  0.671E-03    0.61       1.5  T
   5   -190.5256279 -0.117659E-05  0.443E-03    0.61       2.3  T
   6   -190.5256295 -0.153999E-05  0.154E-03    0.61       6.6  T
   7   -190.5256297 -0.244669E-06  0.597E-04    0.61      17.2  T
     SCC iter.                  ...        0 min,  0.115 sec
     gradient                   ...        0 min,  0.021 sec
 * total energy  :  -186.8838619 Eh     change       -0.1351832E-03 Eh
   gradient norm :     0.0098349 Eh/α   predicted    -0.3073782E-03 ( 127.38%)
   displ. norm   :     0.4032022 α      lambda       -0.4178534E-03
   maximum displ.:     0.1987383 α      in ANC's #8, #6, #4, ...

........................................................................
.............................. CYCLE   37 ..............................
........................................................................
   1   -190.5256086 -0.190526E+03  0.108E-01    0.60       0.0  T
   2   -190.5256165 -0.782428E-05  0.591E-02    0.60       1.0  T
   3   -190.5255870  0.294229E-04  0.184E-02    0.60       1.0  T
   4   -190.5256192 -0.321786E-04  0.638E-03    0.60       1.6  T
   5   -190.5256196 -0.334324E-06  0.428E-03    0.60       2.4  T
   6   -190.5256215 -0.199347E-05  0.112E-03    0.60       9.1  T
   7   -190.5256216 -0.102038E-06  0.578E-04    0.60      17.8  T
     SCC iter.                  ...        0 min,  0.115 sec
     gradient                   ...        0 min,  0.021 sec
 * total energy  :  -186.8841437 Eh     change       -0.2817672E-03 Eh
   gradient norm :     0.0056104 Eh/α   predicted    -0.2428919E-03 ( -13.80%)
   displ. norm   :     0.5498649 α      lambda       -0.3920286E-03
   maximum displ.:     0.2735999 α      in ANC's #8, #6, #4, ...

........................................................................
.............................. CYCLE   38 ..............................
........................................................................
   1   -190.5240633 -0.190524E+03  0.142E-01    0.60       0.0  T
   2   -190.5240768 -0.135241E-04  0.779E-02    0.60       1.0  T
   3   -190.5240389  0.379284E-04  0.204E-02    0.60       1.0  T
   4   -190.5240791 -0.401794E-04  0.877E-03    0.60       1.2  T
   5   -190.5240823 -0.324891E-05  0.491E-03    0.60       2.1  T
   6   -190.5240845 -0.224669E-05  0.134E-03    0.60       7.6  T
   7   -190.5240847 -0.133345E-06  0.703E-04    0.60      14.6  T
     SCC iter.                  ...        0 min,  0.118 sec
     gradient                   ...        0 min,  0.021 sec
 * total energy  :  -186.8843667 Eh     change       -0.2230465E-03 Eh
   gradient norm :     0.0058953 Eh/α   predicted    -0.2552808E-03 (  14.45%)
   displ. norm   :     0.5631232 α      lambda       -0.3195266E-03
   maximum displ.:     0.2822732 α      in ANC's #8, #6, #4, ...

........................................................................
.............................. CYCLE   39 ..............................
........................................................................
   1   -190.5255619 -0.190526E+03  0.138E-01    0.60       0.0  T
   2   -190.5255736 -0.116477E-04  0.751E-02    0.60       1.0  T
   3   -190.5255440  0.296048E-04  0.196E-02    0.60       1.0  T
   4   -190.5255756 -0.316484E-04  0.873E-03    0.60       1.2  T
   5   -190.5255778 -0.220232E-05  0.481E-03    0.60       2.1  T
   6   -190.5255800 -0.220782E-05  0.115E-03    0.60       8.9  T
   7   -190.5255801 -0.999277E-07  0.646E-04    0.60      15.9  T
     SCC iter.                  ...        0 min,  0.117 sec
     gradient                   ...        0 min,  0.021 sec
 * total energy  :  -186.8846180 Eh     change       -0.2512974E-03 Eh
   gradient norm :     0.0060080 Eh/α   predicted    -0.2104270E-03 ( -16.26%)
   displ. norm   :     0.6591376 α      lambda       -0.4106285E-03
   maximum displ.:     0.3267187 α      in ANC's #8, #4, #6, ...

........................................................................
.............................. CYCLE   40 ..............................
........................................................................
   1   -190.5277651 -0.190528E+03  0.168E-01    0.60       0.0  T
   2   -190.5277832 -0.180847E-04  0.918E-02    0.60       1.0  T
   3   -190.5277186  0.646105E-04  0.278E-02    0.60       1.0  T
   4   -190.5277877 -0.691336E-04  0.110E-02    0.60       1.0  T
   5   -190.5277903 -0.260574E-05  0.670E-03    0.60       1.5  T
   6   -190.5277947 -0.436794E-05  0.165E-03    0.60       6.2  T
   7   -190.5277949 -0.219155E-06  0.840E-04    0.60      12.2  T
   8   -190.5277949 -0.834734E-08  0.537E-04    0.60      19.1  T
     SCC iter.                  ...        0 min,  0.130 sec
     gradient                   ...        0 min,  0.021 sec
 * total energy  :  -186.8848562 Eh     change       -0.2381064E-03 Eh
   gradient norm :     0.0043557 Eh/α   predicted    -0.2944997E-03 (  23.68%)
   displ. norm   :     0.6354262 α      lambda       -0.2783542E-03
   maximum displ.:     0.3200695 α      in ANC's #8, #4, #6, ...

........................................................................
.............................. CYCLE   41 ..............................
........................................................................
   1   -190.5222325 -0.190522E+03  0.161E-01    0.59       0.0  T
   2   -190.5222491 -0.165253E-04  0.879E-02    0.60       1.0  T
   3   -190.5222109  0.381479E-04  0.221E-02    0.59       1.0  T
   4   -190.5222511 -0.401822E-04  0.102E-02    0.60       1.0  T
   5   -190.5222546 -0.351355E-05  0.572E-03    0.60       1.8  T
   6   -190.5222579 -0.333358E-05  0.134E-03    0.60       7.6  T
   7   -190.5222581 -0.146650E-06  0.709E-04    0.60      14.5  T
   8   -190.5222581 -0.645116E-08  0.415E-04    0.60      24.7  T
     SCC iter.                  ...        0 min,  0.132 sec
     gradient                   ...        0 min,  0.021 sec
 * total energy  :  -186.8850456 Eh     change       -0.1894016E-03 Eh
   gradient norm :     0.0064715 Eh/α   predicted    -0.1953820E-03 (   3.16%)
   displ. norm   :     0.5097125 α      lambda       -0.2343960E-03
   maximum displ.:     0.2471682 α      in ANC's #8, #4, #6, ...

........................................................................
.............................. CYCLE   42 ..............................
........................................................................
   1   -190.5311488 -0.190531E+03  0.130E-01    0.60       0.0  T
   2   -190.5311590 -0.102416E-04  0.713E-02    0.60       1.0  T
   3   -190.5311012  0.578526E-04  0.265E-02    0.60       1.0  T
   4   -190.5311658 -0.645686E-04  0.761E-03    0.59       1.3  T
   5   -190.5311649  0.811262E-06  0.560E-03    0.60       1.8  T
   6   -190.5311681 -0.313898E-05  0.129E-03    0.60       7.9  T
   7   -190.5311683 -0.179763E-06  0.602E-04    0.60      17.0  T
   8   -190.5311683 -0.742688E-08  0.375E-04    0.60      27.3  T
     SCC iter.                  ...        0 min,  0.145 sec
     gradient                   ...        0 min,  0.021 sec
 * total energy  :  -186.8851220 Eh     change       -0.7642699E-04 Eh
   gradient norm :     0.0125585 Eh/α   predicted    -0.1476490E-03 (  93.19%)
   displ. norm   :     0.4401379 α      lambda       -0.1953218E-03
   maximum displ.:     0.2222375 α      in ANC's #8, #4, #6, ...
 * RMSD in coord.:     0.6974832 α      energy gain  -0.3692498E-02 Eh

generating ANC from model Hessian ...
Using Lindh-Hessian (1995)
 Shifting diagonal of input Hessian by   5.078192875939739E-003
 Lowest  eigenvalues of input Hessian
    0.005000    0.005024    0.005075   -0.000000   -0.000000    0.000000
    0.000000    0.000000    0.000000    0.005095    0.005102    0.005135
    0.005177    0.005313    0.005327    0.005349    0.005505    0.005789
 Highest eigenvalues
    2.641212    2.642493    2.647425    2.651754    2.659845    2.664749
 

........................................................................
.............................. CYCLE   43 ..............................
........................................................................
   1   -190.5237273 -0.190524E+03  0.108E-01    0.59       0.0  T
   2   -190.5237343 -0.703527E-05  0.598E-02    0.59       1.0  T
   3   -190.5236926  0.416723E-04  0.206E-02    0.59       1.0  T
   4   -190.5237375 -0.448768E-04  0.672E-03    0.59       1.5  T
   5   -190.5237383 -0.763570E-06  0.429E-03    0.59       2.4  T
   6   -190.5237401 -0.182989E-05  0.122E-03    0.59       8.4  T
   7   -190.5237403 -0.159566E-06  0.532E-04    0.59      19.3  T
   8   -190.5237403 -0.451095E-08  0.332E-04    0.59      30.9  T
     SCC iter.                  ...        0 min,  0.131 sec
     gradient                   ...        0 min,  0.022 sec
 * total energy  :  -186.8852365 Eh     change       -0.1145360E-03 Eh
   gradient norm :     0.0045806 Eh/α   predicted     0.0000000E+00 (-100.00%)
   displ. norm   :     0.0891289 α      lambda       -0.8663614E-04
   maximum displ.:     0.0488430 α      in ANC's #5, #4, #30, ...

........................................................................
.............................. CYCLE   44 ..............................
........................................................................
   1   -190.5274449 -0.190527E+03  0.593E-02    0.59       0.0  T
   2   -190.5274483 -0.335414E-05  0.324E-02    0.59       1.0  T
   3   -190.5274347  0.136091E-04  0.125E-02    0.59       1.0  T
   4   -190.5274507 -0.160481E-04  0.228E-03    0.59       4.5  T
   5   -190.5274507 -0.318735E-07  0.168E-03    0.59       6.1  T
   6   -190.5274510 -0.245955E-06  0.514E-04    0.59      19.9  T
     SCC iter.                  ...        0 min,  0.099 sec
     gradient                   ...        0 min,  0.021 sec
 * total energy  :  -186.8852201 Eh     change        0.1638343E-04 Eh
   gradient norm :     0.0045232 Eh/α   predicted    -0.4371217E-04 (-366.81%)
   displ. norm   :     0.0940553 α      lambda       -0.1799660E-03
   maximum displ.:     0.0536373 α      in ANC's #2, #26, #5, ...

........................................................................
.............................. CYCLE   45 ..............................
........................................................................
   1   -190.5327821 -0.190533E+03  0.665E-02    0.59       0.0  T
   2   -190.5327867 -0.455907E-05  0.365E-02    0.59       1.0  T
   3   -190.5327784  0.823687E-05  0.104E-02    0.59       1.0  T
   4   -190.5327893 -0.108472E-04  0.201E-03    0.59       5.1  T
   5   -190.5327892  0.125548E-07  0.141E-03    0.59       7.3  T
   6   -190.5327894 -0.175002E-06  0.441E-04    0.59      23.3  T
     SCC iter.                  ...        0 min,  0.099 sec
     gradient                   ...        0 min,  0.021 sec
 * total energy  :  -186.8852562 Eh     change       -0.3606222E-04 Eh
   gradient norm :     0.0067030 Eh/α   predicted    -0.9078067E-04 ( 151.73%)
   displ. norm   :     0.0851662 α      lambda       -0.1768008E-03
   maximum displ.:     0.0341139 α      in ANC's #5, #60, #35, ...

........................................................................
.............................. CYCLE   46 ..............................
........................................................................
   1   -190.5307514 -0.190531E+03  0.696E-02    0.59       0.0  T
   2   -190.5307567 -0.525689E-05  0.382E-02    0.59       1.0  T
   3   -190.5307401  0.165590E-04  0.143E-02    0.59       1.0  T
   4   -190.5307604 -0.203153E-04  0.203E-03    0.59       5.1  T
   5   -190.5307605 -0.732485E-07  0.137E-03    0.59       7.5  T
   6   -190.5307606 -0.126752E-06  0.564E-04    0.59      18.2  T
     SCC iter.                  ...        0 min,  0.099 sec
     gradient                   ...        0 min,  0.021 sec
 * total energy  :  -186.8852606 Eh     change       -0.4379610E-05 Eh
   gradient norm :     0.0047091 Eh/α   predicted    -0.8905236E-04 (1933.34%)
   displ. norm   :     0.0694285 α      lambda       -0.1734210E-03
   maximum displ.:     0.0211351 α      in ANC's #15, #29, #35, ...

........................................................................
.............................. CYCLE   47 ..............................
........................................................................
   1   -190.5272578 -0.190527E+03  0.555E-02    0.59       0.0  T
   2   -190.5272612 -0.341796E-05  0.306E-02    0.59       1.0  T
   3   -190.5272509  0.103323E-04  0.108E-02    0.59       1.0  T
   4   -190.5272635 -0.125515E-04  0.172E-03    0.59       6.0  T
   5   -190.5272636 -0.138042E-06  0.116E-03    0.59       8.8  T
   6   -190.5272637 -0.947324E-07  0.506E-04    0.59      20.3  T
     SCC iter.                  ...        0 min,  0.096 sec
     gradient                   ...        0 min,  0.021 sec
 * total energy  :  -186.8852952 Eh     change       -0.3465542E-04 Eh
   gradient norm :     0.0042067 Eh/α   predicted    -0.8712879E-04 ( 151.41%)
   displ. norm   :     0.0977641 α      lambda       -0.1910868E-03
   maximum displ.:     0.0463550 α      in ANC's #5, #60, #2, ...

........................................................................
.............................. CYCLE   48 ..............................
........................................................................
   1   -190.5261162 -0.190526E+03  0.752E-02    0.59       0.0  T
   2   -190.5261220 -0.585819E-05  0.415E-02    0.59       1.0  T
   3   -190.5260965  0.255389E-04  0.165E-02    0.59       1.0  T
   4   -190.5261262 -0.297009E-04  0.276E-03    0.59       3.7  T
   5   -190.5261267 -0.556659E-06  0.154E-03    0.59       6.7  T
   6   -190.5261269 -0.124516E-06  0.687E-04    0.59      14.9  T
     SCC iter.                  ...        0 min,  0.101 sec
     gradient                   ...        0 min,  0.021 sec
 * total energy  :  -186.8852678 Eh     change        0.2740352E-04 Eh
   gradient norm :     0.0052869 Eh/α   predicted    -0.9646459E-04 (-452.02%)
   displ. norm   :     0.0773471 α      lambda       -0.2180276E-03
   maximum displ.:     0.0328886 α      in ANC's #60, #2, #4, ...

........................................................................
.............................. CYCLE   49 ..............................
........................................................................
   1   -190.5295248 -0.190530E+03  0.563E-02    0.59       0.0  T
   2   -190.5295283 -0.348779E-05  0.309E-02    0.59       1.0  T
   3   -190.5295237  0.454947E-05  0.779E-03    0.59       1.3  T
   4   -190.5295300 -0.622422E-05  0.200E-03    0.59       5.1  T
   5   -190.5295300 -0.403905E-07  0.152E-03    0.59       6.8  T
   6   -190.5295302 -0.205782E-06  0.402E-04    0.59      25.5  T
     SCC iter.                  ...        0 min,  0.102 sec
     gradient                   ...        0 min,  0.021 sec
 * total energy  :  -186.8853504 Eh     change       -0.8257107E-04 Eh
   gradient norm :     0.0029994 Eh/α   predicted    -0.1096679E-03 (  32.82%)
   displ. norm   :     0.1126710 α      lambda       -0.1610860E-03
   maximum displ.:     0.0583893 α      in ANC's #5, #2, #38, ...

........................................................................
.............................. CYCLE   50 ..............................
........................................................................
   1   -190.5296019 -0.190530E+03  0.832E-02    0.59       0.0  T
   2   -190.5296096 -0.773738E-05  0.459E-02    0.59       1.0  T
   3   -190.5295901  0.194940E-04  0.149E-02    0.59       1.0  T
   4   -190.5296142 -0.240127E-04  0.271E-03    0.59       3.8  T
   5   -190.5296148 -0.611608E-06  0.131E-03    0.59       7.9  T
   6   -190.5296148 -0.334437E-07  0.723E-04    0.59      14.2  T
   7   -190.5296149 -0.498346E-07  0.236E-04    0.59      43.5  T
     SCC iter.                  ...        0 min,  0.116 sec
     gradient                   ...        0 min,  0.022 sec
 * total energy  :  -186.8852384 Eh     change        0.1119532E-03 Eh
   gradient norm :     0.0068113 Eh/α   predicted    -0.8156728E-04 (-172.86%)
   displ. norm   :     0.0781094 α      lambda       -0.3306503E-03
   maximum displ.:     0.0263792 α      in ANC's #4, #60, #24, ...

........................................................................
.............................. CYCLE   51 ..............................
........................................................................
   1   -190.5286410 -0.190529E+03  0.638E-02    0.59       0.0  T
   2   -190.5286455 -0.445996E-05  0.352E-02    0.59       1.0  T
   3   -190.5286362  0.931083E-05  0.105E-02    0.59       1.0  T
   4   -190.5286481 -0.119037E-04  0.176E-03    0.59       5.8  T
   5   -190.5286482 -0.149461E-06  0.112E-03    0.59       9.1  T
   6   -190.5286483 -0.705201E-07  0.473E-04    0.59      21.7  T
     SCC iter.                  ...        0 min,  0.098 sec
     gradient                   ...        0 min,  0.021 sec
 * total energy  :  -186.8853883 Eh     change       -0.1498710E-03 Eh
   gradient norm :     0.0022548 Eh/α   predicted    -0.1663346E-03 (  10.99%)
   displ. norm   :     0.0984418 α      lambda       -0.1191710E-03
   maximum displ.:     0.0452217 α      in ANC's #5, #2, #48, ...

........................................................................
.............................. CYCLE   52 ..............................
........................................................................
   1   -190.5273328 -0.190527E+03  0.684E-02    0.59       0.0  T
   2   -190.5273370 -0.420818E-05  0.377E-02    0.59       1.0  T
   3   -190.5273025  0.345098E-04  0.176E-02    0.59       1.0  T
   4   -190.5273409 -0.384365E-04  0.286E-03    0.59       3.6  T
   5   -190.5273416 -0.701036E-06  0.140E-03    0.59       7.4  T
   6   -190.5273417 -0.765513E-07  0.688E-04    0.59      14.9  T
   7   -190.5273417 -0.550733E-07  0.217E-04    0.59      47.3  T
     SCC iter.                  ...        0 min,  0.119 sec
     gradient                   ...        0 min,  0.022 sec
 * total energy  :  -186.8853640 Eh     change        0.2433243E-04 Eh
   gradient norm :     0.0041172 Eh/α   predicted    -0.6016702E-04 (-347.27%)
   displ. norm   :     0.0762474 α      lambda       -0.1382778E-03
   maximum displ.:     0.0391697 α      in ANC's #5, #2, #48, ...

........................................................................
.............................. CYCLE   53 ..............................
........................................................................
   1   -190.5282266 -0.190528E+03  0.459E-02    0.59       0.0  T
   2   -190.5282288 -0.224155E-05  0.253E-02    0.59       1.0  T
   3   -190.5282230  0.578246E-05  0.756E-03    0.59       1.4  T
   4   -190.5282301 -0.707081E-05  0.147E-03    0.59       7.0  T
   5   -190.5282302 -0.120010E-06  0.838E-04    0.59      12.2  T
   6   -190.5282302 -0.263925E-07  0.378E-04    0.59      27.2  T
     SCC iter.                  ...        0 min,  0.095 sec
     gradient                   ...        0 min,  0.021 sec
 * total energy  :  -186.8854294 Eh     change       -0.6540639E-04 Eh
   gradient norm :     0.0020529 Eh/α   predicted    -0.6954167E-04 (   6.32%)
   displ. norm   :     0.1413409 α      lambda       -0.1208476E-03
   maximum displ.:     0.0828398 α      in ANC's #5, #2, #4, ...

........................................................................
.............................. CYCLE   54 ..............................
........................................................................
   1   -190.5289558 -0.190529E+03  0.717E-02    0.59       0.0  T
   2   -190.5289612 -0.542675E-05  0.397E-02    0.59       1.0  T
   3   -190.5289377  0.235412E-04  0.170E-02    0.59       1.0  T
   4   -190.5289657 -0.279890E-04  0.233E-03    0.59       4.4  T
   5   -190.5289659 -0.249630E-06  0.141E-03    0.59       7.3  T
   6   -190.5289660 -0.674394E-07  0.811E-04    0.59      12.6  T
   7   -190.5289661 -0.660440E-07  0.244E-04    0.59      42.0  T
     SCC iter.                  ...        0 min,  0.114 sec
     gradient                   ...        0 min,  0.022 sec
 * total energy  :  -186.8853756 Eh     change        0.5380785E-04 Eh
   gradient norm :     0.0050887 Eh/α   predicted    -0.6162500E-04 (-214.53%)
   displ. norm   :     0.0729606 α      lambda       -0.1877961E-03
   maximum displ.:     0.0332561 α      in ANC's #5, #2, #32, ...

........................................................................
.............................. CYCLE   55 ..............................
........................................................................
   1   -190.5284939 -0.190528E+03  0.500E-02    0.59       0.0  T
   2   -190.5284964 -0.256425E-05  0.276E-02    0.59       1.0  T
   3   -190.5284825  0.139770E-04  0.117E-02    0.59       1.0  T
   4   -190.5284984 -0.159413E-04  0.197E-03    0.59       5.2  T
   5   -190.5284987 -0.329840E-06  0.958E-04    0.59      10.7  T
   6   -190.5284988 -0.410914E-07  0.460E-04    0.59      22.3  T
     SCC iter.                  ...        0 min,  0.101 sec
     gradient                   ...        0 min,  0.021 sec
 * total energy  :  -186.8854824 Eh     change       -0.1068026E-03 Eh
   gradient norm :     0.0016762 Eh/α   predicted    -0.9439626E-04 ( -11.62%)
   displ. norm   :     0.2228739 α      lambda       -0.6077430E-04
   maximum displ.:     0.1453799 α      in ANC's #5, #2, #4, ...

........................................................................
.............................. CYCLE   56 ..............................
........................................................................
   1   -190.5267278 -0.190527E+03  0.708E-02    0.59       0.0  T
   2   -190.5267316 -0.378715E-05  0.390E-02    0.59       1.0  T
   3   -190.5267004  0.312417E-04  0.181E-02    0.59       1.0  T
   4   -190.5267350 -0.346657E-04  0.349E-03    0.59       2.9  T
   5   -190.5267354 -0.409739E-06  0.243E-03    0.59       4.2  T
   6   -190.5267359 -0.480919E-06  0.804E-04    0.59      12.8  T
   7   -190.5267360 -0.667910E-07  0.307E-04    0.59      33.5  T
     SCC iter.                  ...        0 min,  0.115 sec
     gradient                   ...        0 min,  0.022 sec
 * total energy  :  -186.8854810 Eh     change        0.1348745E-05 Eh
   gradient norm :     0.0045095 Eh/α   predicted    -0.3105883E-04 (*******%)
   displ. norm   :     0.2171078 α      lambda       -0.1155761E-03
   maximum displ.:     0.1476214 α      in ANC's #5, #2, #4, ...

........................................................................
.............................. CYCLE   57 ..............................
........................................................................
   1   -190.5266138 -0.190527E+03  0.552E-02    0.59       0.0  T
   2   -190.5266160 -0.217709E-05  0.302E-02    0.59       1.0  T
   3   -190.5266073  0.866117E-05  0.888E-03    0.59       1.2  T
   4   -190.5266168 -0.949942E-05  0.310E-03    0.59       3.3  T
   5   -190.5266172 -0.335153E-06  0.176E-03    0.59       5.8  T
   6   -190.5266175 -0.282600E-06  0.500E-04    0.59      20.5  T
     SCC iter.                  ...        0 min,  0.099 sec
     gradient                   ...        0 min,  0.021 sec
 * total energy  :  -186.8855680 Eh     change       -0.8693189E-04 Eh
   gradient norm :     0.0032584 Eh/α   predicted    -0.6050594E-04 ( -30.40%)
   displ. norm   :     0.3271620 α      lambda       -0.1500021E-03
   maximum displ.:     0.2191754 α      in ANC's #5, #2, #4, ...

........................................................................
.............................. CYCLE   58 ..............................
........................................................................
   1   -190.5275272 -0.190528E+03  0.840E-02    0.59       0.0  T
   2   -190.5275323 -0.509295E-05  0.462E-02    0.59       1.0  T
   3   -190.5275078  0.244917E-04  0.165E-02    0.59       1.0  T
   4   -190.5275355 -0.277374E-04  0.423E-03    0.59       2.4  T
   5   -190.5275354  0.141176E-06  0.317E-03    0.59       3.2  T
   6   -190.5275364 -0.101514E-05  0.893E-04    0.59      11.5  T
   7   -190.5275365 -0.835520E-07  0.377E-04    0.59      27.2  T
   8   -190.5275365  0.148731E-09  0.237E-04    0.59      43.3  T
     SCC iter.                  ...        0 min,  0.127 sec
     gradient                   ...        0 min,  0.022 sec
 * total energy  :  -186.8856406 Eh     change       -0.7265604E-04 Eh
   gradient norm :     0.0033470 Eh/α   predicted    -0.8303263E-04 (  14.28%)
   displ. norm   :     0.2828846 α      lambda       -0.1049296E-03
   maximum displ.:     0.1900400 α      in ANC's #5, #2, #4, ...

........................................................................
.............................. CYCLE   59 ..............................
........................................................................
   1   -190.5281904 -0.190528E+03  0.634E-02    0.59       0.0  T
   2   -190.5281933 -0.294467E-05  0.347E-02    0.59       1.0  T
   3   -190.5281897  0.367808E-05  0.715E-03    0.59       1.4  T
   4   -190.5281933 -0.362278E-05  0.400E-03    0.59       2.6  T
   5   -190.5281943 -0.970199E-06  0.210E-03    0.59       4.9  T
   6   -190.5281947 -0.452648E-06  0.465E-04    0.59      22.1  T
   7   -190.5281947 -0.135538E-07  0.258E-04    0.59      39.8  T
     SCC iter.                  ...        0 min,  0.112 sec
     gradient                   ...        0 min,  0.022 sec
 * total energy  :  -186.8857092 Eh     change       -0.6859301E-04 Eh
   gradient norm :     0.0035457 Eh/α   predicted    -0.5666701E-04 ( -17.39%)
   displ. norm   :     0.3514246 α      lambda       -0.1130694E-03
   maximum displ.:     0.2332941 α      in ANC's #5, #2, #4, ...

........................................................................
.............................. CYCLE   60 ..............................
........................................................................
   1   -190.5281874 -0.190528E+03  0.776E-02    0.58       0.0  T
   2   -190.5281913 -0.387500E-05  0.422E-02    0.58       1.0  T
   3   -190.5281798  0.114864E-04  0.114E-02    0.58       1.0  T
   4   -190.5281914 -0.116619E-04  0.524E-03    0.58       2.0  T
   5   -190.5281926 -0.116099E-05  0.283E-03    0.58       3.6  T
   6   -190.5281934 -0.852785E-06  0.660E-04    0.58      15.6  T
   7   -190.5281935 -0.375240E-07  0.319E-04    0.58      32.2  T
     SCC iter.                  ...        0 min,  0.115 sec
     gradient                   ...        0 min,  0.022 sec
 * total energy  :  -186.8857942 Eh     change       -0.8494594E-04 Eh
   gradient norm :     0.0035078 Eh/α   predicted    -0.6351781E-04 ( -25.23%)
   displ. norm   :     0.5216350 α      lambda       -0.1604442E-03
   maximum displ.:     0.3454199 α      in ANC's #5, #2, #4, ...

........................................................................
.............................. CYCLE   61 ..............................
........................................................................
   1   -190.5258707 -0.190526E+03  0.115E-01    0.58       0.0  T
   2   -190.5258797 -0.898487E-05  0.624E-02    0.58       1.0  T
   3   -190.5258603  0.193612E-04  0.162E-02    0.58       1.0  T
   4   -190.5258810 -0.206643E-04  0.732E-03    0.58       1.4  T
   5   -190.5258825 -0.147484E-05  0.405E-03    0.58       2.5  T
   6   -190.5258844 -0.196396E-05  0.850E-04    0.58      12.1  T
   7   -190.5258845 -0.517417E-07  0.463E-04    0.58      22.2  T
   8   -190.5258845 -0.679503E-08  0.266E-04    0.58      38.6  T
     SCC iter.                  ...        0 min,  0.131 sec
     gradient                   ...        0 min,  0.022 sec
 * total energy  :  -186.8859001 Eh     change       -0.1059856E-03 Eh
   gradient norm :     0.0058991 Eh/α   predicted    -0.1020433E-03 (  -3.72%)
   displ. norm   :     0.5936024 α      lambda       -0.2095201E-03
   maximum displ.:     0.3932757 α      in ANC's #5, #2, #4, ...

........................................................................
.............................. CYCLE   62 ..............................
........................................................................
   1   -190.5251470 -0.190525E+03  0.125E-01    0.58       0.0  T
   2   -190.5251562 -0.915959E-05  0.681E-02    0.58       1.0  T
[...]
       176                         -0.3469560              -9.4412
       177                         -0.3438324              -9.3562
       178                         -0.3416963              -9.2980
       179                         -0.3412258              -9.2852
       180                         -0.3325737              -9.0498
       181                         -0.2877197              -7.8293
       182                         -0.2821121              -7.6767
       183                         -0.2724838              -7.4147
       184                         -0.2613540              -7.1118
       ...                                ...                  ...
       351                          1.1527652              31.3683
      -------------------------------------------------------------
                  HL-Gap            0.0206957 Eh            0.5632 eV
             Fermi-level           -0.3768711 Eh          -10.2552 eV

     #   Z        covCN         q      C6AA      α(0)
     1   6 C      2.912    -0.026    28.646     8.776
     2   6 C      2.920    -0.019    28.477     8.751
     3   6 C      2.921    -0.019    28.472     8.750
     4   6 C      2.912    -0.025    28.635     8.775
     5   6 C      3.046     0.007    27.820     8.651
     6   6 C      3.050     0.007    27.812     8.649
     7   6 C      3.026     0.029    27.329     8.575
     8   6 C      2.946     0.008    27.847     8.655
     9   6 C      1.943     0.124    28.042     8.552
    10   7 N      0.911    -0.226    25.946     7.367
    11   6 C      1.941     0.120    28.122     8.564
    12   7 N      0.911    -0.226    25.950     7.368
    13   6 C      3.017    -0.005    28.118     8.698
    14   6 C      3.033     0.031    27.273     8.566
    15   6 C      2.948     0.007    27.870     8.659
    16   6 C      1.936     0.122    28.084     8.558
    17   7 N      0.911    -0.241    26.281     7.414
    18   6 C      1.933     0.122    28.094     8.560
    19   7 N      0.911    -0.229    26.008     7.376
    20   6 C      2.920    -0.027    28.680     8.782
    21   6 C      2.993     0.027    27.392     8.585
    22   6 C      3.048    -0.029    28.686     8.784
    23   6 C      3.237    -0.014    27.447     8.499
    24   6 C      3.088     0.027    27.292     8.563
    25  16 S      2.242     0.022   140.176    19.927
    26   6 C      3.081     0.016    27.574     8.609
    27   6 C      3.241    -0.012    27.361     8.479
    28   6 C      3.042     0.039    27.098     8.538
    29   6 C      2.946     0.028    27.381     8.582
    30   6 C      1.921     0.127    27.979     8.542
    31   7 N      0.911    -0.211    25.597     7.317
    32   6 C      1.920     0.126    28.016     8.548
    33   7 N      0.911    -0.200    25.357     7.283
    34   6 C      3.049    -0.040    28.953     8.825
    35   6 C      3.002     0.025    27.441     8.593
    36  16 S      2.271     0.004   140.913    19.979
    37   6 C      2.911    -0.100    30.511     9.058
    38   6 C      3.010    -0.027    28.661     8.782
    39   6 C      3.010    -0.028    28.674     8.784
    40   6 C      2.911    -0.099    30.502     9.056
    41  14 Si     3.811     0.449    98.089    18.947
    42   6 C      3.002     0.023    27.476     8.598
    43   6 C      3.049    -0.040    28.950     8.824
    44   6 C      3.242    -0.013    27.374     8.480
    45   6 C      3.083     0.017    27.535     8.602
    46  16 S      2.273     0.011   140.614    19.958
    47   6 C      3.081     0.022    27.432     8.586
    48   6 C      3.248    -0.016    27.363     8.470
    49   6 C      3.042     0.039    27.086     8.536
    50   6 C      2.947     0.025    27.452     8.593
    51   6 C      1.920     0.128    27.957     8.539
    52   7 N      0.911    -0.216    25.722     7.335
    53   6 C      1.918     0.127    27.988     8.544
    54   7 N      0.911    -0.211    25.586     7.316
    55   6 C      3.047    -0.032    28.759     8.795
    56   6 C      2.996     0.022    27.494     8.601
    57  16 S      2.267     0.068   138.307    19.794
    58   6 C      2.941    -0.028    28.702     8.787
    59   6 C      3.016    -0.004    28.112     8.697
    60   6 C      3.028     0.030    27.314     8.573
    61   6 C      2.946     0.007    27.870     8.659
    62   6 C      1.941     0.121    28.112     8.562
    63   7 N      0.911    -0.231    26.054     7.382
    64   6 C      1.943     0.124    28.046     8.552
    65   7 N      0.911    -0.226    25.952     7.368
    66   6 C      3.049     0.007    27.822     8.651
    67   6 C      3.048     0.008    27.798     8.647
    68   6 C      2.912    -0.024    28.602     8.770
    69   6 C      2.921    -0.018    28.449     8.747
    70   6 C      2.920    -0.019    28.471     8.750
    71   6 C      2.912    -0.026    28.642     8.776
    72   6 C      3.031     0.032    27.265     8.565
    73   6 C      2.947     0.009    27.821     8.651
    74   6 C      1.936     0.124    28.055     8.554
    75   7 N      0.911    -0.219    25.789     7.345
    76   6 C      1.935     0.123    28.059     8.554
    77   7 N      0.911    -0.240    26.272     7.413
    78   1 H      0.926     0.058     2.219     2.330
    79   1 H      0.926     0.053     2.283     2.363
    80   1 H      0.926     0.053     2.288     2.366
    81   1 H      0.926     0.055     2.255     2.348
    82   1 H      0.925     0.076     2.020     2.222
    83   1 H      0.926     0.076     2.022     2.224
    84   1 H      0.926     0.066     2.128     2.281
    85   1 H      0.926     0.050     2.320     2.382
    86   1 H      0.926     0.050     2.325     2.385
    87   1 H      0.919    -0.061     4.362     3.267
    88   1 H      0.919    -0.060     4.355     3.264
    89   1 H      0.926     0.066     2.134     2.284
    90   1 H      0.926     0.059     2.215     2.327
    91   1 H      0.925     0.071     2.076     2.253
    92   1 H      0.926     0.060     2.198     2.319
    93   1 H      0.926     0.054     2.266     2.354
    94   1 H      0.926     0.053     2.279     2.361
    95   1 H      0.926     0.058     2.227     2.334

 Mol. C6AA /au·bohr⁶  :     214574.104638
 Mol. C8AA /au·bohr⁸  :    6266248.559162
 Mol. α(0) /au        :        749.563432


Wiberg/Mayer (AO) data.
largest (>0.10) Wiberg bond orders for each atom
          total WBO             WBO to atom ...
     1  C   3.976        C    2 1.432    C    6 1.400    H   78 0.960
     2  C   3.969        C    1 1.432    C    3 1.427    H   79 0.969
     3  C   3.969        C    4 1.431    C    2 1.427    H   80 0.969
     4  C   3.977        C    3 1.431    C    5 1.402    H   81 0.963
     5  C   3.974        C    4 1.402    C    6 1.270    C   14 1.096
     6  C   3.974        C    1 1.400    C    5 1.270    C    7 1.096
     7  C   3.971        C    8 1.496    C   13 1.108    C    6 1.096
     8  C   3.941        C    7 1.496    C   11 1.095    C    9 1.093
     9  C   3.945        N   10 2.769    C    8 1.093
    10  N   2.971        C    9 2.769
    11  C   3.946        N   12 2.762    C    8 1.095
    12  N   2.971        C   11 2.762
    13  C   3.949        C   20 1.531    C    7 1.108    C   14 1.106
    14  C   3.969        C   15 1.491    C   13 1.106    C    5 1.096
    15  C   3.961        C   14 1.491    C   18 1.097    C   16 1.096
    16  C   3.945        N   17 2.766    C   15 1.096
    17  N   2.976        C   16 2.766
    18  C   3.946        N   19 2.770    C   15 1.097
    19  N   2.972        C   18 2.770
    20  C   3.938        C   13 1.531    C   21 1.249    H   82 0.935
    21  C   3.904        C   22 1.412    C   20 1.249    S   25 1.080
    22  C   3.954        C   21 1.412    C   23 1.363    H   83 0.956
    23  C   3.944        C   22 1.363    C   24 1.274    C   28 1.103
    24  C   3.924        C   23 1.274    C   26 1.223    S   25 1.204
    25  S   2.600        C   24 1.204    C   21 1.080
    26  C   3.903        C   27 1.283    C   24 1.223    S   36 1.181
    27  C   3.950        C   34 1.375    C   26 1.283    C   28 1.085
    28  C   3.981        C   29 1.519    C   23 1.103    C   27 1.085
    29  C   3.980        C   28 1.519    C   30 1.092    C   32 1.090
    30  C   3.948        N   31 2.786    C   29 1.092
    31  N   2.978        C   30 2.786
    32  C   3.949        N   33 2.791    C   29 1.090
    33  N   2.982        C   32 2.791
    34  C   3.956        C   35 1.396    C   27 1.375    H   84 0.955
    35  C   3.901        C   34 1.396    C   37 1.255    S   36 1.111
    36  S   2.585        C   26 1.181    C   35 1.111
    37  C   3.917        C   38 1.520    C   35 1.255    Si  41 0.899
    38  C   3.938        C   37 1.520    C   39 1.269    H   85 0.965
    39  C   3.940        C   40 1.522    C   38 1.269    H   86 0.965
    40  C   3.915        C   39 1.522    C   42 1.253    Si  41 0.898
    41  Si  3.646        C   37 0.899    C   40 0.898    H   87 0.886    H   88 0.886
    42  C   3.901        C   43 1.402    C   40 1.253    S   46 1.109
    43  C   3.955        C   42 1.402    C   44 1.368    H   89 0.956
    44  C   3.949        C   43 1.368    C   45 1.285    C   49 1.090
    45  C   3.903        C   44 1.285    C   47 1.214    S   46 1.188
    46  S   2.590        C   45 1.188    C   42 1.109
    47  C   3.925        C   48 1.270    S   57 1.222    C   45 1.214
    48  C   3.948        C   55 1.372    C   47 1.270    C   49 1.101
    49  C   3.981        C   50 1.514    C   48 1.101    C   44 1.090
    50  C   3.982        C   49 1.514    C   53 1.094    C   51 1.093
    51  C   3.947        N   52 2.785    C   50 1.093
    52  N   2.978        C   51 2.785
    53  C   3.948        N   54 2.786    C   50 1.094
    54  N   2.978        C   53 2.786
    55  C   3.961        C   56 1.400    C   48 1.372    H   90 0.955
    56  C   3.906        C   55 1.400    C   58 1.254    S   57 1.091
    57  S   2.614        C   47 1.222    C   56 1.091
    58  C   3.942        C   59 1.528    C   56 1.254    H   91 0.942
    59  C   3.949        C   58 1.528    C   60 1.104    C   72 1.104
    60  C   3.971        C   61 1.497    C   59 1.104    C   66 1.097
    61  C   3.940        C   60 1.497    C   62 1.095    C   64 1.092
    62  C   3.946        N   63 2.760    C   61 1.095
    63  N   2.968        C   62 2.760
    64  C   3.945        N   65 2.770    C   61 1.092
    65  N   2.972        C   64 2.770
    66  C   3.975        C   71 1.399    C   67 1.269    C   60 1.097
    67  C   3.976        C   68 1.403    C   66 1.269    C   72 1.095
    68  C   3.976        C   69 1.430    C   67 1.403    H   92 0.962
    69  C   3.968        C   68 1.430    C   70 1.427    H   93 0.969
    70  C   3.969        C   71 1.432    C   69 1.427    H   94 0.969
    71  C   3.976        C   70 1.432    C   66 1.399    H   95 0.961
    72  C   3.972        C   73 1.498    C   59 1.104    C   67 1.095
    73  C   3.961        C   72 1.498    C   76 1.098    C   74 1.091
    74  C   3.947        N   75 2.776    C   73 1.091
    75  N   2.979        C   74 2.776
    76  C   3.944        N   77 2.763    C   73 1.098
    77  N   2.976        C   76 2.763
    78  H   0.996        C    1 0.960
    79  H   0.997        C    2 0.969
    80  H   0.997        C    3 0.969
    81  H   0.996        C    4 0.963
    82  H   0.991        C   20 0.935
    83  H   0.994        C   22 0.956
    84  H   0.995        C   34 0.955
    85  H   0.997        C   38 0.965
    86  H   0.997        C   39 0.965
    87  H   0.995        Si  41 0.886
    88  H   0.995        Si  41 0.886
    89  H   0.995        C   43 0.956
    90  H   0.996        C   55 0.955
    91  H   0.992        C   58 0.942
    92  H   0.996        C   68 0.962
    93  H   0.997        C   69 0.969
    94  H   0.997        C   70 0.969
    95  H   0.996        C   71 0.961

molecular dipole:
                 x           y           z       tot (Debye)
 q only:       -0.879      -1.032       1.392
   full:       -0.860      -1.369       1.390       5.418
molecular quadrupole (traceless):
                xx          xy          yy          xz          yz          zz
 q only:        9.015     -36.811     -10.417     -24.485     -16.910       1.403
  q+dip:       -3.128     -39.896      11.018     -21.584      -5.919      -7.890
   full:       16.870     -41.836       0.773     -13.918      -7.384     -17.643

           -------------------------------------------------
          |                Geometry Summary                 |
           -------------------------------------------------

      molecular mass/u    :     1063.2081000
   center of mass at/Å    :       -6.6362120     -11.7995702       1.8973233
  moments of inertia/u·Å² :        0.1002579E+05   0.8818149E+05   0.9622858E+05
rotational constants/cm⁻¹ :        0.1681426E-02   0.1911697E-03   0.1751832E-03

 * 81 selected distances

     #   Z        #   Z                                     value/Å
     1   6 C      2   6 C                                 1.3871074
     2   6 C      3   6 C                                 1.3877553
     3   6 C      4   6 C                                 1.3867298
     4   6 C      5   6 C                                 1.3847133
     1   6 C      6   6 C                                 1.3860476
     5   6 C      6   6 C                                 1.4134542
     7   6 C      8   6 C                                 1.3687307
     9   6 C     10   7 N                                 1.1475209
    11   6 C     12   7 N                                 1.1481367
    14   6 C     15   6 C                                 1.3697898
    16   6 C     17   7 N                                 1.1480437
    18   6 C     19   7 N                                 1.1476308
    13   6 C     20   6 C                                 1.3679322
    20   6 C     21   6 C                                 1.4113111
    21   6 C     22   6 C                                 1.3888811
    22   6 C     23   6 C                                 1.3886078
    23   6 C     24   6 C                                 1.4131377
    24   6 C     25  16 S                                 1.7015641
    24   6 C     26   6 C                                 1.4089664
    26   6 C     27   6 C                                 1.4109470
    23   6 C     28   6 C                                 1.4515103
    28   6 C     29   6 C                                 1.3632567
    30   6 C     31   7 N                                 1.1464885
    32   6 C     33   7 N                                 1.1460310
    27   6 C     34   6 C                                 1.3875596
    34   6 C     35   6 C                                 1.3923675
    26   6 C     36  16 S                                 1.7098857
    35   6 C     36  16 S                                 1.7581567
    35   6 C     37   6 C                                 1.4115970
    37   6 C     38   6 C                                 1.3804702
    38   6 C     39   6 C                                 1.4176970
    39   6 C     40   6 C                                 1.3801863
    37   6 C     41  14 Si                                1.8702830
    40   6 C     41  14 Si                                1.8703839 (max)
    40   6 C     42   6 C                                 1.4120736
    42   6 C     43   6 C                                 1.3913569
    43   6 C     44   6 C                                 1.3884751
    44   6 C     45   6 C                                 1.4112639
    42   6 C     46  16 S                                 1.7589742
    45   6 C     46  16 S                                 1.7085212
    45   6 C     47   6 C                                 1.4119958
    47   6 C     48   6 C                                 1.4137288
    48   6 C     49   6 C                                 1.4510787
    49   6 C     50   6 C                                 1.3640805
    51   6 C     52   7 N                                 1.1466426
    53   6 C     54   7 N                                 1.1463906
    48   6 C     55   6 C                                 1.3859634
    55   6 C     56   6 C                                 1.3898153
    47   6 C     57  16 S                                 1.7004867
    56   6 C     58   6 C                                 1.4099019
    58   6 C     59   6 C                                 1.3678627
    60   6 C     61   6 C                                 1.3687804
    62   6 C     63   7 N                                 1.1482315
    64   6 C     65   7 N                                 1.1475195
    66   6 C     67   6 C                                 1.4132618
    67   6 C     68   6 C                                 1.3847081
    68   6 C     69   6 C                                 1.3869616
    69   6 C     70   6 C                                 1.3878659
    66   6 C     71   6 C                                 1.3860157
    70   6 C     71   6 C                                 1.3870805
    72   6 C     73   6 C                                 1.3688091
    74   6 C     75   7 N                                 1.1470356
    76   6 C     77   7 N                                 1.1481045
     1   6 C     78   1 H                                 1.0774156
     2   6 C     79   1 H                                 1.0792035
     3   6 C     80   1 H                                 1.0791834
     4   6 C     81   1 H                                 1.0780514
    20   6 C     82   1 H                                 1.0826163
    22   6 C     83   1 H                                 1.0752574
    34   6 C     84   1 H                                 1.0741735 (min)
    38   6 C     85   1 H                                 1.0787552
    39   6 C     86   1 H                                 1.0787504
    41  14 Si    87   1 H                                 1.4622290
    41  14 Si    88   1 H                                 1.4623930
    43   6 C     89   1 H                                 1.0742984
    55   6 C     90   1 H                                 1.0747624
    58   6 C     91   1 H                                 1.0819749
    68   6 C     92   1 H                                 1.0779098
    69   6 C     93   1 H                                 1.0791156
    70   6 C     94   1 H                                 1.0792218
    71   6 C     95   1 H                                 1.0775229

 * 6 distinct bonds (by element types)

   Z      Z             #   av. dist./Å        max./Å        min./Å
   1 H    6 C          16     1.0780133     1.0826163     1.0741735
   6 C    6 C          43     1.3939497     1.4515103     1.3632567
   6 C    7 N          12     1.1473147     1.1482315     1.1460310
   1 H   14 Si          2     1.4623110     1.4623930     1.4622290
   6 C   14 Si          2     1.8703335     1.8703839     1.8702830
   6 C   16 S           6     1.7229314     1.7589742     1.7004867


optimized geometry written to: xtbopt.xyz


           -------------------------------------------------
          | TOTAL ENERGY             -186.888574147028 Eh   |
          | GRADIENT NORM               0.000970194551 Eh/α |
          | HOMO-LUMO GAP               0.563158458480 eV   |
           -------------------------------------------------

------------------------------------------------------------------------
 * finished run on 2021/07/02 at 05:34:44.290     
------------------------------------------------------------------------
 total:
 * wall-time:     0 d,  0 h,  0 min, 35.593 sec
 *  cpu-time:     0 d,  0 h,  7 min,  6.593 sec
 * ratio c/w:    11.985 speedup
 SCF:
 * wall-time:     0 d,  0 h,  0 min,  0.385 sec
 *  cpu-time:     0 d,  0 h,  0 min,  4.361 sec
 * ratio c/w:    11.338 speedup
 ANC optimizer:
 * wall-time:     0 d,  0 h,  0 min, 35.151 sec
 *  cpu-time:     0 d,  0 h,  7 min,  1.693 sec
 * ratio c/w:    11.997 speedup

