      -----------------------------------------------------------      
     |                   =====================                   |     
     |                           x T B                           |     
     |                   =====================                   |     
     |                         S. Grimme                         |     
     |          Mulliken Center for Theoretical Chemistry        |     
     |                    University of Bonn                     |     
     |                Version 6.2 RC2 (SAW190805)                |     
      -----------------------------------------------------------      

   This program is distributed in the hope that it will be useful,
   but WITHOUT ANY WARRANTY; without even the implied warranty of
   MERCHANTABILITY or FITNESS FOR A PARTICULAR PURPOSE.
   
   FOR NON-COMMERCIAL, ACADEMIA USE ONLY.
   
   Cite this work as:
   * S. Grimme, C. Bannwarth, P. Shushkov, J. Chem. Theory Comput., 2017,
     13, 1989-2009. DOI: 10.1021/acs.jctc.7b00118
   * C. Bannwarth, S. Ehlert and S. Grimme., J. Chem. Theory Comput., 2019,
     15, 1652-1671. DOI: 10.1021/acs.jctc.8b01176
   * P. Pracht, E. Caldeweyher, S. Ehlert, S. Grimme, ChemRxiv, 2019, preprint.
     DOI: 10.26434/chemrxiv.8326202.v1
   
   for DFT-D4:
   * E. Caldeweyher, C. Bannwarth and S. Grimme, J. Chem. Phys., 2017,
     147, 034112. DOI: 10.1063/1.4993215
   * E. Caldeweyher, S. Ehlert, A. Hansen, H. Neugebauer, S. Spicher,
     C. Bannwarth and S. Grimme, J. Chem. Phys., 2019, 150, 154122.
     DOI: 10.1063/1.5090222
   
   for sTDA-xTB:
   * S. Grimme and C. Bannwarth, J. Chem. Phys., 2016, 145, 054103.
     DOI: 10.1063/1.4959605
   
   in the mass-spec context:
   * V. Asgeirsson, C. Bauer and S. Grimme, Chem. Sci., 2017, 8, 4879.
     DOI: 10.1039/c7sc00601b
   
   for metadynamics refer to:
   * S. Grimme, J. Chem. Theory Comput., 2019, 155, 2847-2862
     DOI: 10.1021/acs.jctc.9b00143
   
   with help from (in alphabetical order)
   C. Bannwarth, F. Bohle, G. Brandenburg, E. Caldeweyher, M. Checinski,
   S. Dohm, S. Ehlert, S. Ehrlich, F. März, H. Neugebauer, J. Pisarek,
   P. Pracht, P. Shushkov, and S. Spicher.
   
 * started run on 2021/06/26 at 04:33:24.291     

           -------------------------------------------------
          |                Calculation Setup                |
           -------------------------------------------------

          program call               : /ihome/ghutchison/geoffh/xtb/xtb /ihome/ghutchison/blp62/GA/running_GA/opt_GA/generations/60/42_42_6_42_42_11311.xyz -opt
          hostname                   : smp-n2
          coordinate file            : /ihome/ghutchison/blp62/GA/running_GA/opt_GA/generations/60/42_42_6_42_42_11311.xyz
          omp threads                :                    12
          number of atoms            :                    85
          number of electrons        :                   362
          charge                     :                     0
          spin                       :                   0.0
          first test random number   :      0.87265147137240


########################################################################
# WARNING! Please study the warnings concerning your input carefully
#  - XTBPATH is not set, using XTBHOME instead
#  - the use of '-opt' is discouraged, please use '--opt' next time
########################################################################

           ------------------------------------------------- 
          |                 G F N 2 - x T B                 |
          | Geometry, Frequencies, Noncovalent interactions |
          |            JCTC 2019 parametrisation            |
           ------------------------------------------------- 
             KAB for C  - Si     :                1.0500
             KAB for H  - Pd     :                0.9500
             k(s)              :                1.8500
             k(p)              :                2.2300
             k(d)              :                2.2300
             k(f)              :                2.0000
             kEN (H0ij)        :               -2.0000
             D4 a1             :                0.5200
             D4 a2             :                5.0000
             D4 s6             :                1.0000
             D4 s8             :                2.7000
             D4 s9             :                5.0000
             alphaj            :                2.0000

  Z AO/shell   Hii/eV     exponent
  1     Wed Apr 25 08:07:45 CEST 2018   EN: 2.200 GM2: 0.406  GM3: 0.0800  RAES: 1.40
     1s    -10.707211    1.230000
  6     Wed Apr 25 08:07:45 CEST 2018   EN: 2.550 GM2: 0.538  GM3: 0.1500  RAES: 3.00
     2s    -13.970922    2.096432
     2p    -10.063292    1.800000
  7     Wed Apr 25 08:07:45 CEST 2018   EN: 3.040 GM2: 0.461  GM3:-0.0640  RAES: 1.90
     2s    -16.686243    2.339881
     2p    -12.523956    2.014332
  8     Wed Apr 25 08:07:45 CEST 2018   EN: 3.440 GM2: 0.452  GM3:-0.0517  RAES: 1.80
     2s    -20.229985    2.439742
     2p    -15.503117    2.137023
  9     Mon Apr 23 13:58:50 CEST 2018   EN: 3.980 GM2: 0.532  GM3: 0.1426  RAES: 2.40
     2s    -23.458179    2.416361
     2p    -15.746583    2.308399
 16     Tue Apr 24 11:44:34 CEST 2018   EN: 2.580 GM2: 0.340  GM3:-0.0502  RAES: 3.10
     3s    -20.029654    1.981333
     3p    -11.377694    2.025643
     3d     -0.420282    1.702555
 35     Tue Apr 24 12:21:41 CEST 2018   EN: 2.960 GM2: 0.261  GM3: 0.1300  RAES: 4.00
     4s    -23.583718    2.077587
     4p    -12.588824    2.263120
     4d      0.047980    1.845038

           ------------------------------------------------- 
          |        Self-Consistent Charge Iterations        |
           ------------------------------------------------- 

          ...................................................
          :                      SETUP                      :
          :.................................................:
          :  # basis functions                 370          :
          :  # atomic orbitals                 361          :
          :  # shells                          171          :
          :  # electrons                       362          :
          :  max. iterations                   250          :
          :  Hamiltonian                  GFN2-xTB          :
          :  restarted?                      false          :
          :  GBSA solvation                  false          :
          :  PC potential                    false          :
          :  electronic temp.          300.0000000     K    :
          :  accuracy                    1.0000000          :
          :  -> integral cutoff          0.2500000E+02      :
          :  -> integral neglect         0.1000000E-07      :
          :  -> SCF convergence          0.1000000E-05 Eh   :
          :  -> wf. convergence          0.1000000E-03 e    :
          :  Broyden damping             0.4000000          :
          ...................................................

 iter      E             dE          RMSdq      gap      omega  full diag
   1   -204.5350630 -0.204535E+03  0.595E+00    1.56       0.0  T
   2   -204.5927784 -0.577154E-01  0.420E+00    1.27       1.0  T
   3   -204.6440746 -0.512962E-01  0.257E+00    1.46       1.0  T
   4   -204.9535178 -0.309443E+00  0.796E-01    1.35       1.0  T
   5   -204.9933167 -0.397989E-01  0.292E-01    1.37       1.0  T
   6   -204.9943057 -0.988954E-03  0.179E-01    1.37       1.0  T
   7   -204.9955154 -0.120968E-02  0.975E-02    1.38       1.0  T
   8   -204.9958276 -0.312283E-03  0.623E-02    1.38       1.0  T
   9   -204.9958474 -0.197446E-04  0.484E-02    1.37       1.0  T
  10   -204.9958925 -0.451644E-04  0.328E-02    1.37       1.0  T
  11   -204.9959131 -0.205081E-04  0.184E-02    1.37       1.0  T
  12   -204.9959229 -0.986548E-05  0.971E-03    1.37       1.1  T
  13   -204.9959241 -0.114737E-05  0.567E-03    1.37       1.9  T
  14   -204.9959256 -0.150372E-05  0.231E-03    1.37       4.7  T
  15   -204.9959257 -0.122156E-06  0.132E-03    1.37       8.2  T
  16   -204.9959257 -0.594366E-07  0.696E-04    1.37      15.6  T
  17   -204.9959258 -0.412282E-08  0.446E-04    1.37      24.3  T

   *** convergence criteria satisfied after 17 iterations ***

         #    Occupation            Energy/Eh            Energy/eV
      -------------------------------------------------------------
         1        2.0000           -0.8693177             -23.6553
       ...           ...                  ...                  ...
       175        2.0000           -0.4265779             -11.6078
       176        2.0000           -0.4236376             -11.5278
       177        2.0000           -0.4204016             -11.4397
       178        2.0000           -0.4195599             -11.4168
       179        2.0000           -0.4128851             -11.2352
       180        2.0000           -0.4096989             -11.1485
       181        2.0000           -0.4068598             -11.0712 (HOMO)
       182                         -0.3563662              -9.6972 (LUMO)
       183                         -0.3505287              -9.5384
       184                         -0.3452815              -9.3956
       185                         -0.3348476              -9.1117
       186                         -0.3302861              -8.9875
       ...                                ...                  ...
       361                          1.0808783              29.4122
      -------------------------------------------------------------
                  HL-Gap            0.0504936 Eh            1.3740 eV
             Fermi-level           -0.3815902 Eh          -10.3836 eV

 SCC (total)                   0 d,  0 h,  0 min,  0.266 sec
 SCC setup                      ...        0 min,  0.002 sec (  0.784%)
 Dispersion                     ...        0 min,  0.004 sec (  1.471%)
 integral evaluation            ...        0 min,  0.029 sec ( 10.876%)
 zeroth order Hamiltonian       ...        0 min,  0.001 sec (  0.492%)
 iterations                     ...        0 min,  0.210 sec ( 79.077%)
 molecular gradient             ...        0 min,  0.018 sec (  6.922%)
 printout                       ...        0 min,  0.001 sec (  0.344%)

         :::::::::::::::::::::::::::::::::::::::::::::::::::::
         ::                     SUMMARY                     ::
         :::::::::::::::::::::::::::::::::::::::::::::::::::::
         :: total energy            -202.274332560605 Eh    ::
         :: gradient norm              0.220262064763 Eh/a0 ::
         :: HOMO-LUMO gap              1.374000871234 eV    ::
         ::.................................................::
         :: SCC energy              -204.995925752313 Eh    ::
         :: -> isotropic ES            0.175206136563 Eh    ::
         :: -> anisotropic ES          0.018101180531 Eh    ::
         :: -> anisotropic XC          0.135388343337 Eh    ::
         :: -> dispersion             -0.157303548094 Eh    ::
         :: repulsion energy           2.722186047378 Eh    ::
         :: add. restraining           0.000000000000 Eh    ::
         :::::::::::::::::::::::::::::::::::::::::::::::::::::

      ----------------------------------------------------------- 
     |                   =====================                   |
     |                        A N C O P T                        |
     |                   =====================                   |
     |               Approximate Normal Coordinate               |
     |                Rational Function Optimizer                |
      ----------------------------------------------------------- 

          ...................................................
          :                      SETUP                      :
          :.................................................:
          :   optimization level            normal          :
          :   max. optcycles                   255          :
          :   ANC micro-cycles                  20          :
          :   degrees of freedom               249          :
          :.................................................:
          :   RF solver                   davidson          :
          :   input Hessian                  false          :
          :   write xtbopt.log                true          :
          :   linear?                        false          :
          :   energy convergence         0.5000000E-05 Eh   :
          :   grad. convergence          0.1000000E-02 Eh/α :
          :   maximium RF displ.         2.0000000          :
          :   Hlow (freq-cutoff)         0.5000000E-02      :
          :   Hmax (freq-cutoff)         5.0000000          :
          :   S6 in model hess.         20.0000000          :
          ...................................................

generating ANC from model Hessian ...
Using Lindh-Hessian (1995)
 Shifting diagonal of input Hessian by   5.029137378893751E-003
 Lowest  eigenvalues of input Hessian
    0.005000   -0.000000   -0.000000   -0.000000    0.000000    0.000000
    0.000000    0.005051    0.005078    0.005100    0.005136    0.005234
    0.005307    0.005504    0.005600    0.005642    0.006055    0.006167
 Highest eigenvalues
    2.500133    2.511998    2.522861    2.536499    2.568027    2.576598
 

........................................................................
.............................. CYCLE    1 ..............................
........................................................................
   1   -204.9959258 -0.204996E+03  0.242E-04    1.37       0.0  T
   2   -204.9959258  0.132957E-09  0.206E-04    1.37      52.6  T
   3   -204.9959258 -0.117154E-08  0.158E-04    1.37      68.6  T
     SCC iter.                  ...        0 min,  0.038 sec
     gradient                   ...        0 min,  0.018 sec
 * total energy  :  -202.2743326 Eh     change       -0.1993718E-07 Eh
   gradient norm :     0.2202622 Eh/α   predicted     0.0000000E+00 (-100.00%)
   displ. norm   :     0.4325269 α      lambda       -0.6356679E-01
   maximum displ.:     0.1364801 α      in ANC's #145, #58, #173, ...

........................................................................
.............................. CYCLE    2 ..............................
........................................................................
   1   -205.1370517 -0.205137E+03  0.435E-01    1.42       0.0  T
   2   -205.1374643 -0.412586E-03  0.243E-01    1.39       1.0  T
   3   -205.1360920  0.137236E-02  0.171E-01    1.39       1.0  T
   4   -205.1385687 -0.247677E-02  0.419E-02    1.39       1.0  T
   5   -205.1386146 -0.459137E-04  0.237E-02    1.39       1.0  T
   6   -205.1386316 -0.169670E-04  0.992E-03    1.39       1.1  T
   7   -205.1386368 -0.519956E-05  0.431E-03    1.39       2.5  T
   8   -205.1386377 -0.865550E-06  0.201E-03    1.39       5.4  T
     SCC iter.                  ...        0 min,  0.097 sec
     gradient                   ...        0 min,  0.017 sec
 * total energy  :  -202.3185827 Eh     change       -0.4425007E-01 Eh
   gradient norm :     0.0936802 Eh/α   predicted    -0.3772956E-01 ( -14.74%)
   displ. norm   :     0.4667929 α      lambda       -0.2372770E-01
   maximum displ.:     0.1416764 α      in ANC's #26, #58, #57, ...

........................................................................
.............................. CYCLE    3 ..............................
........................................................................
   1   -205.1808280 -0.205181E+03  0.430E-01    1.42       0.0  T
   2   -205.1811061 -0.278105E-03  0.224E-01    1.39       1.0  T
   3   -205.1795316  0.157447E-02  0.157E-01    1.39       1.0  T
   4   -205.1817235 -0.219189E-02  0.359E-02    1.39       1.0  T
   5   -205.1817437 -0.201979E-04  0.199E-02    1.39       1.0  T
   6   -205.1817572 -0.134982E-04  0.811E-03    1.39       1.3  T
   7   -205.1817602 -0.300846E-05  0.360E-03    1.39       3.0  T
   8   -205.1817609 -0.711851E-06  0.159E-03    1.39       6.8  T
     SCC iter.                  ...        0 min,  0.095 sec
     gradient                   ...        0 min,  0.017 sec
 * total energy  :  -202.3333755 Eh     change       -0.1479282E-01 Eh
   gradient norm :     0.0331280 Eh/α   predicted    -0.1444894E-01 (  -2.32%)
   displ. norm   :     0.5335084 α      lambda       -0.6862476E-02
   maximum displ.:     0.2404469 α      in ANC's #26, #29, #15, ...

........................................................................
.............................. CYCLE    4 ..............................
........................................................................
   1   -205.2016465 -0.205202E+03  0.362E-01    1.39       0.0  T
   2   -205.2018262 -0.179731E-03  0.176E-01    1.38       1.0  T
   3   -205.2015546  0.271596E-03  0.708E-02    1.38       1.0  T
   4   -205.2018976 -0.342943E-03  0.274E-02    1.37       1.0  T
   5   -205.2019132 -0.155697E-04  0.119E-02    1.37       1.0  T
   6   -205.2019203 -0.713951E-05  0.446E-03    1.37       2.4  T
   7   -205.2019211 -0.775063E-06  0.263E-03    1.37       4.1  T
   8   -205.2019213 -0.186157E-06  0.162E-03    1.37       6.7  T
     SCC iter.                  ...        0 min,  0.095 sec
     gradient                   ...        0 min,  0.017 sec
 * total energy  :  -202.3377174 Eh     change       -0.4341940E-02 Eh
   gradient norm :     0.0257703 Eh/α   predicted    -0.4407883E-02 (   1.52%)
   displ. norm   :     0.7188698 α      lambda       -0.8230738E-02
   maximum displ.:     0.2689205 α      in ANC's #26, #22, #15, ...

........................................................................
.............................. CYCLE    5 ..............................
........................................................................
   1   -205.2118091 -0.205212E+03  0.513E-01    1.36       0.0  T
   2   -205.2121402 -0.331086E-03  0.263E-01    1.35       1.0  T
   3   -205.2117354  0.404872E-03  0.904E-02    1.35       1.0  T
   4   -205.2122508 -0.515468E-03  0.359E-02    1.34       1.0  T
   5   -205.2122863 -0.354445E-04  0.158E-02    1.35       1.0  T
   6   -205.2123009 -0.145931E-04  0.596E-03    1.35       1.8  T
   7   -205.2123019 -0.104877E-05  0.381E-03    1.35       2.8  T
   8   -205.2123024 -0.437999E-06  0.233E-03    1.35       4.6  T
     SCC iter.                  ...        0 min,  0.097 sec
     gradient                   ...        0 min,  0.017 sec
 * total energy  :  -202.3389239 Eh     change       -0.1206505E-02 Eh
   gradient norm :     0.0426872 Eh/α   predicted    -0.6242082E-02 ( 417.37%)
   displ. norm   :     0.3346801 α      lambda       -0.6438970E-02
   maximum displ.:     0.1420937 α      in ANC's #26, #15, #32, ...

........................................................................
.............................. CYCLE    6 ..............................
........................................................................
   1   -205.2182860 -0.205218E+03  0.258E-01    1.33       0.0  T
   2   -205.2183596 -0.735695E-04  0.141E-01    1.34       1.0  T
   3   -205.2181008  0.258811E-03  0.590E-02    1.34       1.0  T
   4   -205.2184120 -0.311191E-03  0.130E-02    1.34       1.0  T
   5   -205.2184135 -0.151654E-05  0.724E-03    1.34       1.5  T
   6   -205.2184169 -0.334463E-05  0.261E-03    1.34       4.2  T
   7   -205.2184171 -0.216144E-06  0.159E-03    1.34       6.8  T
     SCC iter.                  ...        0 min,  0.085 sec
     gradient                   ...        0 min,  0.019 sec
 * total energy  :  -202.3423477 Eh     change       -0.3423803E-02 Eh
   gradient norm :     0.0356415 Eh/α   predicted    -0.3580095E-02 (   4.56%)
   displ. norm   :     0.4233674 α      lambda       -0.3217663E-02
   maximum displ.:     0.1733103 α      in ANC's #15, #26, #28, ...

........................................................................
.............................. CYCLE    7 ..............................
........................................................................
   1   -205.2239483 -0.205224E+03  0.263E-01    1.34       0.0  T
   2   -205.2240242 -0.758836E-04  0.142E-01    1.34       1.0  T
   3   -205.2238124  0.211739E-03  0.535E-02    1.35       1.0  T
   4   -205.2240673 -0.254869E-03  0.148E-02    1.34       1.0  T
   5   -205.2240732 -0.591566E-05  0.781E-03    1.34       1.4  T
   6   -205.2240763 -0.308482E-05  0.282E-03    1.34       3.9  T
   7   -205.2240766 -0.276858E-06  0.174E-03    1.34       6.2  T
     SCC iter.                  ...        0 min,  0.085 sec
     gradient                   ...        0 min,  0.017 sec
 * total energy  :  -202.3436505 Eh     change       -0.1302805E-02 Eh
   gradient norm :     0.0233532 Eh/α   predicted    -0.1897196E-02 (  45.62%)
   displ. norm   :     0.4371666 α      lambda       -0.2189009E-02
   maximum displ.:     0.1941967 α      in ANC's #15, #26, #17, ...

........................................................................
.............................. CYCLE    8 ..............................
........................................................................
   1   -205.2208219 -0.205221E+03  0.194E-01    1.33       0.0  T
   2   -205.2208566 -0.347465E-04  0.105E-01    1.34       1.0  T
   3   -205.2207837  0.729532E-04  0.338E-02    1.33       1.0  T
   4   -205.2208721 -0.884361E-04  0.117E-02    1.34       1.0  T
   5   -205.2208743 -0.213988E-05  0.631E-03    1.34       1.7  T
   6   -205.2208769 -0.265493E-05  0.234E-03    1.34       4.6  T
   7   -205.2208771 -0.193807E-06  0.136E-03    1.34       8.0  T
     SCC iter.                  ...        0 min,  0.083 sec
     gradient                   ...        0 min,  0.017 sec
 * total energy  :  -202.3453179 Eh     change       -0.1667404E-02 Eh
   gradient norm :     0.0202264 Eh/α   predicted    -0.1303677E-02 ( -21.81%)
   displ. norm   :     0.5706530 α      lambda       -0.2212606E-02
   maximum displ.:     0.2665495 α      in ANC's #15, #26, #17, ...

........................................................................
.............................. CYCLE    9 ..............................
........................................................................
   1   -205.2270630 -0.205227E+03  0.236E-01    1.32       0.0  T
   2   -205.2271154 -0.524317E-04  0.127E-01    1.33       1.0  T
   3   -205.2270296  0.857663E-04  0.402E-02    1.32       1.0  T
   4   -205.2271349 -0.105237E-03  0.157E-02    1.33       1.0  T
   5   -205.2271388 -0.393642E-05  0.713E-03    1.33       1.5  T
   6   -205.2271420 -0.323324E-05  0.277E-03    1.33       3.9  T
   7   -205.2271423 -0.254106E-06  0.176E-03    1.33       6.1  T
     SCC iter.                  ...        0 min,  0.084 sec
     gradient                   ...        0 min,  0.017 sec
 * total energy  :  -202.3468615 Eh     change       -0.1543556E-02 Eh
   gradient norm :     0.0171277 Eh/α   predicted    -0.1466563E-02 (  -4.99%)
   displ. norm   :     0.6220913 α      lambda       -0.1884288E-02
   maximum displ.:     0.2907757 α      in ANC's #15, #17, #18, ...

........................................................................
.............................. CYCLE   10 ..............................
........................................................................
   1   -205.2246531 -0.205225E+03  0.278E-01    1.32       0.0  T
   2   -205.2247228 -0.696991E-04  0.151E-01    1.32       1.0  T
   3   -205.2245748  0.148071E-03  0.495E-02    1.32       1.0  T
   4   -205.2247496 -0.174874E-03  0.180E-02    1.32       1.0  T
   5   -205.2247563 -0.664429E-05  0.935E-03    1.32       1.2  T
   6   -205.2247619 -0.558300E-05  0.340E-03    1.32       3.2  T
   7   -205.2247622 -0.350829E-06  0.208E-03    1.32       5.2  T
   8   -205.2247623 -0.621015E-07  0.126E-03    1.32       8.6  T
     SCC iter.                  ...        0 min,  0.094 sec
     gradient                   ...        0 min,  0.017 sec
 * total energy  :  -202.3479614 Eh     change       -0.1099929E-02 Eh
   gradient norm :     0.0332553 Eh/α   predicted    -0.1306755E-02 (  18.80%)
   displ. norm   :     0.5623351 α      lambda       -0.2095807E-02
   maximum displ.:     0.2583275 α      in ANC's #15, #17, #18, ...

........................................................................
.............................. CYCLE   11 ..............................
........................................................................
   1   -205.2286013 -0.205229E+03  0.251E-01    1.31       0.0  T
   2   -205.2286618 -0.604987E-04  0.136E-01    1.32       1.0  T
   3   -205.2285566  0.105225E-03  0.439E-02    1.32       1.0  T
   4   -205.2286833 -0.126756E-03  0.166E-02    1.32       1.0  T
   5   -205.2286880 -0.473521E-05  0.794E-03    1.32       1.4  T
   6   -205.2286919 -0.387129E-05  0.317E-03    1.32       3.4  T
   7   -205.2286922 -0.329406E-06  0.205E-03    1.32       5.3  T
     SCC iter.                  ...        0 min,  0.083 sec
     gradient                   ...        0 min,  0.017 sec
 * total energy  :  -202.3493598 Eh     change       -0.1398360E-02 Eh
   gradient norm :     0.0180911 Eh/α   predicted    -0.1379271E-02 (  -1.37%)
   displ. norm   :     0.5133233 α      lambda       -0.1598966E-02
   maximum displ.:     0.2287425 α      in ANC's #15, #17, #18, ...

........................................................................
.............................. CYCLE   12 ..............................
........................................................................
   1   -205.2330999 -0.205233E+03  0.251E-01    1.32       0.0  T
   2   -205.2331467 -0.468288E-04  0.133E-01    1.32       1.0  T
   3   -205.2330670  0.797682E-04  0.387E-02    1.32       1.0  T
   4   -205.2331601 -0.931069E-04  0.169E-02    1.32       1.0  T
   5   -205.2331656 -0.552425E-05  0.807E-03    1.32       1.3  T
   6   -205.2331704 -0.482365E-05  0.281E-03    1.32       3.9  T
   7   -205.2331706 -0.229997E-06  0.195E-03    1.32       5.6  T
   8   -205.2331707 -0.705190E-07  0.122E-03    1.32       8.9  T
     SCC iter.                  ...        0 min,  0.095 sec
     gradient                   ...        0 min,  0.017 sec
 * total energy  :  -202.3503452 Eh     change       -0.9854409E-03 Eh
   gradient norm :     0.0211631 Eh/α   predicted    -0.1010152E-02 (   2.51%)
   displ. norm   :     0.5832076 α      lambda       -0.1505675E-02
   maximum displ.:     0.2667629 α      in ANC's #17, #15, #18, ...

........................................................................
.............................. CYCLE   13 ..............................
........................................................................
   1   -205.2354603 -0.205235E+03  0.282E-01    1.32       0.0  T
   2   -205.2355170 -0.567772E-04  0.150E-01    1.32       1.0  T
   3   -205.2354445  0.725094E-04  0.407E-02    1.32       1.0  T
   4   -205.2355341 -0.895165E-04  0.178E-02    1.32       1.0  T
   5   -205.2355385 -0.443086E-05  0.814E-03    1.32       1.3  T
   6   -205.2355436 -0.508290E-05  0.260E-03    1.32       4.2  T
   7   -205.2355437 -0.141750E-06  0.182E-03    1.32       6.0  T
     SCC iter.                  ...        0 min,  0.083 sec
     gradient                   ...        0 min,  0.017 sec
 * total energy  :  -202.3513389 Eh     change       -0.9936859E-03 Eh
   gradient norm :     0.0182298 Eh/α   predicted    -0.1008900E-02 (   1.53%)
   displ. norm   :     0.4775941 α      lambda       -0.9590636E-03
   maximum displ.:     0.2345322 α      in ANC's #17, #15, #6, ...

........................................................................
.............................. CYCLE   14 ..............................
........................................................................
   1   -205.2302273 -0.205230E+03  0.241E-01    1.32       0.0  T
   2   -205.2302698 -0.424327E-04  0.127E-01    1.33       1.0  T
   3   -205.2301794  0.903304E-04  0.389E-02    1.32       1.0  T
   4   -205.2302836 -0.104190E-03  0.163E-02    1.33       1.0  T
   5   -205.2302896 -0.594499E-05  0.668E-03    1.32       1.6  T
   6   -205.2302925 -0.296839E-05  0.247E-03    1.32       4.4  T
   7   -205.2302927 -0.173299E-06  0.166E-03    1.32       6.5  T
     SCC iter.                  ...        0 min,  0.084 sec
     gradient                   ...        0 min,  0.017 sec
 * total energy  :  -202.3519428 Eh     change       -0.6039009E-03 Eh
   gradient norm :     0.0167579 Eh/α   predicted    -0.5889108E-03 (  -2.48%)
   displ. norm   :     0.4608996 α      lambda       -0.9691869E-03
   maximum displ.:     0.1933544 α      in ANC's #17, #6, #15, ...

........................................................................
.............................. CYCLE   15 ..............................
........................................................................
   1   -205.2344907 -0.205234E+03  0.226E-01    1.33       0.0  T
   2   -205.2345350 -0.443245E-04  0.116E-01    1.33       1.0  T
   3   -205.2345087  0.263138E-04  0.291E-02    1.33       1.0  T
   4   -205.2345401 -0.313985E-04  0.161E-02    1.33       1.0  T
   5   -205.2345471 -0.692566E-05  0.700E-03    1.33       1.6  T
   6   -205.2345505 -0.343487E-05  0.235E-03    1.33       4.6  T
   7   -205.2345506 -0.958699E-07  0.173E-03    1.33       6.3  T
   8   -205.2345506 -0.588607E-07  0.110E-03    1.33       9.8  T
     SCC iter.                  ...        0 min,  0.096 sec
     gradient                   ...        0 min,  0.017 sec
 * total energy  :  -202.3523931 Eh     change       -0.4503090E-03 Eh
   gradient norm :     0.0199278 Eh/α   predicted    -0.5875360E-03 (  30.47%)
   displ. norm   :     0.2740859 α      lambda       -0.7198555E-03
   maximum displ.:     0.1173842 α      in ANC's #6, #8, #26, ...

........................................................................
.............................. CYCLE   16 ..............................
........................................................................
   1   -205.2454884 -0.205245E+03  0.147E-01    1.34       0.0  T
   2   -205.2455124 -0.240871E-04  0.754E-02    1.34       1.0  T
   3   -205.2454806  0.318582E-04  0.256E-02    1.34       1.0  T
   4   -205.2455212 -0.405857E-04  0.104E-02    1.34       1.0  T
   5   -205.2455225 -0.129044E-05  0.454E-03    1.34       2.4  T
   6   -205.2455237 -0.128984E-05  0.178E-03    1.34       6.1  T
   7   -205.2455238 -0.949412E-07  0.115E-03    1.34       9.4  T
     SCC iter.                  ...        0 min,  0.084 sec
     gradient                   ...        0 min,  0.017 sec
 * total energy  :  -202.3525231 Eh     change       -0.1299614E-03 Eh
   gradient norm :     0.0196800 Eh/α   predicted    -0.3869704E-03 ( 197.76%)
   displ. norm   :     0.3815235 α      lambda       -0.9632698E-03
   maximum displ.:     0.1588368 α      in ANC's #6, #17, #15, ...

........................................................................
.............................. CYCLE   17 ..............................
........................................................................
   1   -205.2257718 -0.205226E+03  0.181E-01    1.32       0.0  T
   2   -205.2258057 -0.338284E-04  0.968E-02    1.33       1.0  T
   3   -205.2257237  0.820217E-04  0.351E-02    1.33       1.0  T
   4   -205.2258188 -0.951038E-04  0.125E-02    1.33       1.0  T
   5   -205.2258218 -0.304384E-05  0.673E-03    1.33       1.6  T
   6   -205.2258247 -0.285000E-05  0.227E-03    1.33       4.8  T
   7   -205.2258249 -0.231475E-06  0.135E-03    1.33       8.0  T
     SCC iter.                  ...        0 min,  0.085 sec
     gradient                   ...        0 min,  0.017 sec
 * total energy  :  -202.3527950 Eh     change       -0.2719666E-03 Eh
   gradient norm :     0.0255023 Eh/α   predicted    -0.5517457E-03 ( 102.87%)
   displ. norm   :     0.1519430 α      lambda       -0.7223879E-03
   maximum displ.:     0.0576861 α      in ANC's #28, #20, #27, ...

........................................................................
.............................. CYCLE   18 ..............................
........................................................................
   1   -205.2316212 -0.205232E+03  0.113E-01    1.32       0.0  T
   2   -205.2316348 -0.136552E-04  0.624E-02    1.33       1.0  T
   3   -205.2315781  0.567312E-04  0.272E-02    1.33       1.0  T
   4   -205.2316448 -0.667477E-04  0.507E-03    1.33       2.1  T
   5   -205.2316457 -0.913561E-06  0.282E-03    1.33       3.8  T
   6   -205.2316461 -0.382091E-06  0.126E-03    1.33       8.6  T
     SCC iter.                  ...        0 min,  0.071 sec
     gradient                   ...        0 min,  0.017 sec
 * total energy  :  -202.3530039 Eh     change       -0.2088705E-03 Eh
   gradient norm :     0.0165660 Eh/α   predicted    -0.3695349E-03 (  76.92%)
   displ. norm   :     0.1663473 α      lambda       -0.4279045E-03
   maximum displ.:     0.0663449 α      in ANC's #6, #8, #13, ...

........................................................................
.............................. CYCLE   19 ..............................
........................................................................
   1   -205.2371044 -0.205237E+03  0.779E-02    1.33       0.0  T
   2   -205.2371146 -0.102417E-04  0.404E-02    1.33       1.0  T
   3   -205.2370971  0.174967E-04  0.158E-02    1.33       1.0  T
   4   -205.2371180 -0.208186E-04  0.594E-03    1.33       1.8  T
   5   -205.2371191 -0.111441E-05  0.274E-03    1.33       4.0  T
   6   -205.2371194 -0.290998E-06  0.105E-03    1.33      10.3  T
     SCC iter.                  ...        0 min,  0.073 sec
     gradient                   ...        0 min,  0.017 sec
 * total energy  :  -202.3532200 Eh     change       -0.2160372E-03 Eh
   gradient norm :     0.0088594 Eh/α   predicted    -0.2198764E-03 (   1.78%)
   displ. norm   :     0.3215087 α      lambda       -0.3115140E-03
   maximum displ.:     0.1596235 α      in ANC's #6, #17, #8, ...

........................................................................
.............................. CYCLE   20 ..............................
........................................................................
   1   -205.2357006 -0.205236E+03  0.152E-01    1.32       0.0  T
   2   -205.2357205 -0.198458E-04  0.776E-02    1.32       1.0  T
   3   -205.2357021  0.184281E-04  0.200E-02    1.32       1.0  T
   4   -205.2357226 -0.205029E-04  0.112E-02    1.32       1.0  T
   5   -205.2357273 -0.471312E-05  0.374E-03    1.32       2.9  T
   6   -205.2357281 -0.867172E-06  0.138E-03    1.32       7.9  T
   7   -205.2357282 -0.534584E-07  0.947E-04    1.32      11.4  T
     SCC iter.                  ...        0 min,  0.088 sec
     gradient                   ...        0 min,  0.018 sec
 * total energy  :  -202.3533744 Eh     change       -0.1544748E-03 Eh
   gradient norm :     0.0133670 Eh/α   predicted    -0.1718590E-03 (  11.25%)
   displ. norm   :     0.2951118 α      lambda       -0.2688612E-03
   maximum displ.:     0.1568834 α      in ANC's #6, #8, #13, ...
 * RMSD in coord.:     0.6909417 α      energy gain  -0.7904187E-01 Eh

generating ANC from model Hessian ...
Using Lindh-Hessian (1995)
 Shifting diagonal of input Hessian by   5.044285066301187E-003
 Lowest  eigenvalues of input Hessian
    0.005000   -0.000000   -0.000000    0.000000    0.000000    0.000000
    0.000000    0.005048    0.005072    0.005117    0.005164    0.005215
    0.005367    0.005432    0.005654    0.005726    0.005795    0.006064
 Highest eigenvalues
    2.599903    2.607936    2.632742    2.642412    2.643603    2.659409
 

........................................................................
.............................. CYCLE   21 ..............................
........................................................................
   1   -205.2343563 -0.205234E+03  0.134E-01    1.32       0.0  T
   2   -205.2343737 -0.173575E-04  0.679E-02    1.32       1.0  T
   3   -205.2343643  0.940180E-05  0.167E-02    1.32       1.0  T
   4   -205.2343753 -0.109801E-04  0.979E-03    1.32       1.1  T
   5   -205.2343790 -0.376722E-05  0.323E-03    1.32       3.4  T
   6   -205.2343797 -0.674581E-06  0.139E-03    1.32       7.8  T
   7   -205.2343797 -0.389247E-07  0.976E-04    1.32      11.1  T
   8   -205.2343797 -0.722176E-08  0.642E-04    1.32      16.9  T
     SCC iter.                  ...        0 min,  0.097 sec
     gradient                   ...        0 min,  0.018 sec
 * total energy  :  -202.3535509 Eh     change       -0.1765231E-03 Eh
   gradient norm :     0.0090901 Eh/α   predicted     0.0000000E+00 (-100.00%)
   displ. norm   :     0.1240843 α      lambda       -0.2043799E-03
   maximum displ.:     0.0540017 α      in ANC's #7, #11, #5, ...

........................................................................
.............................. CYCLE   22 ..............................
........................................................................
   1   -205.2355744 -0.205236E+03  0.779E-02    1.32       0.0  T
   2   -205.2355800 -0.559228E-05  0.417E-02    1.32       1.0  T
   3   -205.2355726  0.739320E-05  0.119E-02    1.32       1.0  T
   4   -205.2355824 -0.978910E-05  0.432E-03    1.32       2.5  T
   5   -205.2355825 -0.168802E-06  0.230E-03    1.32       4.7  T
   6   -205.2355829 -0.372708E-06  0.835E-04    1.32      13.0  T
     SCC iter.                  ...        0 min,  0.073 sec
     gradient                   ...        0 min,  0.017 sec
 * total energy  :  -202.3536389 Eh     change       -0.8790543E-04 Eh
   gradient norm :     0.0044595 Eh/α   predicted    -0.1038371E-03 (  18.12%)
   displ. norm   :     0.1557844 α      lambda       -0.2624052E-03
   maximum displ.:     0.0597940 α      in ANC's #6, #9, #4, ...

........................................................................
.............................. CYCLE   23 ..............................
........................................................................
   1   -205.2374355 -0.205237E+03  0.116E-01    1.32       0.0  T
   2   -205.2374471 -0.115654E-04  0.626E-02    1.32       1.0  T
   3   -205.2374357  0.113976E-04  0.148E-02    1.32       1.0  T
   4   -205.2374516 -0.159176E-04  0.591E-03    1.32       1.8  T
   5   -205.2374524 -0.825814E-06  0.271E-03    1.32       4.0  T
   6   -205.2374529 -0.484089E-06  0.112E-03    1.32       9.7  T
     SCC iter.                  ...        0 min,  0.073 sec
     gradient                   ...        0 min,  0.017 sec
 * total energy  :  -202.3535696 Eh     change        0.6928031E-04 Eh
   gradient norm :     0.0131922 Eh/α   predicted    -0.1343868E-03 (-293.98%)
   displ. norm   :     0.0922018 α      lambda       -0.3883740E-03
   maximum displ.:     0.0315767 α      in ANC's #27, #7, #35, ...

........................................................................
.............................. CYCLE   24 ..............................
........................................................................
   1   -205.2382189 -0.205238E+03  0.881E-02    1.32       0.0  T
   2   -205.2382254 -0.648035E-05  0.482E-02    1.32       1.0  T
   3   -205.2382071  0.182629E-04  0.159E-02    1.32       1.0  T
   4   -205.2382298 -0.226638E-04  0.261E-03    1.32       4.2  T
   5   -205.2382298 -0.246782E-07  0.166E-03    1.32       6.5  T
   6   -205.2382300 -0.214375E-06  0.622E-04    1.32      17.4  T
     SCC iter.                  ...        0 min,  0.073 sec
     gradient                   ...        0 min,  0.017 sec
 * total energy  :  -202.3537385 Eh     change       -0.1689742E-03 Eh
   gradient norm :     0.0068734 Eh/α   predicted    -0.1958418E-03 (  15.90%)
   displ. norm   :     0.0978573 α      lambda       -0.2200495E-03
   maximum displ.:     0.0369641 α      in ANC's #31, #4, #11, ...

........................................................................
.............................. CYCLE   25 ..............................
........................................................................
   1   -205.2359736 -0.205236E+03  0.797E-02    1.32       0.0  T
   2   -205.2359804 -0.678609E-05  0.430E-02    1.32       1.0  T
   3   -205.2359641  0.162655E-04  0.156E-02    1.32       1.0  T
   4   -205.2359845 -0.204302E-04  0.338E-03    1.32       3.2  T
   5   -205.2359846 -0.110045E-06  0.196E-03    1.32       5.5  T
   6   -205.2359849 -0.275454E-06  0.748E-04    1.32      14.5  T
     SCC iter.                  ...        0 min,  0.073 sec
     gradient                   ...        0 min,  0.017 sec
 * total energy  :  -202.3537508 Eh     change       -0.1227179E-04 Eh
   gradient norm :     0.0071241 Eh/α   predicted    -0.1110802E-03 ( 805.17%)
   displ. norm   :     0.1108652 α      lambda       -0.1929798E-03
   maximum displ.:     0.0545441 α      in ANC's #7, #11, #9, ...

........................................................................
.............................. CYCLE   26 ..............................
........................................................................
   1   -205.2361741 -0.205236E+03  0.715E-02    1.32       0.0  T
   2   -205.2361783 -0.412878E-05  0.388E-02    1.32       1.0  T
   3   -205.2361770  0.130120E-05  0.677E-03    1.32       1.6  T
   4   -205.2361797 -0.276711E-05  0.319E-03    1.32       3.4  T
   5   -205.2361800 -0.275477E-06  0.142E-03    1.32       7.6  T
   6   -205.2361801 -0.143919E-06  0.556E-04    1.32      19.5  T
     SCC iter.                  ...        0 min,  0.073 sec
     gradient                   ...        0 min,  0.017 sec
 * total energy  :  -202.3538364 Eh     change       -0.8561311E-04 Eh
   gradient norm :     0.0050380 Eh/α   predicted    -0.9767709E-04 (  14.09%)
   displ. norm   :     0.2433169 α      lambda       -0.3026349E-03
   maximum displ.:     0.0993099 α      in ANC's #4, #17, #11, ...

........................................................................
.............................. CYCLE   27 ..............................
........................................................................
   1   -205.2365793 -0.205237E+03  0.136E-01    1.32       0.0  T
   2   -205.2365953 -0.160117E-04  0.733E-02    1.32       1.0  T
   3   -205.2365802  0.150826E-04  0.182E-02    1.32       1.0  T
   4   -205.2366011 -0.209488E-04  0.757E-03    1.32       1.4  T
   5   -205.2366021 -0.991395E-06  0.358E-03    1.32       3.0  T
   6   -205.2366032 -0.103389E-05  0.127E-03    1.32       8.5  T
   7   -205.2366032 -0.300773E-07  0.869E-04    1.32      12.5  T
     SCC iter.                  ...        0 min,  0.084 sec
     gradient                   ...        0 min,  0.017 sec
 * total energy  :  -202.3537308 Eh     change        0.1055936E-03 Eh
   gradient norm :     0.0111251 Eh/α   predicted    -0.1602762E-03 (-251.79%)
   displ. norm   :     0.0952627 α      lambda       -0.4492349E-03
   maximum displ.:     0.0430356 α      in ANC's #7, #31, #27, ...

........................................................................
.............................. CYCLE   28 ..............................
........................................................................
   1   -205.2378133 -0.205238E+03  0.806E-02    1.32       0.0  T
   2   -205.2378194 -0.610601E-05  0.441E-02    1.32       1.0  T
   3   -205.2378070  0.123580E-04  0.135E-02    1.32       1.0  T
   4   -205.2378230 -0.160138E-04  0.251E-03    1.32       4.3  T
   5   -205.2378231 -0.849726E-07  0.149E-03    1.32       7.3  T
   6   -205.2378233 -0.141460E-06  0.579E-04    1.32      18.7  T
     SCC iter.                  ...        0 min,  0.072 sec
     gradient                   ...        0 min,  0.017 sec
 * total energy  :  -202.3539811 Eh     change       -0.2502426E-03 Eh
   gradient norm :     0.0051348 Eh/α   predicted    -0.2266590E-03 (  -9.42%)
   displ. norm   :     0.1774243 α      lambda       -0.1273823E-03
   maximum displ.:     0.0823701 α      in ANC's #7, #4, #11, ...

........................................................................
.............................. CYCLE   29 ..............................
........................................................................
   1   -205.2355197 -0.205236E+03  0.809E-02    1.32       0.0  T
   2   -205.2355245 -0.473047E-05  0.423E-02    1.32       1.0  T
   3   -205.2355230  0.146007E-05  0.847E-03    1.32       1.3  T
   4   -205.2355251 -0.211740E-05  0.504E-03    1.32       2.2  T
   5   -205.2355261 -0.930250E-06  0.175E-03    1.32       6.2  T
   6   -205.2355263 -0.199837E-06  0.862E-04    1.32      12.6  T
     SCC iter.                  ...        0 min,  0.073 sec
     gradient                   ...        0 min,  0.017 sec
 * total energy  :  -202.3540660 Eh     change       -0.8492902E-04 Eh
   gradient norm :     0.0036268 Eh/α   predicted    -0.6569626E-04 ( -22.65%)
   displ. norm   :     0.4270308 α      lambda       -0.1838845E-03
   maximum displ.:     0.1978763 α      in ANC's #7, #4, #11, ...

........................................................................
.............................. CYCLE   30 ..............................
........................................................................
   1   -205.2328730 -0.205233E+03  0.178E-01    1.32       0.0  T
   2   -205.2328944 -0.214726E-04  0.929E-02    1.32       1.0  T
   3   -205.2328943  0.168208E-06  0.166E-02    1.32       1.0  T
   4   -205.2328929  0.131985E-05  0.117E-02    1.32       1.0  T
   5   -205.2329006 -0.767643E-05  0.348E-03    1.32       3.1  T
   6   -205.2329014 -0.814246E-06  0.179E-03    1.32       6.1  T
   7   -205.2329015 -0.212463E-07  0.132E-03    1.32       8.2  T
   8   -205.2329015 -0.338749E-07  0.723E-04    1.32      15.0  T
   9   -205.2329015 -0.808205E-08  0.424E-04    1.32      25.6  T
     SCC iter.                  ...        0 min,  0.108 sec
     gradient                   ...        0 min,  0.018 sec
 * total energy  :  -202.3542077 Eh     change       -0.1417248E-03 Eh
   gradient norm :     0.0067387 Eh/α   predicted    -0.1087123E-03 ( -23.29%)
   displ. norm   :     0.6729511 α      lambda       -0.2872581E-03
   maximum displ.:     0.3066881 α      in ANC's #7, #4, #11, ...

........................................................................
.............................. CYCLE   31 ..............................
........................................................................
   1   -205.2305026 -0.205231E+03  0.270E-01    1.32       0.0  T
   2   -205.2305496 -0.470478E-04  0.141E-01    1.32       1.0  T
   3   -205.2305476  0.197764E-05  0.261E-02    1.32       1.0  T
   4   -205.2305440  0.360734E-05  0.184E-02    1.32       1.0  T
   5   -205.2305628 -0.187484E-04  0.522E-03    1.32       2.1  T
   6   -205.2305645 -0.171524E-05  0.260E-03    1.32       4.2  T
   7   -205.2305645 -0.325144E-07  0.195E-03    1.32       5.6  T
     SCC iter.                  ...        0 min,  0.083 sec
     gradient                   ...        0 min,  0.017 sec
 * total energy  :  -202.3543914 Eh     change       -0.1836251E-03 Eh
   gradient norm :     0.0060621 Eh/α   predicted    -0.2086877E-03 (  13.65%)
   displ. norm   :     0.4107176 α      lambda       -0.2004005E-03
   maximum displ.:     0.1954047 α      in ANC's #4, #7, #11, ...

........................................................................
.............................. CYCLE   32 ..............................
........................................................................
   1   -205.2321316 -0.205232E+03  0.166E-01    1.32       0.0  T
   2   -205.2321499 -0.183031E-04  0.871E-02    1.32       1.0  T
   3   -205.2321457  0.425432E-05  0.170E-02    1.32       1.0  T
   4   -205.2321512 -0.557526E-05  0.107E-02    1.32       1.0  T
   5   -205.2321558 -0.456088E-05  0.321E-03    1.32       3.4  T
   6   -205.2321564 -0.624819E-06  0.163E-03    1.32       6.6  T
   7   -205.2321564 -0.100773E-07  0.119E-03    1.32       9.1  T
     SCC iter.                  ...        0 min,  0.083 sec
     gradient                   ...        0 min,  0.017 sec
 * total energy  :  -202.3545464 Eh     change       -0.1549955E-03 Eh
   gradient norm :     0.0044163 Eh/α   predicted    -0.1171073E-03 ( -24.44%)
   displ. norm   :     0.4729917 α      lambda       -0.1892892E-03
   maximum displ.:     0.2338118 α      in ANC's #4, #7, #5, ...

........................................................................
.............................. CYCLE   33 ..............................
........................................................................
   1   -205.2349574 -0.205235E+03  0.188E-01    1.31       0.0  T
   2   -205.2349801 -0.227360E-04  0.986E-02    1.32       1.0  T
   3   -205.2349742  0.588269E-05  0.192E-02    1.31       1.0  T
   4   -205.2349803 -0.609541E-05  0.124E-02    1.32       1.0  T
   5   -205.2349869 -0.654441E-05  0.415E-03    1.32       2.6  T
   6   -205.2349880 -0.117907E-05  0.192E-03    1.32       5.7  T
   7   -205.2349881 -0.277314E-07  0.146E-03    1.32       7.5  T
     SCC iter.                  ...        0 min,  0.083 sec
     gradient                   ...        0 min,  0.017 sec
 * total energy  :  -202.3546902 Eh     change       -0.1438618E-03 Eh
   gradient norm :     0.0036871 Eh/α   predicted    -0.1158198E-03 ( -19.49%)
   displ. norm   :     0.5917974 α      lambda       -0.1793620E-03
   maximum displ.:     0.2974440 α      in ANC's #4, #7, #5, ...

........................................................................
.............................. CYCLE   34 ..............................
........................................................................
   1   -205.2334088 -0.205233E+03  0.244E-01    1.31       0.0  T
   2   -205.2334465 -0.376962E-04  0.127E-01    1.31       1.0  T
   3   -205.2334391  0.738844E-05  0.241E-02    1.31       1.0  T
   4   -205.2334447 -0.567378E-05  0.164E-02    1.31       1.0  T
   5   -205.2334574 -0.126804E-04  0.522E-03    1.31       2.1  T
   6   -205.2334593 -0.183096E-05  0.248E-03    1.31       4.4  T
   7   -205.2334593 -0.607575E-07  0.185E-03    1.31       5.9  T
   8   -205.2334594 -0.640439E-07  0.103E-03    1.31      10.5  T
   9   -205.2334594 -0.174270E-07  0.604E-04    1.31      18.0  T
  10   -205.2334594 -0.806043E-08  0.304E-04    1.31      35.6  T
     SCC iter.                  ...        0 min,  0.117 sec
     gradient                   ...        0 min,  0.018 sec
 * total energy  :  -202.3548224 Eh     change       -0.1322310E-03 Eh
   gradient norm :     0.0055749 Eh/α   predicted    -0.1210937E-03 (  -8.42%)
   displ. norm   :     0.5516955 α      lambda       -0.1760050E-03
   maximum displ.:     0.2911749 α      in ANC's #4, #7, #5, ...

........................................................................
.............................. CYCLE   35 ..............................
........................................................................
   1   -205.2347456 -0.205235E+03  0.233E-01    1.30       0.0  T
   2   -205.2347793 -0.337354E-04  0.121E-01    1.31       1.0  T
   3   -205.2347702  0.905336E-05  0.230E-02    1.31       1.0  T
   4   -205.2347770 -0.670881E-05  0.156E-02    1.31       1.0  T
   5   -205.2347894 -0.124261E-04  0.509E-03    1.31       2.1  T
   6   -205.2347910 -0.159884E-05  0.241E-03    1.31       4.5  T
   7   -205.2347910 -0.510631E-07  0.182E-03    1.31       6.0  T
     SCC iter.                  ...        0 min,  0.083 sec
     gradient                   ...        0 min,  0.017 sec
 * total energy  :  -202.3549508 Eh     change       -0.1283991E-03 Eh
   gradient norm :     0.0044667 Eh/α   predicted    -0.1147932E-03 ( -10.60%)
   displ. norm   :     0.4484364 α      lambda       -0.1388767E-03
   maximum displ.:     0.2460940 α      in ANC's #4, #7, #5, ...

........................................................................
.............................. CYCLE   36 ..............................
........................................................................
   1   -205.2379468 -0.205238E+03  0.189E-01    1.30       0.0  T
   2   -205.2379691 -0.223172E-04  0.979E-02    1.30       1.0  T
   3   -205.2379644  0.470332E-05  0.184E-02    1.30       1.0  T
   4   -205.2379682 -0.378247E-05  0.125E-02    1.31       1.0  T
   5   -205.2379758 -0.762784E-05  0.399E-03    1.30       2.7  T
   6   -205.2379767 -0.849947E-06  0.223E-03    1.31       4.9  T
   7   -205.2379767 -0.629147E-07  0.168E-03    1.31       6.4  T
     SCC iter.                  ...        0 min,  0.083 sec
     gradient                   ...        0 min,  0.017 sec
 * total energy  :  -202.3550475 Eh     change       -0.9669187E-04 Eh
   gradient norm :     0.0048837 Eh/α   predicted    -0.8340571E-04 ( -13.74%)
   displ. norm   :     0.5802781 α      lambda       -0.1254609E-03
   maximum displ.:     0.3245788 α      in ANC's #4, #7, #5, ...

........................................................................
.............................. CYCLE   37 ..............................
........................................................................
   1   -205.2310870 -0.205231E+03  0.239E-01    1.30       0.0  T
   2   -205.2311225 -0.354909E-04  0.124E-01    1.30       1.0  T
   3   -205.2311189  0.360468E-05  0.228E-02    1.30       1.0  T
   4   -205.2311195 -0.667573E-06  0.159E-02    1.30       1.0  T
   5   -205.2311330 -0.135052E-04  0.456E-03    1.30       2.4  T
   6   -205.2311341 -0.107015E-05  0.251E-03    1.30       4.3  T
   7   -205.2311341 -0.547362E-07  0.190E-03    1.30       5.7  T
     SCC iter.                  ...        0 min,  0.083 sec
     gradient                   ...        0 min,  0.017 sec
 * total energy  :  -202.3551229 Eh     change       -0.7540734E-04 Eh
   gradient norm :     0.0054055 Eh/α   predicted    -0.8385384E-04 (  11.20%)
   displ. norm   :     0.2893968 α      lambda       -0.1008351E-03
   maximum displ.:     0.1783114 α      in ANC's #4, #5, #7, ...

........................................................................
.............................. CYCLE   38 ..............................
........................................................................
   1   -205.2379389 -0.205238E+03  0.117E-01    1.30       0.0  T
   2   -205.2379483 -0.937125E-05  0.603E-02    1.30       1.0  T
   3   -205.2379452  0.309402E-05  0.122E-02    1.30       1.0  T
   4   -205.2379493 -0.414424E-05  0.749E-03    1.30       1.4  T
   5   -205.2379513 -0.195253E-05  0.268E-03    1.30       4.0  T
   6   -205.2379516 -0.363244E-06  0.146E-03    1.30       7.4  T
     SCC iter.                  ...        0 min,  0.072 sec
     gradient                   ...        0 min,  0.017 sec
 * total energy  :  -202.3551748 Eh     change       -0.5186313E-04 Eh
   gradient norm :     0.0079662 Eh/α   predicted    -0.5464256E-04 (   5.36%)
   displ. norm   :     0.3633155 α      lambda       -0.1056863E-03
   maximum displ.:     0.2185667 α      in ANC's #4, #7, #5, ...

........................................................................
.............................. CYCLE   39 ..............................
........................................................................
   1   -205.2380465 -0.205238E+03  0.134E-01    1.31       0.0  T
   2   -205.2380579 -0.114120E-04  0.701E-02    1.31       1.0  T
   3   -205.2380562  0.174861E-05  0.135E-02    1.31       1.0  T
   4   -205.2380586 -0.242664E-05  0.864E-03    1.31       1.3  T
   5   -205.2380613 -0.267649E-05  0.286E-03    1.31       3.8  T
   6   -205.2380618 -0.497462E-06  0.146E-03    1.31       7.4  T
     SCC iter.                  ...        0 min,  0.072 sec
     gradient                   ...        0 min,  0.017 sec
 * total energy  :  -202.3552318 Eh     change       -0.5694572E-04 Eh
   gradient norm :     0.0060166 Eh/α   predicted    -0.5982003E-04 (   5.05%)
   displ. norm   :     0.3139382 α      lambda       -0.7149715E-04
   maximum displ.:     0.2034647 α      in ANC's #4, #5, #7, ...

........................................................................
.............................. CYCLE   40 ..............................
........................................................................
   1   -205.2366213 -0.205237E+03  0.106E-01    1.31       0.0  T
   2   -205.2366279 -0.660585E-05  0.561E-02    1.31       1.0  T
   3   -205.2366263  0.161275E-05  0.106E-02    1.31       1.0  T
   4   -205.2366276 -0.134173E-05  0.712E-03    1.31       1.5  T
   5   -205.2366300 -0.239922E-05  0.206E-03    1.31       5.3  T
   6   -205.2366303 -0.231732E-06  0.115E-03    1.31       9.5  T
     SCC iter.                  ...        0 min,  0.072 sec
     gradient                   ...        0 min,  0.017 sec
 * total energy  :  -202.3552864 Eh     change       -0.5469342E-04 Eh
   gradient norm :     0.0041610 Eh/α   predicted    -0.3927694E-04 ( -28.19%)
   displ. norm   :     0.4069639 α      lambda       -0.1119056E-03
   maximum displ.:     0.2778621 α      in ANC's #4, #5, #6, ...

........................................................................
.............................. CYCLE   41 ..............................
........................................................................
   1   -205.2374817 -0.205237E+03  0.125E-01    1.31       0.0  T
   2   -205.2374916 -0.992484E-05  0.665E-02    1.31       1.0  T
   3   -205.2374861  0.546738E-05  0.139E-02    1.31       1.0  T
   4   -205.2374907 -0.455731E-05  0.921E-03    1.31       1.2  T
   5   -205.2374949 -0.424144E-05  0.288E-03    1.31       3.8  T
   6   -205.2374954 -0.464281E-06  0.142E-03    1.31       7.7  T
   7   -205.2374954 -0.190583E-07  0.103E-03    1.31      10.6  T
     SCC iter.                  ...        0 min,  0.087 sec
     gradient                   ...        0 min,  0.018 sec
 * total energy  :  -202.3553659 Eh     change       -0.7949637E-04 Eh
   gradient norm :     0.0049069 Eh/α   predicted    -0.6522520E-04 ( -17.95%)
   displ. norm   :     0.4598763 α      lambda       -0.1001378E-03
   maximum displ.:     0.3160803 α      in ANC's #4, #5, #2, ...

........................................................................
.............................. CYCLE   42 ..............................
........................................................................
   1   -205.2373180 -0.205237E+03  0.141E-01    1.31       0.0  T
   2   -205.2373313 -0.133428E-04  0.745E-02    1.31       1.0  T
   3   -205.2373226  0.870869E-05  0.164E-02    1.31       1.0  T
   4   -205.2373317 -0.910837E-05  0.995E-03    1.31       1.1  T
   5   -205.2373360 -0.422416E-05  0.285E-03    1.31       3.8  T
   6   -205.2373365 -0.547691E-06  0.139E-03    1.31       7.8  T
   7   -205.2373365 -0.312899E-07  0.954E-04    1.31      11.4  T
     SCC iter.                  ...        0 min,  0.083 sec
     gradient                   ...        0 min,  0.017 sec
 * total energy  :  -202.3554220 Eh     change       -0.5604559E-04 Eh
   gradient norm :     0.0072707 Eh/α   predicted    -0.6066194E-04 (   8.24%)
   displ. norm   :     0.4644069 α      lambda       -0.1028919E-03
   maximum displ.:     0.3198352 α      in ANC's #4, #6, #5, ...
 * RMSD in coord.:     0.7388217 α      energy gain  -0.2047566E-02 Eh

generating ANC from model Hessian ...
Using Lindh-Hessian (1995)
 Shifting diagonal of input Hessian by   4.997599824998504E-003
 Lowest  eigenvalues of input Hessian
   -0.000000   -0.000000    0.000000    0.000000    0.000000    0.000000
    0.005000    0.005011    0.005048    0.005098    0.005129    0.005413
    0.005433    0.005457    0.005652    0.005724    0.005826    0.006048
 Highest eigenvalues
    2.605958    2.607515    2.634907    2.638910    2.642573    2.653925
 

........................................................................
.............................. CYCLE   43 ..............................
........................................................................
   1   -205.2361727 -0.205236E+03  0.141E-01    1.32       0.0  T
   2   -205.2361862 -0.135349E-04  0.747E-02    1.32       1.0  T
   3   -205.2361776  0.858053E-05  0.167E-02    1.32       1.0  T
   4   -205.2361866 -0.900525E-05  0.101E-02    1.32       1.1  T
   5   -205.2361907 -0.404693E-05  0.323E-03    1.32       3.4  T
   6   -205.2361914 -0.761816E-06  0.133E-03    1.32       8.2  T
   7   -205.2361914 -0.159361E-07  0.955E-04    1.32      11.4  T
   8   -205.2361915 -0.202433E-07  0.520E-04    1.32      20.8  T
     SCC iter.                  ...        0 min,  0.094 sec
     gradient                   ...        0 min,  0.018 sec
 * total energy  :  -202.3554899 Eh     change       -0.6789372E-04 Eh
   gradient norm :     0.0052137 Eh/α   predicted     0.0000000E+00 (-100.00%)
   displ. norm   :     0.0776385 α      lambda       -0.7302437E-04
   maximum displ.:     0.0352949 α      in ANC's #2, #1, #11, ...

........................................................................
.............................. CYCLE   44 ..............................
........................................................................
   1   -205.2366806 -0.205237E+03  0.651E-02    1.32       0.0  T
   2   -205.2366849 -0.430392E-05  0.352E-02    1.32       1.0  T
   3   -205.2366834  0.153069E-05  0.635E-03    1.32       1.7  T
   4   -205.2366865 -0.314661E-05  0.253E-03    1.32       4.3  T
   5   -205.2366868 -0.239730E-06  0.121E-03    1.32       8.9  T
   6   -205.2366868 -0.869552E-07  0.487E-04    1.32      22.3  T
     SCC iter.                  ...        0 min,  0.071 sec
     gradient                   ...        0 min,  0.017 sec
 * total energy  :  -202.3554711 Eh     change        0.1877018E-04 Eh
   gradient norm :     0.0048222 Eh/α   predicted    -0.3674823E-04 (-295.78%)
   displ. norm   :     0.0761345 α      lambda       -0.1654866E-03
   maximum displ.:     0.0339312 α      in ANC's #9, #8, #20, ...

........................................................................
.............................. CYCLE   45 ..............................
........................................................................
   1   -205.2386872 -0.205239E+03  0.571E-02    1.32       0.0  T
   2   -205.2386910 -0.383201E-05  0.305E-02    1.32       1.0  T
   3   -205.2386894  0.160514E-05  0.722E-03    1.32       1.5  T
   4   -205.2386923 -0.288226E-05  0.309E-03    1.32       3.5  T
   5   -205.2386925 -0.211725E-06  0.144E-03    1.32       7.5  T
   6   -205.2386927 -0.129790E-06  0.714E-04    1.32      15.2  T
     SCC iter.                  ...        0 min,  0.071 sec
     gradient                   ...        0 min,  0.017 sec
 * total energy  :  -202.3555263 Eh     change       -0.5520527E-04 Eh
   gradient norm :     0.0052992 Eh/α   predicted    -0.8322270E-04 (  50.75%)
   displ. norm   :     0.0620864 α      lambda       -0.9985211E-04
   maximum displ.:     0.0276264 α      in ANC's #45, #39, #2, ...

........................................................................
.............................. CYCLE   46 ..............................
........................................................................
   1   -205.2378763 -0.205238E+03  0.611E-02    1.32       0.0  T
   2   -205.2378796 -0.339491E-05  0.331E-02    1.32       1.0  T
   3   -205.2378791  0.560149E-06  0.556E-03    1.32       2.0  T
   4   -205.2378810 -0.196019E-05  0.207E-03    1.32       5.2  T
   5   -205.2378811 -0.566780E-07  0.103E-03    1.32      10.5  T
     SCC iter.                  ...        0 min,  0.060 sec
     gradient                   ...        0 min,  0.017 sec
 * total energy  :  -202.3555119 Eh     change        0.1439005E-04 Eh
   gradient norm :     0.0035618 Eh/α   predicted    -0.5012497E-04 (-448.33%)
   displ. norm   :     0.0532920 α      lambda       -0.1185533E-03
   maximum displ.:     0.0218336 α      in ANC's #9, #19, #45, ...

........................................................................
.............................. CYCLE   47 ..............................
........................................................................
   1   -205.2373579 -0.205237E+03  0.532E-02    1.32       0.0  T
   2   -205.2373603 -0.247480E-05  0.290E-02    1.32       1.0  T
   3   -205.2373600  0.390230E-06  0.445E-03    1.32       2.4  T
   4   -205.2373614 -0.144378E-05  0.166E-03    1.32       6.6  T
   5   -205.2373614 -0.462390E-07  0.813E-04    1.32      13.3  T
   6   -205.2373615 -0.466233E-07  0.331E-04    1.32      32.8  T
     SCC iter.                  ...        0 min,  0.071 sec
     gradient                   ...        0 min,  0.018 sec
 * total energy  :  -202.3555419 Eh     change       -0.2995764E-04 Eh
   gradient norm :     0.0036747 Eh/α   predicted    -0.5944522E-04 (  98.43%)
   displ. norm   :     0.0854057 α      lambda       -0.1423075E-03
   maximum displ.:     0.0352832 α      in ANC's #45, #39, #10, ...

........................................................................
.............................. CYCLE   48 ..............................
........................................................................
   1   -205.2365321 -0.205237E+03  0.822E-02    1.32       0.0  T
   2   -205.2365383 -0.619313E-05  0.450E-02    1.32       1.0  T
   3   -205.2365333  0.494805E-05  0.914E-03    1.32       1.2  T
   4   -205.2365414 -0.804447E-05  0.215E-03    1.32       5.0  T
   5   -205.2365415 -0.832880E-07  0.119E-03    1.32       9.1  T
   6   -205.2365415 -0.768410E-07  0.471E-04    1.32      23.0  T
   7   -205.2365416 -0.860732E-08  0.288E-04    1.32      37.6  T
     SCC iter.                  ...        0 min,  0.083 sec
     gradient                   ...        0 min,  0.018 sec
 * total energy  :  -202.3554586 Eh     change        0.8333592E-04 Eh
   gradient norm :     0.0059596 Eh/α   predicted    -0.7167612E-04 (-186.01%)
   displ. norm   :     0.0583375 α      lambda       -0.2457373E-03
   maximum displ.:     0.0289865 α      in ANC's #45, #39, #18, ...

........................................................................
.............................. CYCLE   49 ..............................
........................................................................
   1   -205.2380899 -0.205238E+03  0.567E-02    1.32       0.0  T
   2   -205.2380930 -0.311811E-05  0.311E-02    1.32       1.0  T
   3   -205.2380909  0.206562E-05  0.635E-03    1.32       1.7  T
   4   -205.2380945 -0.355765E-05  0.158E-03    1.32       6.9  T
   5   -205.2380945 -0.357914E-07  0.899E-04    1.32      12.1  T
   6   -205.2380946 -0.538263E-07  0.320E-04    1.32      33.9  T
     SCC iter.                  ...        0 min,  0.071 sec
     gradient                   ...        0 min,  0.017 sec
 * total energy  :  -202.3555812 Eh     change       -0.1225983E-03 Eh
   gradient norm :     0.0016493 Eh/α   predicted    -0.1232880E-03 (   0.56%)
   displ. norm   :     0.0656357 α      lambda       -0.1751175E-04
   maximum displ.:     0.0310930 α      in ANC's #2, #9, #1, ...

........................................................................
.............................. CYCLE   50 ..............................
........................................................................
   1   -205.2371835 -0.205237E+03  0.402E-02    1.32       0.0  T
   2   -205.2371849 -0.140439E-05  0.209E-02    1.32       1.0  T
   3   -205.2371847  0.195459E-06  0.376E-03    1.32       2.9  T
   4   -205.2371851 -0.366886E-06  0.243E-03    1.32       4.5  T
   5   -205.2371854 -0.306951E-06  0.774E-04    1.32      14.0  T
   6   -205.2371855 -0.395923E-07  0.332E-04    1.32      32.7  T
     SCC iter.                  ...        0 min,  0.072 sec
     gradient                   ...        0 min,  0.018 sec
 * total energy  :  -202.3555914 Eh     change       -0.1022065E-04 Eh
   gradient norm :     0.0020178 Eh/α   predicted    -0.8775394E-05 ( -14.14%)
   displ. norm   :     0.0741443 α      lambda       -0.2197699E-04
   maximum displ.:     0.0362912 α      in ANC's #2, #1, #11, ...

........................................................................
.............................. CYCLE   51 ..............................
........................................................................
   1   -205.2369874 -0.205237E+03  0.316E-02    1.32       0.0  T
   2   -205.2369884 -0.993376E-06  0.163E-02    1.32       1.0  T
   3   -205.2369881  0.248302E-06  0.369E-03    1.32       2.9  T
   4   -205.2369883 -0.160073E-06  0.255E-03    1.32       4.3  T
   5   -205.2369887 -0.392179E-06  0.586E-04    1.32      18.5  T
   6   -205.2369887 -0.222661E-07  0.252E-04    1.32      43.0  T
     SCC iter.                  ...        0 min,  0.072 sec
     gradient                   ...        0 min,  0.018 sec
 * total energy  :  -202.3556110 Eh     change       -0.1963576E-04 Eh
   gradient norm :     0.0020364 Eh/α   predicted    -0.1105271E-04 ( -43.71%)
   displ. norm   :     0.3058677 α      lambda       -0.7866288E-04
   maximum displ.:     0.1442441 α      in ANC's #2, #11, #9, ...

........................................................................
.............................. CYCLE   52 ..............................
........................................................................
   1   -205.2365433 -0.205237E+03  0.131E-01    1.32       0.0  T
   2   -205.2365600 -0.167441E-04  0.676E-02    1.32       1.0  T
   3   -205.2365555  0.448044E-05  0.153E-02    1.32       1.0  T
   4   -205.2365580 -0.247864E-05  0.107E-02    1.32       1.0  T
   5   -205.2365651 -0.713178E-05  0.240E-03    1.32       4.5  T
   6   -205.2365655 -0.360507E-06  0.105E-03    1.32      10.4  T
   7   -205.2365655 -0.252938E-07  0.660E-04    1.32      16.4  T
   8   -205.2365655 -0.135562E-07  0.326E-04    1.32      33.3  T
     SCC iter.                  ...        0 min,  0.094 sec
     gradient                   ...        0 min,  0.018 sec
 * total energy  :  -202.3556623 Eh     change       -0.5124855E-04 Eh
   gradient norm :     0.0021136 Eh/α   predicted    -0.4301519E-04 ( -16.07%)
   displ. norm   :     0.3056714 α      lambda        0.1381097E-04
   maximum displ.:     0.1442451 α      in ANC's #2, #11, #9, ...

........................................................................
.............................. CYCLE   53 ..............................
........................................................................
   1   -205.2347908 -0.205235E+03  0.131E-01    1.33       0.0  T
   2   -205.2348076 -0.167956E-04  0.677E-02    1.33       1.0  T
   3   -205.2348032  0.437702E-05  0.153E-02    1.33       1.0  T
   4   -205.2348059 -0.271562E-05  0.106E-02    1.32       1.0  T
   5   -205.2348127 -0.675567E-05  0.250E-03    1.33       4.3  T
   6   -205.2348131 -0.400526E-06  0.107E-03    1.33      10.2  T
   7   -205.2348131 -0.275458E-07  0.672E-04    1.33      16.1  T
   8   -205.2348131 -0.130991E-07  0.342E-04    1.33      31.7  T
     SCC iter.                  ...        0 min,  0.094 sec
     gradient                   ...        0 min,  0.018 sec
 * total energy  :  -202.3556563 Eh     change        0.5951580E-05 Eh
   gradient norm :     0.0047967 Eh/α   predicted     0.7549352E-05 (  26.85%)
   displ. norm   :     0.1310638 α      lambda       -0.1021900E-03
   maximum displ.:     0.0600512 α      in ANC's #2, #1, #11, ...

........................................................................
.............................. CYCLE   54 ..............................
........................................................................
   1   -205.2358951 -0.205236E+03  0.663E-02    1.33       0.0  T
   2   -205.2358991 -0.408200E-05  0.354E-02    1.33       1.0  T
   3   -205.2358984  0.772464E-06  0.660E-03    1.33       1.6  T
   4   -205.2358997 -0.132481E-05  0.408E-03    1.33       2.7  T
   5   -205.2359007 -0.968821E-06  0.105E-03    1.33      10.3  T
   6   -205.2359007 -0.678760E-07  0.453E-04    1.33      23.9  T
     SCC iter.                  ...        0 min,  0.071 sec
     gradient                   ...        0 min,  0.017 sec
 * total energy  :  -202.3556939 Eh     change       -0.3763851E-04 Eh
   gradient norm :     0.0043899 Eh/α   predicted    -0.5197359E-04 (  38.09%)
   displ. norm   :     0.0332832 α      lambda       -0.5212171E-04
   maximum displ.:     0.0116740 α      in ANC's #1, #2, #39, ...

........................................................................
.............................. CYCLE   55 ..............................
........................................................................
   1   -205.2377303 -0.205238E+03  0.302E-02    1.33       0.0  T
   2   -205.2377311 -0.779391E-06  0.152E-02    1.33       1.0  T
   3   -205.2377307  0.385842E-06  0.343E-03    1.33       3.2  T
   4   -205.2377313 -0.554849E-06  0.183E-03    1.33       5.9  T
   5   -205.2377314 -0.834685E-07  0.863E-04    1.33      12.6  T
     SCC iter.                  ...        0 min,  0.060 sec
     gradient                   ...        0 min,  0.017 sec
 * total energy  :  -202.3557277 Eh     change       -0.3371627E-04 Eh
   gradient norm :     0.0019691 Eh/α   predicted    -0.2609280E-04 ( -22.61%)
   displ. norm   :     0.2869100 α      lambda       -0.3811346E-04
   maximum displ.:     0.1463573 α      in ANC's #2, #1, #9, ...

........................................................................
.............................. CYCLE   56 ..............................
........................................................................
   1   -205.2374427 -0.205237E+03  0.114E-01    1.33       0.0  T
   2   -205.2374545 -0.117562E-04  0.595E-02    1.33       1.0  T
   3   -205.2374530  0.147934E-05  0.123E-02    1.33       1.0  T
   4   -205.2374530 -0.817906E-08  0.873E-03    1.33       1.2  T
   5   -205.2374579 -0.487283E-05  0.224E-03    1.33       4.9  T
   6   -205.2374582 -0.349960E-06  0.848E-04    1.33      12.8  T
   7   -205.2374583 -0.120132E-07  0.548E-04    1.33      19.8  T
     SCC iter.                  ...        0 min,  0.082 sec
     gradient                   ...        0 min,  0.018 sec
 * total energy  :  -202.3557668 Eh     change       -0.3910034E-04 Eh
   gradient norm :     0.0025817 Eh/α   predicted    -0.1975492E-04 ( -49.48%)
   displ. norm   :     0.2152266 α      lambda       -0.3123740E-04
   maximum displ.:     0.1108136 α      in ANC's #2, #1, #9, ...

........................................................................
.............................. CYCLE   57 ..............................
........................................................................
   1   -205.2375386 -0.205238E+03  0.833E-02    1.33       0.0  T
   2   -205.2375449 -0.631482E-05  0.436E-02    1.33       1.0  T
   3   -205.2375444  0.519167E-06  0.881E-03    1.33       1.2  T
   4   -205.2375438  0.578112E-06  0.644E-03    1.33       1.7  T
   5   -205.2375468 -0.293011E-05  0.149E-03    1.33       7.3  T
   6   -205.2375469 -0.140248E-06  0.617E-04    1.33      17.6  T
   7   -205.2375469 -0.383108E-08  0.402E-04    1.33      27.0  T
     SCC iter.                  ...        0 min,  0.083 sec
     gradient                   ...        0 min,  0.018 sec
 * total energy  :  -202.3557945 Eh     change       -0.2773546E-04 Eh
   gradient norm :     0.0018064 Eh/α   predicted    -0.1634358E-04 ( -41.07%)
   displ. norm   :     0.4774292 α      lambda       -0.4897906E-04
   maximum displ.:     0.2519551 α      in ANC's #2, #1, #9, ...

........................................................................
.............................. CYCLE   58 ..............................
........................................................................
   1   -205.2375947 -0.205238E+03  0.180E-01    1.34       0.0  T
   2   -205.2376238 -0.291344E-04  0.941E-02    1.34       1.0  T
   3   -205.2376241 -0.296867E-06  0.182E-02    1.34       1.0  T
   4   -205.2376201  0.400273E-05  0.131E-02    1.34       1.0  T
   5   -205.2376321 -0.120188E-04  0.294E-03    1.34       3.7  T
   6   -205.2376327 -0.548254E-06  0.131E-03    1.34       8.2  T
   7   -205.2376327 -0.164602E-07  0.843E-04    1.34      12.9  T
   8   -205.2376327 -0.265733E-07  0.421E-04    1.34      25.7  T
     SCC iter.                  ...        0 min,  0.094 sec
     gradient                   ...        0 min,  0.018 sec
 * total energy  :  -202.3558461 Eh     change       -0.5157475E-04 Eh
   gradient norm :     0.0020687 Eh/α   predicted    -0.2697327E-04 ( -47.70%)
   displ. norm   :     0.2467120 α      lambda       -0.3380794E-04
   maximum displ.:     0.1342256 α      in ANC's #2, #1, #3, ...

........................................................................
.............................. CYCLE   59 ..............................
........................................................................
   1   -205.2374202 -0.205237E+03  0.905E-02    1.34       0.0  T
   2   -205.2374274 -0.723297E-05  0.475E-02    1.34       1.0  T
   3   -205.2374273  0.142969E-06  0.920E-03    1.34       1.2  T
   4   -205.2374269  0.358411E-06  0.649E-03    1.34       1.7  T
   5   -205.2374296 -0.263641E-05  0.160E-03    1.34       6.8  T
   6   -205.2374297 -0.165370E-06  0.716E-04    1.34      15.1  T
   7   -205.2374297 -0.437902E-08  0.468E-04    1.34      23.2  T
     SCC iter.                  ...        0 min,  0.083 sec
     gradient                   ...        0 min,  0.018 sec
 * total energy  :  -202.3558694 Eh     change       -0.2334770E-04 Eh
   gradient norm :     0.0017977 Eh/α   predicted    -0.1793514E-04 ( -23.18%)
   displ. norm   :     0.2934725 α      lambda       -0.2657397E-04
   maximum displ.:     0.1660803 α      in ANC's #2, #1, #3, ...

........................................................................
.............................. CYCLE   60 ..............................
........................................................................
   1   -205.2390526 -0.205239E+03  0.100E-01    1.34       0.0  T
   2   -205.2390610 -0.833162E-05  0.527E-02    1.34       1.0  T
   3   -205.2390612 -0.267910E-06  0.991E-03    1.34       1.1  T
   4   -205.2390598  0.148586E-05  0.723E-03    1.34       1.5  T
   5   -205.2390635 -0.369377E-05  0.153E-03    1.34       7.1  T
   6   -205.2390636 -0.130361E-06  0.915E-04    1.34      11.9  T
   7   -205.2390636 -0.114480E-07  0.590E-04    1.34      18.4  T
     SCC iter.                  ...        0 min,  0.083 sec
     gradient                   ...        0 min,  0.018 sec
 * total energy  :  -202.3559001 Eh     change       -0.3064467E-04 Eh
   gradient norm :     0.0018252 Eh/α   predicted    -0.1379785E-04 ( -54.97%)
   displ. norm   :     0.3064560 α      lambda       -0.2550297E-04
   maximum displ.:     0.1776927 α      in ANC's #2, #1, #3, ...

........................................................................
.............................. CYCLE   61 ..............................
........................................................................
   1   -205.2384257 -0.205238E+03  0.105E-01    1.34       0.0  T
   2   -205.2384349 -0.921694E-05  0.548E-02    1.34       1.0  T
   3   -205.2384351 -0.227462E-06  0.103E-02    1.34       1.0  T
   4   -205.2384335  0.163600E-05  0.761E-03    1.34       1.4  T
   5   -205.2384378 -0.425460E-05  0.144E-03    1.34       7.5  T
   6   -205.2384378 -0.668223E-07  0.932E-04    1.34      11.6  T
   7   -205.2384378 -0.797783E-08  0.602E-04    1.34      18.0  T
     SCC iter.                  ...        0 min,  0.083 sec
     gradient                   ...        0 min,  0.018 sec
[...]
       169        2.0000           -0.4390437             -11.9470
       170        2.0000           -0.4343758             -11.8200
       171        2.0000           -0.4333700             -11.7926
       172        2.0000           -0.4304685             -11.7136
       173        2.0000           -0.4287504             -11.6669
       174        2.0000           -0.4270487             -11.6206
       175        2.0000           -0.4248152             -11.5598
       176        2.0000           -0.4207940             -11.4504
       177        2.0000           -0.4191823             -11.4065
       178        2.0000           -0.4174693             -11.3599
       179        2.0000           -0.4157316             -11.3126
       180        2.0000           -0.4081429             -11.1061
       181        2.0000           -0.4048720             -11.0171 (HOMO)
       182                         -0.3554415              -9.6721 (LUMO)
       183                         -0.3542065              -9.6384
       184                         -0.3398857              -9.2488
       185                         -0.3374200              -9.1817
       186                         -0.3254680              -8.8564
       187                         -0.3234613              -8.8018
       188                         -0.3055118              -8.3134
       189                         -0.3024426              -8.2299
       190                         -0.2933133              -7.9815
       191                         -0.2913866              -7.9290
       192                         -0.2818030              -7.6683
       ...                                ...                  ...
       361                          1.1732659              31.9262
      -------------------------------------------------------------
                  HL-Gap            0.0494305 Eh            1.3451 eV
             Fermi-level           -0.3802545 Eh          -10.3473 eV

     #   Z        covCN         q      C6AA      α(0)
     1   6 C      3.012     0.033    27.247     8.563
     2   6 C      2.947     0.014    27.692     8.631
     3   6 C      1.939     0.125    28.025     8.549
     4   7 N      0.911    -0.220    25.799     7.346
     5   6 C      1.938     0.122    28.084     8.558
     6   7 N      0.911    -0.217    25.741     7.338
     7   6 C      3.033     0.007    27.822     8.652
     8   6 C      3.037    -0.020    28.458     8.750
     9   6 C      2.910    -0.016    28.418     8.741
    10   6 C      3.147     0.010    27.522     8.582
    11   6 C      3.007     0.031    27.302     8.571
    12   6 C      2.934    -0.033    28.821     8.804
    13  16 S      2.396     0.028   139.934    19.910
    14   6 C      2.933     0.091    25.981     8.359
    15   6 C      3.101    -0.056    29.251     8.863
    16  35 Br     1.141    -0.103   187.864    22.100
    17   6 C      2.861     0.236    23.073     7.873
    18   8 O      0.856    -0.362    20.943     6.136
    19   6 C      3.004    -0.016    28.392     8.741
    20   6 C      2.901     0.007    27.874     8.657
    21   6 C      2.963    -0.000    28.031     8.684
    22   6 C      2.785     0.156    24.610     8.126
    23   9 F      0.788    -0.175    10.983     3.915
    24   6 C      2.781     0.151    24.702     8.141
    25   9 F      0.787    -0.176    10.991     3.916
    26   6 C      2.999    -0.013    28.315     8.729
    27   6 C      3.364     0.069    23.551     7.609
    28   6 C      3.361     0.083    23.343     7.583
    29   7 N      1.855    -0.255    27.493     7.771
    30  16 S      2.692     0.416   125.251    18.836
    31   7 N      1.868    -0.258    27.562     7.782
    32   6 C      2.999     0.031    27.290     8.569
    33   6 C      3.110     0.008    27.685     8.620
    34   6 C      1.902     0.119    28.179     8.573
    35   7 N      0.911    -0.193    25.189     7.259
    36   6 C      3.252    -0.006    27.103     8.425
    37   6 C      3.038     0.025    27.415     8.588
    38  16 S      2.298     0.050   139.046    19.846
    39  16 S      2.244     0.014   140.479    19.948
    40   6 C      3.038     0.024    27.427     8.590
    41   6 C      3.251    -0.006    27.113     8.427
    42   6 C      3.111     0.007    27.704     8.623
    43   6 C      1.903     0.119    28.181     8.573
    44   7 N      0.911    -0.196    25.257     7.268
    45   6 C      3.000     0.031    27.286     8.569
    46  16 S      2.291     0.058   138.693    19.821
    47   6 C      2.999    -0.011    28.278     8.723
    48   6 C      2.783     0.153    24.667     8.135
    49   9 F      0.788    -0.176    10.991     3.916
    50   6 C      2.784     0.155    24.635     8.130
    51   9 F      0.788    -0.187    11.099     3.935
    52   6 C      2.958    -0.007    28.198     8.710
    53   6 C      3.363     0.070    23.550     7.610
    54   6 C      3.361     0.070    23.586     7.623
    55   7 N      1.861    -0.260    27.614     7.789
    56  16 S      2.687     0.419   125.141    18.828
    57   7 N      1.855    -0.254    27.477     7.769
    58   6 C      2.903     0.001    28.003     8.677
    59   6 C      3.005    -0.016    28.394     8.741
    60   6 C      3.013     0.043    27.013     8.526
    61   6 C      2.947     0.018    27.612     8.618
    62   6 C      1.933     0.125    28.020     8.548
    63   7 N      0.911    -0.219    25.777     7.343
    64   6 C      1.933     0.129    27.941     8.536
    65   7 N      0.911    -0.244    26.363     7.426
    66   6 C      3.040     0.009    27.774     8.644
    67   6 C      3.036    -0.019    28.453     8.749
    68   6 C      2.869     0.230    23.186     7.893
    69   8 O      0.856    -0.343    20.576     6.082
    70   6 C      2.909    -0.016    28.417     8.741
    71   6 C      3.147     0.010    27.519     8.582
    72   6 C      3.008     0.031    27.288     8.569
    73   6 C      2.933    -0.031    28.770     8.797
    74  16 S      2.397     0.029   139.871    19.905
    75   6 C      2.933     0.091    25.986     8.360
    76   6 C      3.101    -0.056    29.250     8.863
    77  35 Br     1.142    -0.103   187.877    22.100
    78   1 H      0.926     0.072     2.069     2.249
    79   1 H      0.926     0.069     2.095     2.263
    80   1 H      0.926     0.072     2.061     2.245
    81   1 H      0.925     0.086     1.919     2.166
    82   1 H      0.925     0.100     1.784     2.089
    83   1 H      0.926     0.073     2.052     2.240
    84   1 H      0.926     0.070     2.090     2.260
    85   1 H      0.926     0.072     2.058     2.243

 Mol. C6AA /au·bohr⁶  :     214769.876950
 Mol. C8AA /au·bohr⁸  :    6834519.019495
 Mol. α(0) /au        :        743.141464


Wiberg/Mayer (AO) data.
largest (>0.10) Wiberg bond orders for each atom
          total WBO             WBO to atom ...
     1  C   3.975        C    2 1.508    C   19 1.107    C    7 1.101
     2  C   3.949        C    1 1.508    C    3 1.092    C    5 1.091
     3  C   3.947        N    4 2.774    C    2 1.092
     4  N   2.978        C    3 2.774
     5  C   3.948        N    6 2.772    C    2 1.091
     6  N   2.977        C    5 2.772
     7  C   3.979        C   12 1.419    C    8 1.241    C    1 1.101
     8  C   3.979        C    9 1.466    C    7 1.241    C   17 1.029
     9  C   3.973        C    8 1.466    C   10 1.320    H   78 0.962
    10  C   3.974        C    9 1.320    C   11 1.259    C   15 1.207
    11  C   3.951        C   12 1.384    C   10 1.259    S   13 1.124
    12  C   3.973        C    7 1.419    C   11 1.384    H   79 0.957
    13  S   2.566        C   14 1.134    C   11 1.124
    14  C   3.902        C   15 1.606    S   13 1.134    Br  16 1.034
    15  C   3.973        C   14 1.606    C   10 1.207    H   80 0.959
    16  Br  1.176        C   14 1.034
    17  C   3.925        O   18 1.785    C    8 1.029    C   19 1.003
    18  O   2.062        C   17 1.785
    19  C   3.972        C   20 1.653    C    1 1.107    C   17 1.003
    20  C   3.952        C   19 1.653    C   21 1.127    H   81 0.940
    21  C   3.948        C   22 1.396    C   28 1.189    C   20 1.127
    22  C   3.882        C   21 1.396    C   24 1.271    F   23 0.996
    23  F   1.138        C   22 0.996
    24  C   3.888        C   26 1.391    C   22 1.271    F   25 0.993
    25  F   1.140        C   24 0.993
    26  C   3.973        C   24 1.391    C   27 1.190    C   32 1.133
    27  C   3.976        N   31 1.394    C   26 1.190    C   28 1.174
    28  C   3.972        N   29 1.396    C   21 1.189    C   27 1.174
    29  N   3.089        S   30 1.440    C   28 1.396    N   31 0.156
    30  S   3.182        N   29 1.440    N   31 1.427
    31  N   3.104        S   30 1.427    C   27 1.394    N   29 0.156
    32  C   3.945        C   33 1.426    C   26 1.133    S   38 1.132
    33  C   3.954        C   32 1.426    C   36 1.189    C   34 1.104
    34  C   3.953        N   35 2.797    C   33 1.104
    35  N   3.007        C   34 2.797
    36  C   3.969        C   37 1.383    C   33 1.189    C   41 1.157
    37  C   3.897        C   36 1.383    S   38 1.179    S   39 1.129
    38  S   2.661        C   37 1.179    C   32 1.132
    39  S   2.552        C   37 1.129    C   40 1.128
    40  C   3.897        C   41 1.385    S   46 1.181    S   39 1.128
    41  C   3.969        C   40 1.385    C   42 1.188    C   36 1.157
    42  C   3.955        C   45 1.429    C   41 1.188    C   43 1.104
    43  C   3.953        N   44 2.797    C   42 1.104
    44  N   3.006        C   43 2.797
    45  C   3.946        C   42 1.429    S   46 1.134    C   47 1.127
    46  S   2.657        C   40 1.181    C   45 1.134
    47  C   3.951        C   48 1.394    C   54 1.192    C   45 1.127
    48  C   3.889        C   47 1.394    C   50 1.272    F   49 0.993
    49  F   1.141        C   48 0.993
    50  C   3.887        C   52 1.392    C   48 1.272    F   51 0.986
    51  F   1.128        C   50 0.986
    52  C   3.950        C   50 1.392    C   53 1.186    C   58 1.138
    53  C   3.974        N   57 1.397    C   52 1.186    C   54 1.175
    54  C   3.976        N   55 1.393    C   47 1.192    C   53 1.175
    55  N   3.096        S   56 1.431    C   54 1.393    N   57 0.157
    56  S   3.181        N   57 1.441    N   55 1.431
    57  N   3.088        S   56 1.441    C   53 1.397    N   55 0.157
    58  C   3.952        C   59 1.651    C   52 1.138    H   82 0.941
    59  C   3.945        C   58 1.651    C   60 1.110    C   68 0.985
    60  C   3.975        C   61 1.502    C   59 1.110    C   66 1.093
    61  C   3.960        C   60 1.502    C   64 1.100    C   62 1.090
    62  C   3.948        N   63 2.779    C   61 1.090
    63  N   2.980        C   62 2.779
    64  C   3.945        N   65 2.766    C   61 1.100
    65  N   2.976        C   64 2.766
    66  C   3.980        C   73 1.424    C   67 1.239    C   60 1.093
    67  C   3.978        C   70 1.466    C   66 1.239    C   68 1.027
    68  C   3.926        O   69 1.803    C   67 1.027    C   59 0.985
    69  O   2.076        C   68 1.803
    70  C   3.973        C   67 1.466    C   71 1.320    H   83 0.962
    71  C   3.975        C   70 1.320    C   72 1.260    C   76 1.206
    72  C   3.952        C   73 1.381    C   71 1.260    S   74 1.126
    73  C   3.973        C   66 1.424    C   72 1.381    H   84 0.959
    74  S   2.568        C   75 1.134    C   72 1.126
    75  C   3.902        C   76 1.607    S   74 1.134    Br  77 1.034
    76  C   3.974        C   75 1.607    C   71 1.206    H   85 0.959
    77  Br  1.175        C   75 1.034
    78  H   0.994        C    9 0.962
    79  H   0.994        C   12 0.957
    80  H   0.994        C   15 0.959
    81  H   0.989        C   20 0.940
    82  H   0.987        C   58 0.941
    83  H   0.994        C   70 0.962
    84  H   0.994        C   73 0.959
    85  H   0.994        C   76 0.959

molecular dipole:
                 x           y           z       tot (Debye)
 q only:       -3.070      -0.381       1.555
   full:       -3.456      -0.189       1.215       9.323
molecular quadrupole (traceless):
                xx          xy          yy          xz          yz          zz
 q only:       90.272     -82.590     -85.665     -11.963       2.255      -4.608
  q+dip:       93.945     -85.716     -83.438      -6.089     -12.595     -10.507
   full:       93.216     -82.763     -82.012      -8.654     -11.131     -11.204

           -------------------------------------------------
          |                Geometry Summary                 |
           -------------------------------------------------

      molecular mass/u    :     1264.9226000
   center of mass at/Å    :       -6.4426083       3.5431623      -3.1932473
  moments of inertia/u·Å² :        0.2183418E+05   0.9839804E+05   0.1123532E+06
rotational constants/cm⁻¹ :        0.7720752E-03   0.1713208E-03   0.1500415E-03

 * 78 selected distances

     #   Z        #   Z                                     value/Å
     1   6 C      2   6 C                                 1.3675214
     3   6 C      4   7 N                                 1.1473193
     5   6 C      6   7 N                                 1.1474770
     7   6 C      8   6 C                                 1.4174269
     8   6 C      9   6 C                                 1.3745499
     9   6 C     10   6 C                                 1.3979874
    10   6 C     11   6 C                                 1.4170336
     7   6 C     12   6 C                                 1.3839039
    11   6 C     12   6 C                                 1.3885947
    11   6 C     13  16 S                                 1.7366652
    13  16 S     14   6 C                                 1.7438989
    10   6 C     15   6 C                                 1.4210949
    14   6 C     15   6 C                                 1.3548430
    14   6 C     16  35 Br                                1.8740349
    17   6 C     18   8 O                                 1.2099305
    19   6 C     20   6 C                                 1.3519538
    21   6 C     22   6 C                                 1.3843751
    22   6 C     23   9 F                                 1.3375855
    22   6 C     24   6 C                                 1.4068883
    24   6 C     25   9 F                                 1.3373721
    24   6 C     26   6 C                                 1.3862475
    26   6 C     27   6 C                                 1.4192224
    21   6 C     28   6 C                                 1.4169274
    27   6 C     28   6 C                                 1.4352418
    28   6 C     29   7 N                                 1.3302623
    29   7 N     30  16 S                                 1.6020193
    27   6 C     31   7 N                                 1.3306565
    30  16 S     31   7 N                                 1.6059465
    32   6 C     33   6 C                                 1.3861892
    34   6 C     35   7 N                                 1.1455036
    33   6 C     36   6 C                                 1.4206640
    36   6 C     37   6 C                                 1.3921246
    32   6 C     38  16 S                                 1.7444904
    37   6 C     38  16 S                                 1.7184823
    37   6 C     39  16 S                                 1.7345850
    39  16 S     40   6 C                                 1.7350693
    36   6 C     41   6 C                                 1.4254722
    40   6 C     41   6 C                                 1.3921534
    41   6 C     42   6 C                                 1.4206621
    43   6 C     44   7 N                                 1.1456344
    42   6 C     45   6 C                                 1.3855950
    40   6 C     46  16 S                                 1.7183900
    45   6 C     46  16 S                                 1.7427898
    47   6 C     48   6 C                                 1.3846481
    48   6 C     49   9 F                                 1.3369609
    48   6 C     50   6 C                                 1.4062464
    50   6 C     52   6 C                                 1.3848632
    52   6 C     53   6 C                                 1.4179557
    47   6 C     54   6 C                                 1.4179829
    53   6 C     54   6 C                                 1.4351354
    54   6 C     55   7 N                                 1.3309065
    55   7 N     56  16 S                                 1.6057041
    53   6 C     57   7 N                                 1.3303581
    56  16 S     57   7 N                                 1.6034688
    58   6 C     59   6 C                                 1.3501750
    60   6 C     61   6 C                                 1.3678487
    62   6 C     63   7 N                                 1.1469639
    64   6 C     65   7 N                                 1.1480309
    66   6 C     67   6 C                                 1.4189843
    68   6 C     69   8 O                                 1.2063137
    67   6 C     70   6 C                                 1.3746055
    70   6 C     71   6 C                                 1.3984574
    71   6 C     72   6 C                                 1.4171639
    66   6 C     73   6 C                                 1.3821258
    72   6 C     73   6 C                                 1.3890182
    72   6 C     74  16 S                                 1.7360774
    74  16 S     75   6 C                                 1.7437892
    71   6 C     76   6 C                                 1.4213795
    75   6 C     76   6 C                                 1.3546709
    75   6 C     77  35 Br                                1.8740464 (max)
     9   6 C     78   1 H                                 1.0786840
    12   6 C     79   1 H                                 1.0771772
    15   6 C     80   1 H                                 1.0746636
    20   6 C     81   1 H                                 1.0828705
    58   6 C     82   1 H                                 1.0856731
    70   6 C     83   1 H                                 1.0786414
    73   6 C     84   1 H                                 1.0774430
    76   6 C     85   1 H                                 1.0746408 (min)

 * 8 distinct bonds (by element types)

   Z      Z             #   av. dist./Å        max./Å        min./Å
   1 H    6 C           8     1.0787242     1.0856731     1.0746408
   6 C    6 C          39     1.3966137     1.4352418     1.3501750
   6 C    7 N          10     1.2203112     1.3309065     1.1455036
   6 C    8 O           2     1.2081221     1.2099305     1.2063137
   6 C    9 F           3     1.3373062     1.3375855     1.3369609
   6 C   16 S          10     1.7354238     1.7444904     1.7183900
   7 N   16 S           4     1.6042847     1.6059465     1.6020193
   6 C   35 Br          2     1.8740407     1.8740464     1.8740349


optimized geometry written to: xtbopt.xyz


           -------------------------------------------------
          | TOTAL ENERGY             -202.356577437068 Eh   |
          | GRADIENT NORM               0.000601233517 Eh/α |
          | HOMO-LUMO GAP               1.345072351673 eV   |
           -------------------------------------------------

------------------------------------------------------------------------
 * finished run on 2021/06/26 at 04:33:38.333     
------------------------------------------------------------------------
 total:
 * wall-time:     0 d,  0 h,  0 min, 14.042 sec
 *  cpu-time:     0 d,  0 h,  2 min, 48.419 sec
 * ratio c/w:    11.994 speedup
 SCF:
 * wall-time:     0 d,  0 h,  0 min,  0.267 sec
 *  cpu-time:     0 d,  0 h,  0 min,  3.199 sec
 * ratio c/w:    11.989 speedup
 ANC optimizer:
 * wall-time:     0 d,  0 h,  0 min, 13.726 sec
 *  cpu-time:     0 d,  0 h,  2 min, 44.710 sec
 * ratio c/w:    11.999 speedup

