      -----------------------------------------------------------      
     |                   =====================                   |     
     |                           x T B                           |     
     |                   =====================                   |     
     |                         S. Grimme                         |     
     |          Mulliken Center for Theoretical Chemistry        |     
     |                    University of Bonn                     |     
     |                Version 6.2 RC2 (SAW190805)                |     
      -----------------------------------------------------------      

   This program is distributed in the hope that it will be useful,
   but WITHOUT ANY WARRANTY; without even the implied warranty of
   MERCHANTABILITY or FITNESS FOR A PARTICULAR PURPOSE.
   
   FOR NON-COMMERCIAL, ACADEMIA USE ONLY.
   
   Cite this work as:
   * S. Grimme, C. Bannwarth, P. Shushkov, J. Chem. Theory Comput., 2017,
     13, 1989-2009. DOI: 10.1021/acs.jctc.7b00118
   * C. Bannwarth, S. Ehlert and S. Grimme., J. Chem. Theory Comput., 2019,
     15, 1652-1671. DOI: 10.1021/acs.jctc.8b01176
   * P. Pracht, E. Caldeweyher, S. Ehlert, S. Grimme, ChemRxiv, 2019, preprint.
     DOI: 10.26434/chemrxiv.8326202.v1
   
   for DFT-D4:
   * E. Caldeweyher, C. Bannwarth and S. Grimme, J. Chem. Phys., 2017,
     147, 034112. DOI: 10.1063/1.4993215
   * E. Caldeweyher, S. Ehlert, A. Hansen, H. Neugebauer, S. Spicher,
     C. Bannwarth and S. Grimme, J. Chem. Phys., 2019, 150, 154122.
     DOI: 10.1063/1.5090222
   
   for sTDA-xTB:
   * S. Grimme and C. Bannwarth, J. Chem. Phys., 2016, 145, 054103.
     DOI: 10.1063/1.4959605
   
   in the mass-spec context:
   * V. Asgeirsson, C. Bauer and S. Grimme, Chem. Sci., 2017, 8, 4879.
     DOI: 10.1039/c7sc00601b
   
   for metadynamics refer to:
   * S. Grimme, J. Chem. Theory Comput., 2019, 155, 2847-2862
     DOI: 10.1021/acs.jctc.9b00143
   
   with help from (in alphabetical order)
   C. Bannwarth, F. Bohle, G. Brandenburg, E. Caldeweyher, M. Checinski,
   S. Dohm, S. Ehlert, S. Ehrlich, F. März, H. Neugebauer, J. Pisarek,
   P. Pracht, P. Shushkov, and S. Spicher.
   
 * started run on 2021/07/03 at 05:06:03.995     

           -------------------------------------------------
          |                Calculation Setup                |
           -------------------------------------------------

          program call               : /ihome/ghutchison/geoffh/xtb/xtb /ihome/ghutchison/blp62/GA/running_GA/opt_GA/generations/111/42_57_57_57_42_13331.xyz -opt
          hostname                   : smp-n33
          coordinate file            : /ihome/ghutchison/blp62/GA/running_GA/opt_GA/generations/111/42_57_57_57_42_13331.xyz
          omp threads                :                    12
          number of atoms            :                   123
          number of electrons        :                   390
          charge                     :                     0
          spin                       :                   0.0
          first test random number   :      0.74667023237188


########################################################################
# WARNING! Please study the warnings concerning your input carefully
#  - XTBPATH is not set, using XTBHOME instead
#  - the use of '-opt' is discouraged, please use '--opt' next time
########################################################################

           ------------------------------------------------- 
          |                 G F N 2 - x T B                 |
          | Geometry, Frequencies, Noncovalent interactions |
          |            JCTC 2019 parametrisation            |
           ------------------------------------------------- 
             KAB for C  - Si     :                1.0500
             KAB for H  - Pd     :                0.9500
             k(s)              :                1.8500
             k(p)              :                2.2300
             k(d)              :                2.2300
             k(f)              :                2.0000
             kEN (H0ij)        :               -2.0000
             D4 a1             :                0.5200
             D4 a2             :                5.0000
             D4 s6             :                1.0000
             D4 s8             :                2.7000
             D4 s9             :                5.0000
             alphaj            :                2.0000

  Z AO/shell   Hii/eV     exponent
  1     Wed Apr 25 08:07:45 CEST 2018   EN: 2.200 GM2: 0.406  GM3: 0.0800  RAES: 1.40
     1s    -10.707211    1.230000
  6     Wed Apr 25 08:07:45 CEST 2018   EN: 2.550 GM2: 0.538  GM3: 0.1500  RAES: 3.00
     2s    -13.970922    2.096432
     2p    -10.063292    1.800000
  7     Wed Apr 25 08:07:45 CEST 2018   EN: 3.040 GM2: 0.461  GM3:-0.0640  RAES: 1.90
     2s    -16.686243    2.339881
     2p    -12.523956    2.014332
  8     Wed Apr 25 08:07:45 CEST 2018   EN: 3.440 GM2: 0.452  GM3:-0.0517  RAES: 1.80
     2s    -20.229985    2.439742
     2p    -15.503117    2.137023
 16     Tue Apr 24 11:44:34 CEST 2018   EN: 2.580 GM2: 0.340  GM3:-0.0502  RAES: 3.10
     3s    -20.029654    1.981333
     3p    -11.377694    2.025643
     3d     -0.420282    1.702555
 35     Tue Apr 24 12:21:41 CEST 2018   EN: 2.960 GM2: 0.261  GM3: 0.1300  RAES: 4.00
     4s    -23.583718    2.077587
     4p    -12.588824    2.263120
     4d      0.047980    1.845038

           ------------------------------------------------- 
          |        Self-Consistent Charge Iterations        |
           ------------------------------------------------- 

          ...................................................
          :                      SETUP                      :
          :.................................................:
          :  # basis functions                 402          :
          :  # atomic orbitals                 395          :
          :  # shells                          209          :
          :  # electrons                       390          :
          :  max. iterations                   250          :
          :  Hamiltonian                  GFN2-xTB          :
          :  restarted?                      false          :
          :  GBSA solvation                  false          :
          :  PC potential                    false          :
          :  electronic temp.          300.0000000     K    :
          :  accuracy                    1.0000000          :
          :  -> integral cutoff          0.2500000E+02      :
          :  -> integral neglect         0.1000000E-07      :
          :  -> SCF convergence          0.1000000E-05 Eh   :
          :  -> wf. convergence          0.1000000E-03 e    :
          :  Broyden damping             0.4000000          :
          ...................................................

 iter      E             dE          RMSdq      gap      omega  full diag
   1   -215.1738129 -0.215174E+03  0.478E+00    1.71       0.0  T
   2   -215.2551610 -0.813480E-01  0.309E+00    1.32       1.0  T
   3   -215.0074339  0.247727E+00  0.216E+00    0.63       1.0  T
   4   -215.4468694 -0.439435E+00  0.602E-01    0.78       1.0  T
   5   -215.4708127 -0.239434E-01  0.253E-01    0.65       1.0  T
   6   -215.4735527 -0.273995E-02  0.142E-01    0.73       1.0  T
   7   -215.4747184 -0.116573E-02  0.710E-02    0.73       1.0  T
   8   -215.4748420 -0.123627E-03  0.491E-02    0.73       1.0  T
   9   -215.4748715 -0.294778E-04  0.380E-02    0.73       1.0  T
  10   -215.4749084 -0.368785E-04  0.214E-02    0.73       1.0  T
  11   -215.4749243 -0.159275E-04  0.127E-02    0.72       1.0  T
  12   -215.4749307 -0.640839E-05  0.615E-03    0.73       1.5  T
  13   -215.4749323 -0.154141E-05  0.304E-03    0.72       3.0  T
  14   -215.4749327 -0.440763E-06  0.162E-03    0.72       5.6  T
  15   -215.4749328 -0.117420E-06  0.862E-04    0.72      10.5  T
  16   -215.4749329 -0.175875E-07  0.548E-04    0.72      16.4  T

   *** convergence criteria satisfied after 16 iterations ***

         #    Occupation            Energy/Eh            Energy/eV
      -------------------------------------------------------------
         1        2.0000           -0.8609410             -23.4274
       ...           ...                  ...                  ...
       189        2.0000           -0.3731916             -10.1551
       190        2.0000           -0.3713933             -10.1061
       191        2.0000           -0.3703924             -10.0789
       192        2.0000           -0.3700326             -10.0691
       193        2.0000           -0.3679650             -10.0128
       194        2.0000           -0.3582342              -9.7480
       195        2.0000           -0.3554446              -9.6721 (HOMO)
       196        0.0000           -0.3288037              -8.9472 (LUMO)
       197        0.0000           -0.3287361              -8.9454
       198                         -0.3145388              -8.5590
       199                         -0.3145077              -8.5582
       200                         -0.2859013              -7.7798
       ...                                ...                  ...
       395                          1.0806161              29.4051
      -------------------------------------------------------------
                  HL-Gap            0.0266409 Eh            0.7249 eV
             Fermi-level           -0.3424122 Eh           -9.3175 eV

 SCC (total)                   0 d,  0 h,  0 min,  1.406 sec
 SCC setup                      ...        0 min,  0.003 sec (  0.238%)
 Dispersion                     ...        0 min,  0.007 sec (  0.474%)
 integral evaluation            ...        0 min,  0.052 sec (  3.732%)
 zeroth order Hamiltonian       ...        0 min,  0.002 sec (  0.111%)
 iterations                     ...        0 min,  1.300 sec ( 92.439%)
 molecular gradient             ...        0 min,  0.040 sec (  2.816%)
 printout                       ...        0 min,  0.003 sec (  0.181%)

         :::::::::::::::::::::::::::::::::::::::::::::::::::::
         ::                     SUMMARY                     ::
         :::::::::::::::::::::::::::::::::::::::::::::::::::::
         :: total energy            -212.333705097315 Eh    ::
         :: gradient norm              0.190213711374 Eh/a0 ::
         :: HOMO-LUMO gap              0.724934786990 eV    ::
         ::.................................................::
         :: SCC energy              -215.474932857308 Eh    ::
         :: -> isotropic ES            0.157713488174 Eh    ::
         :: -> anisotropic ES          0.024451983688 Eh    ::
         :: -> anisotropic XC          0.161663765878 Eh    ::
         :: -> dispersion             -0.183605142045 Eh    ::
         :: repulsion energy           3.139838434354 Eh    ::
         :: add. restraining           0.000000000000 Eh    ::
         :::::::::::::::::::::::::::::::::::::::::::::::::::::

      ----------------------------------------------------------- 
     |                   =====================                   |
     |                        A N C O P T                        |
     |                   =====================                   |
     |               Approximate Normal Coordinate               |
     |                Rational Function Optimizer                |
      ----------------------------------------------------------- 

          ...................................................
          :                      SETUP                      :
          :.................................................:
          :   optimization level            normal          :
          :   max. optcycles                   369          :
          :   ANC micro-cycles                  20          :
          :   degrees of freedom               363          :
          :.................................................:
          :   RF solver                   davidson          :
          :   input Hessian                  false          :
          :   write xtbopt.log                true          :
          :   linear?                        false          :
          :   energy convergence         0.5000000E-05 Eh   :
          :   grad. convergence          0.1000000E-02 Eh/α :
          :   maximium RF displ.         2.0000000          :
          :   Hlow (freq-cutoff)         0.5000000E-02      :
          :   Hmax (freq-cutoff)         5.0000000          :
          :   S6 in model hess.         20.0000000          :
          ...................................................

generating ANC from model Hessian ...
Using Lindh-Hessian (1995)
 Shifting diagonal of input Hessian by   4.994400387305310E-003
 Lowest  eigenvalues of input Hessian
   -0.000000   -0.000000   -0.000000   -0.000000   -0.000000    0.000000
    0.005000    0.005011    0.005021    0.005046    0.005064    0.005093
    0.005140    0.005208    0.005250    0.005362    0.005398    0.005544
 Highest eigenvalues
    2.268647    2.272108    2.496076    2.503649    2.563994    2.566521
 

........................................................................
.............................. CYCLE    1 ..............................
........................................................................
   1   -215.4749329 -0.215475E+03  0.289E-04    0.72       0.0  T
   2   -215.4749329  0.405976E-09  0.250E-04    0.72      36.1  T
   3   -215.4749329 -0.340810E-08  0.178E-04    0.72      50.5  T
     SCC iter.                  ...        0 min,  0.183 sec
     gradient                   ...        0 min,  0.040 sec
 * total energy  :  -212.3337050 Eh     change        0.8998720E-07 Eh
   gradient norm :     0.1902139 Eh/α   predicted     0.0000000E+00 (-100.00%)
   displ. norm   :     0.4699658 α      lambda       -0.5017404E-01
   maximum displ.:     0.1086153 α      in ANC's #220, #97, #49, ...

........................................................................
.............................. CYCLE    2 ..............................
........................................................................
   1   -215.5851543 -0.215585E+03  0.343E-01    0.72       0.0  T
   2   -215.5854344 -0.280158E-03  0.187E-01    0.71       1.0  T
   3   -215.5842977  0.113671E-02  0.114E-01    0.70       1.0  T
   4   -215.5858033 -0.150563E-02  0.336E-02    0.70       1.0  T
   5   -215.5858257 -0.223401E-04  0.185E-02    0.70       1.0  T
   6   -215.5858529 -0.272397E-04  0.636E-03    0.70       1.4  T
   7   -215.5858570 -0.414064E-05  0.196E-03    0.70       4.6  T
   8   -215.5858572 -0.121838E-06  0.112E-03    0.70       8.1  T
     SCC iter.                  ...        0 min,  0.828 sec
     gradient                   ...        0 min,  0.033 sec
 * total energy  :  -212.3689633 Eh     change       -0.3525828E-01 Eh
   gradient norm :     0.0786157 Eh/α   predicted    -0.3062815E-01 ( -13.13%)
   displ. norm   :     0.5493307 α      lambda       -0.2065894E-01
   maximum displ.:     0.1279182 α      in ANC's #49, #22, #46, ...

........................................................................
.............................. CYCLE    3 ..............................
........................................................................
   1   -215.6160788 -0.215616E+03  0.305E-01    0.65       0.0  T
   2   -215.6163098 -0.231078E-03  0.159E-01    0.66       1.0  T
   3   -215.6156585  0.651312E-03  0.838E-02    0.66       1.0  T
   4   -215.6165066 -0.848085E-03  0.265E-02    0.65       1.0  T
   5   -215.6165249 -0.182638E-04  0.129E-02    0.66       1.0  T
   6   -215.6165344 -0.947882E-05  0.489E-03    0.65       1.8  T
   7   -215.6165366 -0.226137E-05  0.189E-03    0.65       4.8  T
   8   -215.6165368 -0.178965E-06  0.109E-03    0.65       8.3  T
     SCC iter.                  ...        0 min,  0.713 sec
     gradient                   ...        0 min,  0.036 sec
 * total energy  :  -212.3829850 Eh     change       -0.1402177E-01 Eh
   gradient norm :     0.0250923 Eh/α   predicted    -0.1344659E-01 (  -4.10%)
   displ. norm   :     0.6524303 α      lambda       -0.9491306E-02
   maximum displ.:     0.2050520 α      in ANC's #22, #35, #34, ...

........................................................................
.............................. CYCLE    4 ..............................
........................................................................
   1   -215.6253782 -0.215625E+03  0.271E-01    0.62       0.0  T
   2   -215.6255078 -0.129550E-03  0.147E-01    0.63       1.0  T
   3   -215.6253462  0.161575E-03  0.448E-02    0.62       1.0  T
   4   -215.6255584 -0.212242E-03  0.154E-02    0.63       1.0  T
   5   -215.6255677 -0.931381E-05  0.733E-03    0.63       1.2  T
   6   -215.6255698 -0.202934E-05  0.331E-03    0.63       2.7  T
   7   -215.6255704 -0.618337E-06  0.183E-03    0.63       4.9  T
     SCC iter.                  ...        0 min,  0.646 sec
     gradient                   ...        0 min,  0.039 sec
 * total energy  :  -212.3885387 Eh     change       -0.5553639E-02 Eh
   gradient norm :     0.0305405 Eh/α   predicted    -0.6765808E-02 (  21.83%)
   displ. norm   :     0.7284472 α      lambda       -0.1039746E-01
   maximum displ.:     0.2207469 α      in ANC's #22, #13, #31, ...

........................................................................
.............................. CYCLE    5 ..............................
........................................................................
   1   -215.6388700 -0.215639E+03  0.329E-01    0.60       0.0  T
   2   -215.6390378 -0.167853E-03  0.181E-01    0.61       1.0  T
   3   -215.6387677  0.270103E-03  0.555E-02    0.60       1.0  T
   4   -215.6391142 -0.346456E-03  0.152E-02    0.61       1.0  T
   5   -215.6391235 -0.937376E-05  0.890E-03    0.61       1.0  T
   6   -215.6391278 -0.430002E-05  0.407E-03    0.61       2.2  T
   7   -215.6391287 -0.888723E-06  0.212E-03    0.61       4.3  T
     SCC iter.                  ...        0 min,  0.730 sec
     gradient                   ...        0 min,  0.033 sec
 * total energy  :  -212.3937058 Eh     change       -0.5167100E-02 Eh
   gradient norm :     0.0293407 Eh/α   predicted    -0.7957366E-02 (  54.00%)
   displ. norm   :     0.5160144 α      lambda       -0.4467532E-02
   maximum displ.:     0.2264442 α      in ANC's #22, #35, #15, ...

........................................................................
.............................. CYCLE    6 ..............................
........................................................................
   1   -215.6393511 -0.215639E+03  0.149E-01    0.60       0.0  T
   2   -215.6393845 -0.333745E-04  0.828E-02    0.60       1.0  T
   3   -215.6391755  0.208941E-03  0.426E-02    0.60       1.0  T
   4   -215.6394143 -0.238714E-03  0.882E-03    0.61       1.0  T
   5   -215.6394170 -0.272448E-05  0.507E-03    0.60       1.8  T
   6   -215.6394182 -0.125401E-05  0.243E-03    0.60       3.7  T
     SCC iter.                  ...        0 min,  0.550 sec
     gradient                   ...        0 min,  0.040 sec
 * total energy  :  -212.3973482 Eh     change       -0.3642409E-02 Eh
   gradient norm :     0.0256926 Eh/α   predicted    -0.2828558E-02 ( -22.34%)
   displ. norm   :     0.7053057 α      lambda       -0.5109848E-02
   maximum displ.:     0.3070987 α      in ANC's #22, #14, #15, ...

........................................................................
.............................. CYCLE    7 ..............................
........................................................................
   1   -215.6448066 -0.215645E+03  0.206E-01    0.60       0.0  T
   2   -215.6448927 -0.861308E-04  0.113E-01    0.60       1.0  T
   3   -215.6445892  0.303582E-03  0.524E-02    0.60       1.0  T
   4   -215.6449427 -0.353562E-03  0.135E-02    0.61       1.0  T
   5   -215.6449518 -0.910336E-05  0.717E-03    0.60       1.3  T
   6   -215.6449540 -0.216948E-05  0.365E-03    0.60       2.5  T
   7   -215.6449549 -0.873192E-06  0.207E-03    0.60       4.3  T
     SCC iter.                  ...        0 min,  0.618 sec
     gradient                   ...        0 min,  0.038 sec
 * total energy  :  -212.4008872 Eh     change       -0.3539049E-02 Eh
   gradient norm :     0.0174478 Eh/α   predicted    -0.3825900E-02 (   8.11%)
   displ. norm   :     0.7098187 α      lambda       -0.3822539E-02
   maximum displ.:     0.3044357 α      in ANC's #22, #14, #15, ...

........................................................................
.............................. CYCLE    8 ..............................
........................................................................
   1   -215.6441605 -0.215644E+03  0.211E-01    0.59       0.0  T
   2   -215.6442276 -0.671106E-04  0.117E-01    0.61       1.0  T
   3   -215.6436602  0.567400E-03  0.685E-02    0.60       1.0  T
   4   -215.6443086 -0.648408E-03  0.119E-02    0.61       1.0  T
   5   -215.6443125 -0.392689E-05  0.711E-03    0.61       1.3  T
   6   -215.6443155 -0.300320E-05  0.308E-03    0.61       2.9  T
   7   -215.6443161 -0.587528E-06  0.168E-03    0.61       5.4  T
   8   -215.6443162 -0.669790E-07  0.114E-03    0.61       7.9  T
     SCC iter.                  ...        0 min,  0.555 sec
     gradient                   ...        0 min,  0.039 sec
 * total energy  :  -212.4037335 Eh     change       -0.2846223E-02 Eh
   gradient norm :     0.0232861 Eh/α   predicted    -0.2874272E-02 (   0.99%)
   displ. norm   :     0.7194412 α      lambda       -0.3428052E-02
   maximum displ.:     0.3356278 α      in ANC's #22, #14, #15, ...

........................................................................
.............................. CYCLE    9 ..............................
........................................................................
   1   -215.6464350 -0.215646E+03  0.194E-01    0.61       0.0  T
   2   -215.6465022 -0.671929E-04  0.106E-01    0.64       1.0  T
   3   -215.6461437  0.358457E-03  0.558E-02    0.63       1.0  T
   4   -215.6465602 -0.416523E-03  0.123E-02    0.64       1.0  T
   5   -215.6465637 -0.346282E-05  0.783E-03    0.64       1.2  T
   6   -215.6465679 -0.422010E-05  0.277E-03    0.64       3.3  T
   7   -215.6465685 -0.572517E-06  0.141E-03    0.64       6.4  T
     SCC iter.                  ...        0 min,  0.178 sec
     gradient                   ...        0 min,  0.037 sec
 * total energy  :  -212.4065750 Eh     change       -0.2841484E-02 Eh
   gradient norm :     0.0238328 Eh/α   predicted    -0.2601200E-02 (  -8.46%)
   displ. norm   :     0.7615285 α      lambda       -0.3794981E-02
   maximum displ.:     0.3340448 α      in ANC's #22, #14, #15, ...

........................................................................
.............................. CYCLE   10 ..............................
........................................................................
   1   -215.6624710 -0.215662E+03  0.199E-01    0.65       0.0  T
   2   -215.6625660 -0.950629E-04  0.108E-01    0.70       1.0  T
   3   -215.6621865  0.379524E-03  0.591E-02    0.68       1.0  T
   4   -215.6626366 -0.450123E-03  0.139E-02    0.70       1.0  T
   5   -215.6626435 -0.686422E-05  0.785E-03    0.70       1.1  T
   6   -215.6626470 -0.349008E-05  0.316E-03    0.70       2.9  T
   7   -215.6626480 -0.977896E-06  0.134E-03    0.70       6.7  T
     SCC iter.                  ...        0 min,  0.150 sec
     gradient                   ...        0 min,  0.032 sec
 * total energy  :  -212.4095004 Eh     change       -0.2925419E-02 Eh
   gradient norm :     0.0270344 Eh/α   predicted    -0.2997895E-02 (   2.48%)
   displ. norm   :     0.7727072 α      lambda       -0.3460410E-02
   maximum displ.:     0.3464853 α      in ANC's #22, #14, #15, ...

........................................................................
.............................. CYCLE   11 ..............................
........................................................................
   1   -215.6589615 -0.215659E+03  0.209E-01    0.70       0.0  T
   2   -215.6590462 -0.846894E-04  0.114E-01    0.76       1.0  T
   3   -215.6585785  0.467752E-03  0.642E-02    0.74       1.0  T
   4   -215.6591195 -0.541030E-03  0.140E-02    0.77       1.0  T
   5   -215.6591250 -0.550967E-05  0.831E-03    0.77       1.1  T
   6   -215.6591295 -0.452957E-05  0.302E-03    0.77       3.0  T
   7   -215.6591302 -0.660017E-06  0.142E-03    0.77       6.4  T
     SCC iter.                  ...        0 min,  0.403 sec
     gradient                   ...        0 min,  0.031 sec
 * total energy  :  -212.4123646 Eh     change       -0.2864278E-02 Eh
   gradient norm :     0.0175431 Eh/α   predicted    -0.2763272E-02 (  -3.53%)
   displ. norm   :     0.7923094 α      lambda       -0.2963528E-02
   maximum displ.:     0.3431845 α      in ANC's #22, #14, #15, ...

........................................................................
.............................. CYCLE   12 ..............................
........................................................................
   1   -215.6573111 -0.215657E+03  0.199E-01    0.76       0.0  T
   2   -215.6574061 -0.950462E-04  0.109E-01    0.84       1.0  T
   3   -215.6568378  0.568296E-03  0.701E-02    0.80       1.0  T
   4   -215.6575126 -0.674727E-03  0.155E-02    0.84       1.0  T
   5   -215.6575208 -0.818790E-05  0.891E-03    0.84       1.0  T
   6   -215.6575252 -0.448339E-05  0.331E-03    0.84       2.7  T
   7   -215.6575261 -0.846846E-06  0.148E-03    0.84       6.1  T
   8   -215.6575262 -0.858602E-07  0.956E-04    0.84       9.4  T
     SCC iter.                  ...        0 min,  0.268 sec
     gradient                   ...        0 min,  0.031 sec
 * total energy  :  -212.4149611 Eh     change       -0.2596485E-02 Eh
   gradient norm :     0.0159617 Eh/α   predicted    -0.2411947E-02 (  -7.11%)
   displ. norm   :     0.7842428 α      lambda       -0.3005454E-02
   maximum displ.:     0.3442523 α      in ANC's #22, #14, #11, ...

........................................................................
.............................. CYCLE   13 ..............................
........................................................................
   1   -215.6571358 -0.215657E+03  0.221E-01    0.83       0.0  T
   2   -215.6572300 -0.942332E-04  0.120E-01    0.87       1.0  T
   3   -215.6565625  0.667524E-03  0.752E-02    0.83       1.0  T
   4   -215.6573463 -0.783809E-03  0.161E-02    0.86       1.0  T
   5   -215.6573559 -0.959054E-05  0.946E-03    0.86       1.0  T
   6   -215.6573613 -0.541956E-05  0.358E-03    0.86       2.5  T
   7   -215.6573623 -0.972002E-06  0.170E-03    0.86       5.3  T
   8   -215.6573624 -0.852647E-07  0.115E-03    0.86       7.8  T
     SCC iter.                  ...        0 min,  0.208 sec
     gradient                   ...        0 min,  0.030 sec
 * total energy  :  -212.4170406 Eh     change       -0.2079445E-02 Eh
   gradient norm :     0.0369781 Eh/α   predicted    -0.2426965E-02 (  16.71%)
   displ. norm   :     0.7055487 α      lambda       -0.3366887E-02
   maximum displ.:     0.2952775 α      in ANC's #14, #22, #11, ...

........................................................................
.............................. CYCLE   14 ..............................
........................................................................
   1   -215.6705488 -0.215671E+03  0.196E-01    0.88       0.0  T
   2   -215.6706394 -0.906909E-04  0.109E-01    0.91       1.0  T
   3   -215.6700205  0.618905E-03  0.721E-02    0.88       1.0  T
   4   -215.6707563 -0.735797E-03  0.150E-02    0.89       1.0  T
   5   -215.6707669 -0.105693E-04  0.868E-03    0.90       1.0  T
   6   -215.6707712 -0.428035E-05  0.309E-03    0.90       2.9  T
   7   -215.6707718 -0.593238E-06  0.153E-03    0.90       5.9  T
     SCC iter.                  ...        0 min,  0.331 sec
     gradient                   ...        0 min,  0.038 sec
 * total energy  :  -212.4187215 Eh     change       -0.1680969E-02 Eh
   gradient norm :     0.0404901 Eh/α   predicted    -0.2521463E-02 (  50.00%)
   displ. norm   :     0.6643324 α      lambda       -0.2663742E-02
   maximum displ.:     0.2801166 α      in ANC's #22, #14, #15, ...

........................................................................
.............................. CYCLE   15 ..............................
........................................................................
   1   -215.6459152 -0.215646E+03  0.168E-01    0.87       0.0  T
   2   -215.6460336 -0.118387E-03  0.945E-02    0.91       1.0  T
   3   -215.6455820  0.451611E-03  0.683E-02    0.87       1.0  T
   4   -215.6461729 -0.590889E-03  0.150E-02    0.90       1.0  T
   5   -215.6461880 -0.150572E-04  0.785E-03    0.90       1.1  T
   6   -215.6461925 -0.454753E-05  0.297E-03    0.90       3.0  T
   7   -215.6461928 -0.321033E-06  0.159E-03    0.90       5.7  T
     SCC iter.                  ...        0 min,  0.190 sec
     gradient                   ...        0 min,  0.032 sec
 * total energy  :  -212.4198051 Eh     change       -0.1083592E-02 Eh
   gradient norm :     0.0323051 Eh/α   predicted    -0.1919680E-02 (  77.16%)
   displ. norm   :     0.3959627 α      lambda       -0.2917503E-02
   maximum displ.:     0.1604180 α      in ANC's #14, #22, #11, ...

........................................................................
.............................. CYCLE   16 ..............................
........................................................................
   1   -215.6514094 -0.215651E+03  0.110E-01    0.88       0.0  T
   2   -215.6514277 -0.183005E-04  0.620E-02    0.87       1.0  T
   3   -215.6511945  0.233223E-03  0.459E-02    0.88       1.0  T
   4   -215.6514751 -0.280568E-03  0.738E-03    0.88       1.2  T
   5   -215.6514757 -0.584705E-06  0.457E-03    0.88       2.0  T
   6   -215.6514769 -0.126380E-05  0.222E-03    0.88       4.1  T
     SCC iter.                  ...        0 min,  0.179 sec
     gradient                   ...        0 min,  0.030 sec
 * total energy  :  -212.4210322 Eh     change       -0.1227095E-02 Eh
   gradient norm :     0.0329437 Eh/α   predicted    -0.1687470E-02 (  37.52%)
   displ. norm   :     0.4580637 α      lambda       -0.3006925E-02
   maximum displ.:     0.1705365 α      in ANC's #14, #22, #7, ...

........................................................................
.............................. CYCLE   17 ..............................
........................................................................
   1   -215.6642916 -0.215664E+03  0.131E-01    0.87       0.0  T
   2   -215.6643618 -0.701894E-04  0.702E-02    0.88       1.0  T
   3   -215.6642122  0.149639E-03  0.377E-02    0.87       1.0  T
   4   -215.6643859 -0.173725E-03  0.110E-02    0.87       1.0  T
   5   -215.6643895 -0.364465E-05  0.654E-03    0.88       1.4  T
   6   -215.6643926 -0.309896E-05  0.260E-03    0.88       3.5  T
   7   -215.6643928 -0.211091E-06  0.145E-03    0.88       6.2  T
     SCC iter.                  ...        0 min,  0.202 sec
     gradient                   ...        0 min,  0.036 sec
 * total energy  :  -212.4216634 Eh     change       -0.6311712E-03 Eh
   gradient norm :     0.0422818 Eh/α   predicted    -0.1818926E-02 ( 188.18%)
   displ. norm   :     0.3897472 α      lambda       -0.3026082E-02
   maximum displ.:     0.1317424 α      in ANC's #14, #21, #11, ...

........................................................................
.............................. CYCLE   18 ..............................
........................................................................
   1   -215.6734728 -0.215673E+03  0.124E-01    0.87       0.0  T
   2   -215.6735237 -0.509367E-04  0.665E-02    0.88       1.0  T
   3   -215.6734285  0.952423E-04  0.289E-02    0.87       1.0  T
   4   -215.6735381 -0.109698E-03  0.955E-03    0.87       1.0  T
   5   -215.6735436 -0.548875E-05  0.516E-03    0.88       1.7  T
   6   -215.6735455 -0.188370E-05  0.214E-03    0.87       4.2  T
     SCC iter.                  ...        0 min,  0.164 sec
     gradient                   ...        0 min,  0.030 sec
 * total energy  :  -212.4233062 Eh     change       -0.1642794E-02 Eh
   gradient norm :     0.0209932 Eh/α   predicted    -0.1742876E-02 (   6.09%)
   displ. norm   :     0.6313257 α      lambda       -0.1971745E-02
   maximum displ.:     0.2612315 α      in ANC's #14, #22, #21, ...

........................................................................
.............................. CYCLE   19 ..............................
........................................................................
   1   -215.6551464 -0.215655E+03  0.149E-01    0.85       0.0  T
   2   -215.6551804 -0.339893E-04  0.857E-02    0.88       1.0  T
   3   -215.6546173  0.563135E-03  0.669E-02    0.85       1.0  T
   4   -215.6553033 -0.685964E-03  0.129E-02    0.87       1.0  T
   5   -215.6553139 -0.105932E-04  0.641E-03    0.87       1.4  T
   6   -215.6553155 -0.169146E-05  0.259E-03    0.87       3.5  T
   7   -215.6553160 -0.483637E-06  0.118E-03    0.87       7.6  T
     SCC iter.                  ...        0 min,  0.187 sec
     gradient                   ...        0 min,  0.036 sec
 * total energy  :  -212.4244758 Eh     change       -0.1169573E-02 Eh
   gradient norm :     0.0214058 Eh/α   predicted    -0.1378816E-02 (  17.89%)
   displ. norm   :     0.5698842 α      lambda       -0.1731209E-02
   maximum displ.:     0.2025691 α      in ANC's #14, #21, #12, ...

........................................................................
.............................. CYCLE   20 ..............................
........................................................................
   1   -215.6570646 -0.215657E+03  0.156E-01    0.84       0.0  T
   2   -215.6570868 -0.221332E-04  0.853E-02    0.85       1.0  T
   3   -215.6568221  0.264651E-03  0.447E-02    0.85       1.0  T
   4   -215.6571209 -0.298780E-03  0.100E-02    0.85       1.0  T
   5   -215.6571204  0.486975E-06  0.614E-03    0.85       1.5  T
   6   -215.6571231 -0.267722E-05  0.236E-03    0.85       3.8  T
   7   -215.6571236 -0.504209E-06  0.128E-03    0.85       7.0  T
     SCC iter.                  ...        0 min,  0.186 sec
     gradient                   ...        0 min,  0.036 sec
 * total energy  :  -212.4258832 Eh     change       -0.1407388E-02 Eh
   gradient norm :     0.0174764 Eh/α   predicted    -0.1146728E-02 ( -18.52%)
   displ. norm   :     0.7212657 α      lambda       -0.2064142E-02
   maximum displ.:     0.2472117 α      in ANC's #14, #21, #4, ...
 * RMSD in coord.:     0.9307983 α      energy gain  -0.9217806E-01 Eh

generating ANC from model Hessian ...
Using Lindh-Hessian (1995)
 Shifting diagonal of input Hessian by   5.071376582458075E-003
 Lowest  eigenvalues of input Hessian
    0.005000    0.005066   -0.000000   -0.000000    0.000000    0.000000
    0.000000    0.000000    0.005075    0.005096    0.005121    0.005148
    0.005178    0.005257    0.005270    0.005388    0.005415    0.005514
 Highest eigenvalues
    2.269896    2.280625    2.601898    2.605179    2.638577    2.651006
 

........................................................................
.............................. CYCLE   21 ..............................
........................................................................
   1   -215.6659560 -0.215666E+03  0.195E-01    0.82       0.0  T
   2   -215.6659928 -0.367527E-04  0.107E-01    0.84       1.0  T
   3   -215.6654963  0.496431E-03  0.603E-02    0.82       1.0  T
   4   -215.6660548 -0.558491E-03  0.133E-02    0.83       1.0  T
   5   -215.6660538  0.103627E-05  0.816E-03    0.83       1.1  T
   6   -215.6660583 -0.454868E-05  0.288E-03    0.83       3.1  T
   7   -215.6660590 -0.695451E-06  0.158E-03    0.83       5.7  T
   8   -215.6660591 -0.100428E-06  0.105E-03    0.83       8.6  T
   9   -215.6660591 -0.181440E-07  0.642E-04    0.83      14.1  T
  10   -215.6660592 -0.939914E-08  0.361E-04    0.83      25.0  T
     SCC iter.                  ...        0 min,  0.431 sec
     gradient                   ...        0 min,  0.032 sec
 * total energy  :  -212.4274736 Eh     change       -0.1590433E-02 Eh
   gradient norm :     0.0119338 Eh/α   predicted     0.0000000E+00 (-100.00%)
   displ. norm   :     0.3069926 α      lambda       -0.1058472E-02
   maximum displ.:     0.1150406 α      in ANC's #7, #13, #19, ...

........................................................................
.............................. CYCLE   22 ..............................
........................................................................
   1   -215.6677683 -0.215668E+03  0.113E-01    0.82       0.0  T
   2   -215.6677832 -0.148895E-04  0.612E-02    0.83       1.0  T
   3   -215.6677635  0.196906E-04  0.146E-02    0.83       1.0  T
   4   -215.6677876 -0.240844E-04  0.621E-03    0.83       1.5  T
   5   -215.6677896 -0.198763E-05  0.271E-03    0.83       3.3  T
   6   -215.6677902 -0.615262E-06  0.114E-03    0.83       7.9  T
     SCC iter.                  ...        0 min,  0.184 sec
     gradient                   ...        0 min,  0.035 sec
 * total energy  :  -212.4282736 Eh     change       -0.8000242E-03 Eh
   gradient norm :     0.0079698 Eh/α   predicted    -0.5791142E-03 ( -27.61%)
   displ. norm   :     0.5032323 α      lambda       -0.1772719E-02
   maximum displ.:     0.1497212 α      in ANC's #13, #38, #27, ...

........................................................................
.............................. CYCLE   23 ..............................
........................................................................
   1   -215.6702705 -0.215670E+03  0.180E-01    0.80       0.0  T
   2   -215.6703077 -0.371417E-04  0.990E-02    0.82       1.0  T
   3   -215.6701636  0.144109E-03  0.344E-02    0.81       1.0  T
   4   -215.6703277 -0.164147E-03  0.104E-02    0.82       1.0  T
   5   -215.6703309 -0.324359E-05  0.581E-03    0.82       1.6  T
   6   -215.6703340 -0.304450E-05  0.203E-03    0.82       4.4  T
   7   -215.6703343 -0.342944E-06  0.975E-04    0.82       9.2  T
   8   -215.6703344 -0.342233E-07  0.627E-04    0.82      14.4  T
     SCC iter.                  ...        0 min,  0.270 sec
     gradient                   ...        0 min,  0.034 sec
 * total energy  :  -212.4290718 Eh     change       -0.7981834E-03 Eh
   gradient norm :     0.0186222 Eh/α   predicted    -0.1110824E-02 (  39.17%)
   displ. norm   :     0.4810253 α      lambda       -0.1751096E-02
   maximum displ.:     0.1534445 α      in ANC's #7, #39, #38, ...

........................................................................
.............................. CYCLE   24 ..............................
........................................................................
   1   -215.6680969 -0.215668E+03  0.161E-01    0.79       0.0  T
   2   -215.6681193 -0.223903E-04  0.897E-02    0.81       1.0  T
   3   -215.6679474  0.171895E-03  0.351E-02    0.79       1.0  T
   4   -215.6681366 -0.189189E-03  0.956E-03    0.81       1.0  T
   5   -215.6681393 -0.268892E-05  0.519E-03    0.81       1.7  T
   6   -215.6681417 -0.241087E-05  0.171E-03    0.81       5.3  T
   7   -215.6681420 -0.233804E-06  0.891E-04    0.81      10.1  T
     SCC iter.                  ...        0 min,  0.236 sec
     gradient                   ...        0 min,  0.035 sec
 * total energy  :  -212.4302681 Eh     change       -0.1196335E-02 Eh
   gradient norm :     0.0206358 Eh/α   predicted    -0.1078139E-02 (  -9.88%)
   displ. norm   :     0.5692997 α      lambda       -0.2517600E-02
   maximum displ.:     0.1791908 α      in ANC's #13, #7, #38, ...

........................................................................
.............................. CYCLE   25 ..............................
........................................................................
   1   -215.6587044 -0.215659E+03  0.216E-01    0.77       0.0  T
   2   -215.6587540 -0.495780E-04  0.119E-01    0.80       1.0  T
   3   -215.6585494  0.204637E-03  0.394E-02    0.77       1.0  T
   4   -215.6587803 -0.230931E-03  0.124E-02    0.80       1.0  T
   5   -215.6587849 -0.463357E-05  0.696E-03    0.79       1.3  T
   6   -215.6587889 -0.392204E-05  0.244E-03    0.80       3.7  T
   7   -215.6587894 -0.576387E-06  0.119E-03    0.79       7.6  T
     SCC iter.                  ...        0 min,  0.216 sec
     gradient                   ...        0 min,  0.035 sec
 * total energy  :  -212.4312651 Eh     change       -0.9969121E-03 Eh
   gradient norm :     0.0244992 Eh/α   predicted    -0.1666780E-02 (  67.19%)
   displ. norm   :     0.4251096 α      lambda       -0.2430911E-02
   maximum displ.:     0.1776906 α      in ANC's #7, #27, #24, ...

........................................................................
.............................. CYCLE   26 ..............................
........................................................................
   1   -215.6581065 -0.215658E+03  0.211E-01    0.78       0.0  T
   2   -215.6581596 -0.531121E-04  0.116E-01    0.79       1.0  T
   3   -215.6580060  0.153588E-03  0.348E-02    0.78       1.0  T
   4   -215.6581906 -0.184509E-03  0.889E-03    0.79       1.0  T
   5   -215.6581927 -0.211481E-05  0.489E-03    0.79       1.8  T
   6   -215.6581944 -0.174629E-05  0.178E-03    0.79       5.1  T
     SCC iter.                  ...        0 min,  0.161 sec
     gradient                   ...        0 min,  0.030 sec
 * total energy  :  -212.4319130 Eh     change       -0.6479579E-03 Eh
   gradient norm :     0.0290367 Eh/α   predicted    -0.1435113E-02 ( 121.48%)
   displ. norm   :     0.3690629 α      lambda       -0.3246936E-02
   maximum displ.:     0.1267277 α      in ANC's #13, #7, #66, ...

........................................................................
.............................. CYCLE   27 ..............................
........................................................................
   1   -215.6715331 -0.215672E+03  0.183E-01    0.78       0.0  T
   2   -215.6715704 -0.373888E-04  0.101E-01    0.79       1.0  T
   3   -215.6713984  0.172075E-03  0.350E-02    0.77       1.0  T
   4   -215.6715985 -0.200166E-03  0.749E-03    0.78       1.2  T
   5   -215.6715995 -0.101443E-05  0.426E-03    0.78       2.1  T
   6   -215.6716008 -0.129440E-05  0.163E-03    0.78       5.5  T
     SCC iter.                  ...        0 min,  0.182 sec
     gradient                   ...        0 min,  0.036 sec
 * total energy  :  -212.4333351 Eh     change       -0.1422105E-02 Eh
   gradient norm :     0.0159170 Eh/α   predicted    -0.1844603E-02 (  29.71%)
   displ. norm   :     0.5815136 α      lambda       -0.1975923E-02
   maximum displ.:     0.1990993 α      in ANC's #7, #13, #27, ...

........................................................................
.............................. CYCLE   28 ..............................
........................................................................
   1   -215.6611148 -0.215661E+03  0.169E-01    0.75       0.0  T
   2   -215.6611338 -0.189485E-04  0.942E-02    0.78       1.0  T
   3   -215.6607779  0.355896E-03  0.471E-02    0.74       1.0  T
   4   -215.6611668 -0.388971E-03  0.101E-02    0.78       1.0  T
   5   -215.6611690 -0.216687E-05  0.584E-03    0.78       1.5  T
   6   -215.6611714 -0.236392E-05  0.184E-03    0.77       4.9  T
   7   -215.6611717 -0.292789E-06  0.923E-04    0.77       9.8  T
     SCC iter.                  ...        0 min,  0.220 sec
     gradient                   ...        0 min,  0.034 sec
 * total energy  :  -212.4339871 Eh     change       -0.6520256E-03 Eh
   gradient norm :     0.0258390 Eh/α   predicted    -0.1322047E-02 ( 102.76%)
   displ. norm   :     0.3221472 α      lambda       -0.2388626E-02
   maximum displ.:     0.1411000 α      in ANC's #7, #13, #4, ...

........................................................................
.............................. CYCLE   29 ..............................
........................................................................
   1   -215.6681606 -0.215668E+03  0.125E-01    0.78       0.0  T
   2   -215.6681773 -0.166642E-04  0.675E-02    0.77       1.0  T
   3   -215.6679715  0.205728E-03  0.372E-02    0.79       1.0  T
   4   -215.6682031 -0.231584E-03  0.749E-03    0.77       1.2  T
   5   -215.6682038 -0.723141E-06  0.425E-03    0.78       2.1  T
   6   -215.6682052 -0.137082E-05  0.138E-03    0.77       6.5  T
     SCC iter.                  ...        0 min,  0.179 sec
     gradient                   ...        0 min,  0.035 sec
 * total energy  :  -212.4349508 Eh     change       -0.9636637E-03 Eh
   gradient norm :     0.0143652 Eh/α   predicted    -0.1318258E-02 (  36.80%)
   displ. norm   :     0.5212579 α      lambda       -0.1834913E-02
   maximum displ.:     0.2260487 α      in ANC's #7, #13, #4, ...

........................................................................
.............................. CYCLE   30 ..............................
........................................................................
   1   -215.6619384 -0.215662E+03  0.190E-01    0.76       0.0  T
   2   -215.6619751 -0.366795E-04  0.103E-01    0.77       1.0  T
   3   -215.6617411  0.234006E-03  0.402E-02    0.76       1.0  T
   4   -215.6620049 -0.263815E-03  0.109E-02    0.77       1.0  T
   5   -215.6620076 -0.267366E-05  0.594E-03    0.77       1.5  T
   6   -215.6620102 -0.264942E-05  0.212E-03    0.77       4.3  T
   7   -215.6620106 -0.371984E-06  0.114E-03    0.77       7.9  T
     SCC iter.                  ...        0 min,  0.203 sec
     gradient                   ...        0 min,  0.035 sec
 * total energy  :  -212.4357293 Eh     change       -0.7785097E-03 Eh
   gradient norm :     0.0267375 Eh/α   predicted    -0.1166739E-02 (  49.87%)
   displ. norm   :     0.4451979 α      lambda       -0.1702375E-02
   maximum displ.:     0.2109378 α      in ANC's #7, #27, #4, ...

........................................................................
.............................. CYCLE   31 ..............................
........................................................................
   1   -215.6713581 -0.215671E+03  0.151E-01    0.77       0.0  T
   2   -215.6713830 -0.249259E-04  0.827E-02    0.77       1.0  T
   3   -215.6711957  0.187376E-03  0.361E-02    0.75       1.0  T
   4   -215.6714049 -0.209232E-03  0.860E-03    0.77       1.0  T
   5   -215.6714076 -0.272816E-05  0.462E-03    0.77       1.9  T
   6   -215.6714090 -0.137561E-05  0.187E-03    0.77       4.8  T
     SCC iter.                  ...        0 min,  0.182 sec
     gradient                   ...        0 min,  0.036 sec
 * total energy  :  -212.4364843 Eh     change       -0.7549927E-03 Eh
   gradient norm :     0.0188905 Eh/α   predicted    -0.1019897E-02 (  35.09%)
   displ. norm   :     0.4868704 α      lambda       -0.1305520E-02
   maximum displ.:     0.2349337 α      in ANC's #7, #4, #13, ...

........................................................................
.............................. CYCLE   32 ..............................
........................................................................
   1   -215.6685398 -0.215669E+03  0.126E-01    0.77       0.0  T
   2   -215.6685587 -0.188479E-04  0.691E-02    0.77       1.0  T
   3   -215.6685150  0.436405E-04  0.204E-02    0.77       1.0  T
   4   -215.6685650 -0.499869E-04  0.779E-03    0.77       1.2  T
   5   -215.6685676 -0.256700E-05  0.396E-03    0.77       2.3  T
   6   -215.6685688 -0.124425E-05  0.149E-03    0.77       6.1  T
   7   -215.6685690 -0.169789E-06  0.785E-04    0.77      11.5  T
     SCC iter.                  ...        0 min,  0.218 sec
     gradient                   ...        0 min,  0.030 sec
 * total energy  :  -212.4373183 Eh     change       -0.8340230E-03 Eh
   gradient norm :     0.0143093 Eh/α   predicted    -0.8074987E-03 (  -3.18%)
   displ. norm   :     0.5874879 α      lambda       -0.1061603E-02
   maximum displ.:     0.3021324 α      in ANC's #7, #4, #13, ...

........................................................................
.............................. CYCLE   33 ..............................
........................................................................
   1   -215.6658177 -0.215666E+03  0.142E-01    0.77       0.0  T
   2   -215.6658352 -0.174549E-04  0.782E-02    0.77       1.0  T
   3   -215.6657083  0.126929E-03  0.300E-02    0.77       1.0  T
   4   -215.6658494 -0.141120E-03  0.859E-03    0.77       1.1  T
   5   -215.6658505 -0.113188E-05  0.475E-03    0.77       1.9  T
   6   -215.6658523 -0.177557E-05  0.180E-03    0.77       5.0  T
   7   -215.6658526 -0.261280E-06  0.971E-04    0.77       9.3  T
     SCC iter.                  ...        0 min,  0.199 sec
     gradient                   ...        0 min,  0.030 sec
 * total energy  :  -212.4380447 Eh     change       -0.7264185E-03 Eh
   gradient norm :     0.0128614 Eh/α   predicted    -0.7140060E-03 (  -1.71%)
   displ. norm   :     0.6006748 α      lambda       -0.1008046E-02
   maximum displ.:     0.3300098 α      in ANC's #7, #4, #13, ...

........................................................................
.............................. CYCLE   34 ..............................
........................................................................
   1   -215.6738589 -0.215674E+03  0.137E-01    0.78       0.0  T
   2   -215.6738792 -0.202483E-04  0.737E-02    0.77       1.0  T
   3   -215.6737568  0.122390E-03  0.306E-02    0.78       1.0  T
   4   -215.6738931 -0.136299E-03  0.921E-03    0.77       1.0  T
   5   -215.6738959 -0.281423E-05  0.488E-03    0.77       1.8  T
   6   -215.6738973 -0.145948E-05  0.195E-03    0.77       4.6  T
   7   -215.6738976 -0.274656E-06  0.106E-03    0.77       8.5  T
     SCC iter.                  ...        0 min,  0.214 sec
     gradient                   ...        0 min,  0.030 sec
 * total energy  :  -212.4387409 Eh     change       -0.6961068E-03 Eh
   gradient norm :     0.0129880 Eh/α   predicted    -0.6858778E-03 (  -1.47%)
   displ. norm   :     0.7336901 α      lambda       -0.9533050E-03
   maximum displ.:     0.3861649 α      in ANC's #7, #4, #13, ...

........................................................................
.............................. CYCLE   35 ..............................
........................................................................
   1   -215.6687311 -0.215669E+03  0.166E-01    0.77       0.0  T
   2   -215.6687561 -0.249913E-04  0.903E-02    0.77       1.0  T
   3   -215.6686872  0.689074E-04  0.252E-02    0.76       1.0  T
   4   -215.6687578 -0.705829E-04  0.122E-02    0.77       1.0  T
   5   -215.6687678 -0.100564E-04  0.507E-03    0.77       1.8  T
   6   -215.6687696 -0.179005E-05  0.215E-03    0.77       4.2  T
   7   -215.6687700 -0.387900E-06  0.125E-03    0.77       7.2  T
     SCC iter.                  ...        0 min,  0.332 sec
     gradient                   ...        0 min,  0.033 sec
 * total energy  :  -212.4394000 Eh     change       -0.6591409E-03 Eh
   gradient norm :     0.0091741 Eh/α   predicted    -0.7332387E-03 (  11.24%)
   displ. norm   :     0.5887715 α      lambda       -0.8465869E-03
   maximum displ.:     0.3295229 α      in ANC's #7, #4, #12, ...

........................................................................
.............................. CYCLE   36 ..............................
........................................................................
   1   -215.6748352 -0.215675E+03  0.118E-01    0.78       0.0  T
   2   -215.6748523 -0.170570E-04  0.646E-02    0.77       1.0  T
   3   -215.6748015  0.507974E-04  0.214E-02    0.79       1.0  T
   4   -215.6748559 -0.543724E-04  0.880E-03    0.77       1.0  T
   5   -215.6748609 -0.499991E-05  0.413E-03    0.78       2.2  T
   6   -215.6748619 -0.107402E-05  0.198E-03    0.78       4.6  T
   7   -215.6748622 -0.291196E-06  0.107E-03    0.78       8.4  T
     SCC iter.                  ...        0 min,  0.191 sec
     gradient                   ...        0 min,  0.030 sec
 * total energy  :  -212.4398238 Eh     change       -0.4237964E-03 Eh
   gradient norm :     0.0156786 Eh/α   predicted    -0.5700350E-03 (  34.51%)
   displ. norm   :     0.5253569 α      lambda       -0.9106072E-03
   maximum displ.:     0.2900940 α      in ANC's #7, #4, #12, ...

........................................................................
.............................. CYCLE   37 ..............................
........................................................................
   1   -215.6790052 -0.215679E+03  0.108E-01    0.79       0.0  T
   2   -215.6790181 -0.129309E-04  0.587E-02    0.78       1.0  T
   3   -215.6789769  0.411697E-04  0.201E-02    0.79       1.0  T
   4   -215.6790236 -0.466994E-04  0.725E-03    0.78       1.2  T
   5   -215.6790249 -0.123324E-05  0.409E-03    0.78       2.2  T
   6   -215.6790266 -0.173059E-05  0.163E-03    0.78       5.5  T
   7   -215.6790268 -0.139715E-06  0.100E-03    0.78       9.0  T
     SCC iter.                  ...        0 min,  0.199 sec
     gradient                   ...        0 min,  0.030 sec
 * total energy  :  -212.4403830 Eh     change       -0.5591660E-03 Eh
   gradient norm :     0.0139570 Eh/α   predicted    -0.5809667E-03 (   3.90%)
   displ. norm   :     0.6118920 α      lambda       -0.7843832E-03
   maximum displ.:     0.3329225 α      in ANC's #7, #4, #12, ...

........................................................................
.............................. CYCLE   38 ..............................
........................................................................
   1   -215.6695729 -0.215670E+03  0.143E-01    0.78       0.0  T
   2   -215.6695972 -0.243679E-04  0.771E-02    0.78       1.0  T
   3   -215.6695426  0.545911E-04  0.225E-02    0.78       1.0  T
   4   -215.6696042 -0.615297E-04  0.937E-03    0.78       1.0  T
   5   -215.6696083 -0.409717E-05  0.456E-03    0.78       2.0  T
   6   -215.6696097 -0.141153E-05  0.204E-03    0.78       4.4  T
   7   -215.6696100 -0.294915E-06  0.123E-03    0.78       7.3  T
     SCC iter.                  ...        0 min,  0.224 sec
     gradient                   ...        0 min,  0.030 sec
 * total energy  :  -212.4408933 Eh     change       -0.5103352E-03 Eh
   gradient norm :     0.0156976 Eh/α   predicted    -0.5390373E-03 (   5.62%)
   displ. norm   :     0.6119336 α      lambda        0.1262415E-03
   maximum displ.:     0.3329296 α      in ANC's #7, #4, #12, ...

........................................................................
.............................. CYCLE   39 ..............................
........................................................................
   1   -215.6559838 -0.215656E+03  0.143E-01    0.78       0.0  T
   2   -215.6560089 -0.250595E-04  0.771E-02    0.78       1.0  T
   3   -215.6559492  0.597243E-04  0.235E-02    0.78       1.0  T
   4   -215.6560171 -0.678954E-04  0.929E-03    0.78       1.0  T
   5   -215.6560205 -0.343324E-05  0.467E-03    0.78       1.9  T
   6   -215.6560220 -0.147557E-05  0.216E-03    0.78       4.2  T
   7   -215.6560223 -0.347023E-06  0.131E-03    0.78       6.9  T
     SCC iter.                  ...        0 min,  0.223 sec
     gradient                   ...        0 min,  0.030 sec
 * total energy  :  -212.4407446 Eh     change        0.1486755E-03 Eh
   gradient norm :     0.0399449 Eh/α   predicted     0.8675261E-04 ( -41.65%)
   displ. norm   :     0.2844224 α      lambda       -0.1386583E-02
   maximum displ.:     0.1406407 α      in ANC's #7, #4, #12, ...

........................................................................
.............................. CYCLE   40 ..............................
........................................................................
   1   -215.6699607 -0.215670E+03  0.799E-02    0.79       0.0  T
   2   -215.6699738 -0.131035E-04  0.449E-02    0.79       1.0  T
   3   -215.6699238  0.500221E-04  0.193E-02    0.79       1.0  T
   4   -215.6699805 -0.566729E-04  0.426E-03    0.79       2.1  T
   5   -215.6699815 -0.107682E-05  0.236E-03    0.79       3.8  T
   6   -215.6699818 -0.300151E-06  0.130E-03    0.79       6.9  T
     SCC iter.                  ...        0 min,  0.176 sec
     gradient                   ...        0 min,  0.033 sec
 * total energy  :  -212.4415321 Eh     change       -0.7875231E-03 Eh
   gradient norm :     0.0153812 Eh/α   predicted    -0.7493751E-03 (  -4.84%)
   displ. norm   :     0.3998048 α      lambda       -0.1057161E-02
   maximum displ.:     0.1959123 α      in ANC's #7, #4, #12, ...

........................................................................
.............................. CYCLE   41 ..............................
........................................................................
   1   -215.6882562 -0.215688E+03  0.104E-01    0.80       0.0  T
   2   -215.6882776 -0.214470E-04  0.575E-02    0.79       1.0  T
   3   -215.6881499  0.127748E-03  0.315E-02    0.81       1.0  T
   4   -215.6882948 -0.144934E-03  0.638E-03    0.80       1.4  T
   5   -215.6882970 -0.214795E-05  0.351E-03    0.80       2.6  T
   6   -215.6882976 -0.615436E-06  0.188E-03    0.80       4.8  T
   7   -215.6882979 -0.271055E-06  0.884E-04    0.80      10.2  T
     SCC iter.                  ...        0 min,  0.207 sec
     gradient                   ...        0 min,  0.034 sec
 * total energy  :  -212.4417437 Eh     change       -0.2115754E-03 Eh
   gradient norm :     0.0259989 Eh/α   predicted    -0.6130734E-03 ( 189.77%)
   displ. norm   :     0.4650443 α      lambda       -0.8965933E-03
   maximum displ.:     0.2456045 α      in ANC's #7, #4, #12, ...

........................................................................
.............................. CYCLE   42 ..............................
........................................................................
   1   -215.6819249 -0.215682E+03  0.101E-01    0.79       0.0  T
   2   -215.6819365 -0.116196E-04  0.549E-02    0.80       1.0  T
   3   -215.6818527  0.838095E-04  0.245E-02    0.79       1.0  T
   4   -215.6819462 -0.934570E-04  0.684E-03    0.80       1.3  T
   5   -215.6819471 -0.991304E-06  0.387E-03    0.80       2.3  T
   6   -215.6819482 -0.102748E-05  0.159E-03    0.80       5.7  T
     SCC iter.                  ...        0 min,  0.301 sec
     gradient                   ...        0 min,  0.034 sec
 * total energy  :  -212.4424305 Eh     change       -0.6867712E-03 Eh
   gradient norm :     0.0102240 Eh/α   predicted    -0.5452514E-03 ( -20.61%)
   displ. norm   :     0.7130411 α      lambda       -0.7519419E-03
   maximum displ.:     0.3827902 α      in ANC's #7, #4, #12, ...
 * RMSD in coord.:     0.8816516 α      energy gain  -0.1654732E-01 Eh

generating ANC from model Hessian ...
Using Lindh-Hessian (1995)
 Shifting diagonal of input Hessian by   4.997111533883759E-003
 Lowest  eigenvalues of input Hessian
   -0.000000   -0.000000   -0.000000   -0.000000    0.000000    0.000000
    0.005000    0.005002    0.005007    0.005029    0.005067    0.005082
    0.005141    0.005213    0.005260    0.005289    0.005390    0.005531
 Highest eigenvalues
    2.267927    2.277850    2.598399    2.602784    2.642607    2.644156
 

........................................................................
.............................. CYCLE   43 ..............................
........................................................................
   1   -215.6744693 -0.215674E+03  0.136E-01    0.79       0.0  T
   2   -215.6744882 -0.189922E-04  0.737E-02    0.80       1.0  T
   3   -215.6743942  0.940130E-04  0.263E-02    0.79       1.0  T
   4   -215.6744975 -0.103283E-03  0.973E-03    0.80       1.0  T
   5   -215.6745015 -0.401972E-05  0.509E-03    0.80       1.8  T
   6   -215.6745032 -0.167293E-05  0.216E-03    0.80       4.2  T
   7   -215.6745034 -0.224373E-06  0.143E-03    0.80       6.3  T
   8   -215.6745035 -0.309559E-07  0.956E-04    0.80       9.4  T
   9   -215.6745035 -0.235832E-07  0.566E-04    0.80      15.9  T
     SCC iter.                  ...        0 min,  0.724 sec
     gradient                   ...        0 min,  0.040 sec
 * total energy  :  -212.4430688 Eh     change       -0.6382954E-03 Eh
   gradient norm :     0.0086761 Eh/α   predicted     0.0000000E+00 (-100.00%)
   displ. norm   :     0.2279927 α      lambda       -0.5078122E-03
   maximum displ.:     0.1089245 α      in ANC's #7, #4, #37, ...

........................................................................
.............................. CYCLE   44 ..............................
........................................................................
   1   -215.6772068 -0.215677E+03  0.791E-02    0.80       0.0  T
   2   -215.6772137 -0.688620E-05  0.431E-02    0.80       1.0  T
   3   -215.6771944  0.193142E-04  0.127E-02    0.80       1.0  T
   4   -215.6772171 -0.226764E-04  0.417E-03    0.80       2.2  T
   5   -215.6772176 -0.487236E-06  0.240E-03    0.80       3.8  T
   6   -215.6772181 -0.497868E-06  0.883E-04    0.80      10.2  T
     SCC iter.                  ...        0 min,  0.506 sec
     gradient                   ...        0 min,  0.038 sec
 * total energy  :  -212.4434458 Eh     change       -0.3770638E-03 Eh
   gradient norm :     0.0049842 Eh/α   predicted    -0.2673409E-03 ( -29.10%)
   displ. norm   :     0.3583062 α      lambda       -0.7550847E-03
   maximum displ.:     0.1566714 α      in ANC's #37, #7, #4, ...

........................................................................
.............................. CYCLE   45 ..............................
........................................................................
   1   -215.6809944 -0.215681E+03  0.124E-01    0.80       0.0  T
   2   -215.6810099 -0.155605E-04  0.684E-02    0.81       1.0  T
   3   -215.6809111  0.988137E-04  0.257E-02    0.79       1.0  T
   4   -215.6810205 -0.109368E-03  0.726E-03    0.80       1.2  T
   5   -215.6810226 -0.214420E-05  0.356E-03    0.80       2.5  T
   6   -215.6810234 -0.815308E-06  0.131E-03    0.80       6.9  T
   7   -215.6810235 -0.102138E-06  0.783E-04    0.80      11.5  T
     SCC iter.                  ...        0 min,  0.500 sec
     gradient                   ...        0 min,  0.030 sec
 * total energy  :  -212.4437297 Eh     change       -0.2838488E-03 Eh
   gradient norm :     0.0150268 Eh/α   predicted    -0.4260126E-03 (  50.08%)
   displ. norm   :     0.3127331 α      lambda       -0.7529104E-03
   maximum displ.:     0.1371174 α      in ANC's #7, #37, #4, ...

........................................................................
.............................. CYCLE   46 ..............................
........................................................................
   1   -215.6804429 -0.215680E+03  0.120E-01    0.80       0.0  T
   2   -215.6804580 -0.150638E-04  0.667E-02    0.80       1.0  T
   3   -215.6804177  0.402354E-04  0.172E-02    0.79       1.0  T
   4   -215.6804653 -0.475179E-04  0.563E-03    0.80       1.6  T
   5   -215.6804668 -0.155647E-05  0.316E-03    0.80       2.9  T
   6   -215.6804674 -0.565178E-06  0.132E-03    0.80       6.8  T
   7   -215.6804675 -0.134786E-06  0.711E-04    0.80      12.7  T
     SCC iter.                  ...        0 min,  0.215 sec
     gradient                   ...        0 min,  0.030 sec
 * total energy  :  -212.4439557 Eh     change       -0.2260073E-03 Eh
   gradient norm :     0.0152073 Eh/α   predicted    -0.4132753E-03 (  82.86%)
   displ. norm   :     0.2758023 α      lambda       -0.1078219E-02
   maximum displ.:     0.1236591 α      in ANC's #7, #4, #5, ...

........................................................................
.............................. CYCLE   47 ..............................
........................................................................
   1   -215.6757184 -0.215676E+03  0.129E-01    0.80       0.0  T
   2   -215.6757377 -0.192706E-04  0.713E-02    0.80       1.0  T
   3   -215.6756754  0.622958E-04  0.230E-02    0.80       1.0  T
   4   -215.6757504 -0.749881E-04  0.486E-03    0.80       1.9  T
   5   -215.6757507 -0.273681E-06  0.302E-03    0.80       3.0  T
   6   -215.6757513 -0.647173E-06  0.134E-03    0.80       6.7  T
   7   -215.6757514 -0.122357E-06  0.745E-04    0.80      12.1  T
     SCC iter.                  ...        0 min,  0.207 sec
     gradient                   ...        0 min,  0.033 sec
 * total energy  :  -212.4443190 Eh     change       -0.3633010E-03 Eh
   gradient norm :     0.0116421 Eh/α   predicted    -0.5801191E-03 (  59.68%)
   displ. norm   :     0.2395358 α      lambda       -0.7140941E-03
   maximum displ.:     0.1128714 α      in ANC's #7, #4, #45, ...

........................................................................
.............................. CYCLE   48 ..............................
........................................................................
   1   -215.6775303 -0.215678E+03  0.101E-01    0.80       0.0  T
   2   -215.6775396 -0.938496E-05  0.559E-02    0.80       1.0  T
   3   -215.6774356  0.104033E-03  0.274E-02    0.79       1.0  T
   4   -215.6775523 -0.116716E-03  0.396E-03    0.80       2.3  T
   5   -215.6775528 -0.468727E-06  0.256E-03    0.80       3.5  T
   6   -215.6775533 -0.535687E-06  0.104E-03    0.80       8.7  T
     SCC iter.                  ...        0 min,  0.170 sec
     gradient                   ...        0 min,  0.030 sec
 * total energy  :  -212.4446447 Eh     change       -0.3257267E-03 Eh
   gradient norm :     0.0137672 Eh/α   predicted    -0.3775332E-03 (  15.90%)
   displ. norm   :     0.3624147 α      lambda       -0.7244017E-03
   maximum displ.:     0.1794781 α      in ANC's #7, #4, #5, ...

........................................................................
.............................. CYCLE   49 ..............................
........................................................................
   1   -215.6797096 -0.215680E+03  0.110E-01    0.80       0.0  T
   2   -215.6797253 -0.157579E-04  0.595E-02    0.80       1.0  T
   3   -215.6796934  0.319151E-04  0.161E-02    0.80       1.0  T
   4   -215.6797290 -0.355439E-04  0.710E-03    0.81       1.3  T
   5   -215.6797326 -0.367960E-05  0.357E-03    0.80       2.5  T
   6   -215.6797335 -0.906304E-06  0.140E-03    0.80       6.5  T
   7   -215.6797337 -0.146525E-06  0.808E-04    0.80      11.2  T
     SCC iter.                  ...        0 min,  0.206 sec
     gradient                   ...        0 min,  0.030 sec
 * total energy  :  -212.4450001 Eh     change       -0.3553266E-03 Eh
   gradient norm :     0.0091266 Eh/α   predicted    -0.4097753E-03 (  15.32%)
   displ. norm   :     0.4029596 α      lambda       -0.5026012E-03
   maximum displ.:     0.2116004 α      in ANC's #7, #4, #5, ...

........................................................................
.............................. CYCLE   50 ..............................
........................................................................
   1   -215.6787664 -0.215679E+03  0.103E-01    0.80       0.0  T
   2   -215.6787777 -0.113164E-04  0.556E-02    0.81       1.0  T
   3   -215.6787454  0.323136E-04  0.169E-02    0.80       1.0  T
   4   -215.6787808 -0.354557E-04  0.725E-03    0.81       1.2  T
   5   -215.6787836 -0.276456E-05  0.350E-03    0.81       2.6  T
   6   -215.6787845 -0.849292E-06  0.157E-03    0.81       5.7  T
   7   -215.6787847 -0.213844E-06  0.902E-04    0.81      10.0  T
     SCC iter.                  ...        0 min,  0.197 sec
     gradient                   ...        0 min,  0.036 sec
 * total energy  :  -212.4453808 Eh     change       -0.3807178E-03 Eh
   gradient norm :     0.0106418 Eh/α   predicted    -0.2921072E-03 ( -23.27%)
   displ. norm   :     0.5524599 α      lambda       -0.7320656E-03
   maximum displ.:     0.2954140 α      in ANC's #7, #4, #5, ...

........................................................................
.............................. CYCLE   51 ..............................
........................................................................
   1   -215.6765414 -0.215677E+03  0.141E-01    0.80       0.0  T
   2   -215.6765645 -0.230836E-04  0.750E-02    0.81       1.0  T
   3   -215.6765404  0.241509E-04  0.183E-02    0.81       1.0  T
   4   -215.6765689 -0.285031E-04  0.941E-03    0.81       1.0  T
   5   -215.6765734 -0.452200E-05  0.410E-03    0.81       2.2  T
   6   -215.6765747 -0.133704E-05  0.193E-03    0.81       4.7  T
   7   -215.6765750 -0.236417E-06  0.127E-03    0.81       7.1  T
     SCC iter.                  ...        0 min,  0.231 sec
     gradient                   ...        0 min,  0.034 sec
 * total energy  :  -212.4458920 Eh     change       -0.5112101E-03 Eh
   gradient norm :     0.0114837 Eh/α   predicted    -0.4777507E-03 (  -6.55%)
   displ. norm   :     0.6202554 α      lambda       -0.6442981E-03
   maximum displ.:     0.3306664 α      in ANC's #7, #4, #5, ...

........................................................................
.............................. CYCLE   52 ..............................
........................................................................
   1   -215.6751910 -0.215675E+03  0.142E-01    0.81       0.0  T
   2   -215.6752115 -0.204535E-04  0.758E-02    0.81       1.0  T
   3   -215.6751407  0.707633E-04  0.246E-02    0.81       1.0  T
   4   -215.6752163 -0.755920E-04  0.110E-02    0.81       1.0  T
   5   -215.6752227 -0.633654E-05  0.554E-03    0.81       1.6  T
   6   -215.6752252 -0.255872E-05  0.241E-03    0.81       3.7  T
   7   -215.6752257 -0.490664E-06  0.139E-03    0.81       6.5  T
     SCC iter.                  ...        0 min,  0.360 sec
     gradient                   ...        0 min,  0.034 sec
 * total energy  :  -212.4464835 Eh     change       -0.5915015E-03 Eh
   gradient norm :     0.0122653 Eh/α   predicted    -0.4460882E-03 ( -24.58%)
   displ. norm   :     0.7350700 α      lambda       -0.8904412E-03
   maximum displ.:     0.4042044 α      in ANC's #7, #4, #5, ...

........................................................................
.............................. CYCLE   53 ..............................
........................................................................
   1   -215.6807996 -0.215681E+03  0.160E-01    0.82       0.0  T
   2   -215.6808281 -0.284980E-04  0.852E-02    0.82       1.0  T
   3   -215.6807544  0.737043E-04  0.271E-02    0.82       1.0  T
   4   -215.6808331 -0.786759E-04  0.126E-02    0.82       1.0  T
   5   -215.6808406 -0.745406E-05  0.607E-03    0.82       1.5  T
   6   -215.6808444 -0.385308E-05  0.267E-03    0.82       3.4  T
   7   -215.6808450 -0.586550E-06  0.156E-03    0.82       5.8  T
   8   -215.6808450 -0.705109E-08  0.107E-03    0.82       8.4  T
     SCC iter.                  ...        0 min,  0.231 sec
     gradient                   ...        0 min,  0.030 sec
 * total energy  :  -212.4472821 Eh     change       -0.7985820E-03 Eh
   gradient norm :     0.0087106 Eh/α   predicted    -0.6857878E-03 ( -14.12%)
   displ. norm   :     0.8248592 α      lambda       -0.1024699E-02
   maximum displ.:     0.4678252 α      in ANC's #7, #4, #5, ...

........................................................................
.............................. CYCLE   54 ..............................
........................................................................
   1   -215.6796460 -0.215680E+03  0.188E-01    0.82       0.0  T
   2   -215.6796836 -0.375999E-04  0.100E-01    0.82       1.0  T
   3   -215.6795439  0.139729E-03  0.350E-02    0.82       1.0  T
   4   -215.6796923 -0.148431E-03  0.150E-02    0.83       1.0  T
   5   -215.6797037 -0.113601E-04  0.764E-03    0.82       1.2  T
   6   -215.6797096 -0.594794E-05  0.292E-03    0.82       3.1  T
   7   -215.6797102 -0.626503E-06  0.167E-03    0.82       5.4  T
   8   -215.6797102  0.125271E-07  0.115E-03    0.82       7.9  T
     SCC iter.                  ...        0 min,  0.266 sec
     gradient                   ...        0 min,  0.034 sec
 * total energy  :  -212.4481819 Eh     change       -0.8997858E-03 Eh
   gradient norm :     0.0098950 Eh/α   predicted    -0.8609494E-03 (  -4.32%)
   displ. norm   :     0.8119420 α      lambda       -0.1046785E-02
   maximum displ.:     0.4698763 α      in ANC's #7, #4, #5, ...

........................................................................
.............................. CYCLE   55 ..............................
........................................................................
   1   -215.6813910 -0.215681E+03  0.181E-01    0.83       0.0  T
   2   -215.6814253 -0.342464E-04  0.980E-02    0.83       1.0  T
   3   -215.6813122  0.113082E-03  0.332E-02    0.84       1.0  T
   4   -215.6814345 -0.122275E-03  0.140E-02    0.83       1.0  T
   5   -215.6814412 -0.667980E-05  0.739E-03    0.83       1.2  T
   6   -215.6814479 -0.675718E-05  0.283E-03    0.83       3.2  T
   7   -215.6814485 -0.593641E-06  0.162E-03    0.83       5.6  T
   8   -215.6814485  0.876128E-08  0.110E-03    0.83       8.2  T
     SCC iter.                  ...        0 min,  0.264 sec
     gradient                   ...        0 min,  0.030 sec
 * total energy  :  -212.4491478 Eh     change       -0.9659295E-03 Eh
   gradient norm :     0.0092262 Eh/α   predicted    -0.8684455E-03 ( -10.09%)
   displ. norm   :     0.8204764 α      lambda       -0.1084039E-02
   maximum displ.:     0.4848035 α      in ANC's #7, #4, #5, ...

........................................................................
.............................. CYCLE   56 ..............................
........................................................................
   1   -215.6819380 -0.215682E+03  0.183E-01    0.83       0.0  T
   2   -215.6819726 -0.345874E-04  0.994E-02    0.83       1.0  T
   3   -215.6818361  0.136421E-03  0.350E-02    0.84       1.0  T
   4   -215.6819835 -0.147354E-03  0.141E-02    0.83       1.0  T
   5   -215.6819911 -0.759346E-05  0.733E-03    0.83       1.2  T
   6   -215.6819975 -0.644061E-05  0.282E-03    0.83       3.2  T
   7   -215.6819981 -0.608749E-06  0.157E-03    0.83       5.7  T
   8   -215.6819981  0.260908E-08  0.108E-03    0.83       8.3  T
     SCC iter.                  ...        0 min,  0.264 sec
     gradient                   ...        0 min,  0.030 sec
 * total energy  :  -212.4501419 Eh     change       -0.9941177E-03 Eh
   gradient norm :     0.0078949 Eh/α   predicted    -0.9068988E-03 (  -8.77%)
   displ. norm   :     0.8437243 α      lambda       -0.1024826E-02
   maximum displ.:     0.5025192 α      in ANC's #7, #4, #5, ...

........................................................................
.............................. CYCLE   57 ..............................
........................................................................
   1   -215.6756123 -0.215676E+03  0.189E-01    0.83       0.0  T
   2   -215.6756458 -0.334624E-04  0.103E-01    0.83       1.0  T
   3   -215.6755345  0.111326E-03  0.322E-02    0.83       1.0  T
   4   -215.6756551 -0.120670E-03  0.139E-02    0.84       1.0  T
   5   -215.6756618 -0.663965E-05  0.736E-03    0.83       1.2  T
   6   -215.6756686 -0.682657E-05  0.252E-03    0.83       3.6  T
   7   -215.6756690 -0.357004E-06  0.157E-03    0.83       5.7  T
   8   -215.6756690 -0.110045E-07  0.981E-04    0.83       9.2  T
     SCC iter.                  ...        0 min,  0.269 sec
     gradient                   ...        0 min,  0.198 sec
 * total energy  :  -212.4510675 Eh     change       -0.9256165E-03 Eh
   gradient norm :     0.0089798 Eh/α   predicted    -0.8771872E-03 (  -5.23%)
   displ. norm   :     0.8033648 α      lambda       -0.9669287E-03
   maximum displ.:     0.4946802 α      in ANC's #7, #4, #5, ...

........................................................................
.............................. CYCLE   58 ..............................
........................................................................
   1   -215.6789160 -0.215679E+03  0.175E-01    0.83       0.0  T
   2   -215.6789502 -0.341372E-04  0.953E-02    0.83       1.0  T
   3   -215.6787938  0.156320E-03  0.348E-02    0.83       1.0  T
   4   -215.6789625 -0.168645E-03  0.130E-02    0.83       1.0  T
   5   -215.6789704 -0.796747E-05  0.652E-03    0.83       1.4  T
   6   -215.6789752 -0.471539E-05  0.264E-03    0.83       3.4  T
   7   -215.6789757 -0.580619E-06  0.139E-03    0.83       6.5  T
   8   -215.6789758 -0.181689E-07  0.991E-04    0.83       9.1  T
     SCC iter.                  ...        0 min,  0.244 sec
     gradient                   ...        0 min,  0.030 sec
 * total energy  :  -212.4518842 Eh     change       -0.8167252E-03 Eh
   gradient norm :     0.0081578 Eh/α   predicted    -0.7954969E-03 (  -2.60%)
   displ. norm   :     0.8321136 α      lambda       -0.9343725E-03
   maximum displ.:     0.4987667 α      in ANC's #7, #4, #5, ...

........................................................................
.............................. CYCLE   59 ..............................
........................................................................
   1   -215.6726539 -0.215673E+03  0.174E-01    0.83       0.0  T
   2   -215.6726890 -0.350972E-04  0.962E-02    0.83       1.0  T
   3   -215.6725847  0.104334E-03  0.302E-02    0.83       1.0  T
   4   -215.6726973 -0.112598E-03  0.131E-02    0.83       1.0  T
   5   -215.6727056 -0.829624E-05  0.725E-03    0.83       1.2  T
   6   -215.6727105 -0.488386E-05  0.272E-03    0.83       3.3  T
   7   -215.6727110 -0.572801E-06  0.161E-03    0.83       5.6  T
   8   -215.6727111 -0.394602E-07  0.107E-03    0.83       8.4  T
     SCC iter.                  ...        0 min,  0.242 sec
     gradient                   ...        0 min,  0.035 sec
 * total energy  :  -212.4526176 Eh     change       -0.7333188E-03 Eh
   gradient norm :     0.0139045 Eh/α   predicted    -0.7906761E-03 (   7.82%)
   displ. norm   :     0.6996977 α      lambda       -0.9054822E-03
   maximum displ.:     0.4428632 α      in ANC's #7, #4, #5, ...

........................................................................
.............................. CYCLE   60 ..............................
........................................................................
   1   -215.6742713 -0.215674E+03  0.147E-01    0.83       0.0  T
   2   -215.6742946 -0.233144E-04  0.806E-02    0.83       1.0  T
   3   -215.6742020  0.926124E-04  0.265E-02    0.83       1.0  T
   4   -215.6743030 -0.101023E-03  0.948E-03    0.83       1.0  T
   5   -215.6743069 -0.388762E-05  0.497E-03    0.83       1.8  T
   6   -215.6743099 -0.298331E-05  0.206E-03    0.83       4.4  T
   7   -215.6743102 -0.344722E-06  0.110E-03    0.83       8.2  T
     SCC iter.                  ...        0 min,  0.203 sec
     gradient                   ...        0 min,  0.030 sec
 * total energy  :  -212.4533687 Eh     change       -0.7511273E-03 Eh
   gradient norm :     0.0144808 Eh/α   predicted    -0.6743953E-03 ( -10.22%)
   displ. norm   :     0.7177126 α      lambda       -0.9471214E-03
   maximum displ.:     0.4587938 α      in ANC's #7, #4, #5, ...

........................................................................
.............................. CYCLE   61 ..............................
........................................................................
[...]
    84   1 H      0.923     0.050     2.323     2.383
    85   1 H      0.860     0.139     1.480     1.906
    86   1 H      0.860     0.151     1.394     1.849
    87   1 H      0.924     0.034     2.524     2.485
    88   1 H      0.924     0.031     2.566     2.505
    89   1 H      0.924     0.033     2.544     2.495
    90   1 H      0.924     0.030     2.585     2.514
    91   1 H      0.923     0.043     2.406     2.426
    92   1 H      0.860     0.140     1.472     1.901
    93   1 H      0.860     0.140     1.470     1.900
    94   1 H      0.925     0.060     2.200     2.320
    95   1 H      0.926     0.099     1.796     2.096
    96   1 H      0.923     0.041     2.434     2.440
    97   1 H      0.860     0.140     1.468     1.898
    98   1 H      0.860     0.140     1.474     1.902
    99   1 H      0.924     0.029     2.604     2.524
   100   1 H      0.924     0.031     2.572     2.508
   101   1 H      0.924     0.031     2.567     2.505
   102   1 H      0.924     0.029     2.606     2.525
   103   1 H      0.923     0.040     2.443     2.444
   104   1 H      0.860     0.141     1.463     1.895
   105   1 H      0.860     0.139     1.477     1.904
   106   1 H      0.926     0.102     1.768     2.079
   107   1 H      0.925     0.059     2.214     2.327
   108   1 H      0.923     0.046     2.367     2.406
   109   1 H      0.860     0.139     1.478     1.905
   110   1 H      0.860     0.141     1.461     1.893
   111   1 H      0.924     0.031     2.574     2.509
   112   1 H      0.924     0.031     2.577     2.511
   113   1 H      0.924     0.035     2.517     2.481
   114   1 H      0.924     0.032     2.559     2.502
   115   1 H      0.923     0.038     2.478     2.462
   116   1 H      0.860     0.146     1.432     1.875
   117   1 H      0.860     0.146     1.431     1.874
   118   1 H      0.926     0.075     2.037     2.232
   119   1 H      0.925     0.058     2.218     2.329
   120   1 H      0.925     0.074     2.039     2.233
   121   1 H      0.926     0.067     2.123     2.278
   122   1 H      0.926     0.061     2.185     2.312
   123   1 H      0.926     0.067     2.123     2.279

 Mol. C6AA /au·bohr⁶  :     269537.596143
 Mol. C8AA /au·bohr⁸  :    7811353.800178
 Mol. α(0) /au        :        825.624870


Wiberg/Mayer (AO) data.
largest (>0.10) Wiberg bond orders for each atom
          total WBO             WBO to atom ...
     1  C   3.964        C    2 1.467    C   19 1.152    C    7 1.087
     2  C   3.929        C    1 1.467    C    5 1.101    C    3 1.101
     3  C   3.944        N    4 2.756    C    2 1.101
     4  N   2.962        C    3 2.756
     5  C   3.944        N    6 2.745    C    2 1.101
     6  N   2.958        C    5 2.745
     7  C   3.976        C   12 1.431    C    8 1.249    C    1 1.087
     8  C   3.977        C    9 1.478    C    7 1.249    C   17 1.018
     9  C   3.969        C    8 1.478    C   10 1.311    H   80 0.962
    10  C   3.974        C    9 1.311    C   11 1.273    C   15 1.202
    11  C   3.948        C   12 1.374    C   10 1.273    S   13 1.115
    12  C   3.970        C    7 1.431    C   11 1.374    H   81 0.958
    13  S   2.555        C   14 1.133    C   11 1.115
    14  C   3.900        C   15 1.612    S   13 1.133    Br  16 1.024
    15  C   3.975        C   14 1.612    C   10 1.202    H   82 0.959
    16  Br  1.163        C   14 1.024
    17  C   3.918        O   18 1.713    C   19 1.071    C    8 1.018
    18  O   2.103        C   17 1.713    S   22 0.117
    19  C   3.950        C   20 1.468    C    1 1.152    C   17 1.071
    20  C   3.939        C   19 1.468    C   21 1.323    H   83 0.925
    21  C   3.930        C   20 1.323    C   25 1.305    S   22 1.120
    22  S   2.744        C   23 1.181    C   21 1.120    O   18 0.117
    23  C   3.936        C   24 1.332    C   32 1.229    S   22 1.181
    24  C   3.945        C   25 1.415    C   23 1.332    C   30 0.992
    25  C   3.961        C   24 1.415    C   21 1.305    C   26 0.993
    26  C   3.984        N   27 1.010    C   25 0.993    C   28 0.981    H   84 0.947
    27  N   3.023        C   26 1.010    H   85 0.965    H   86 0.962
    28  C   3.997        C   29 1.008    C   26 0.981    H   87 0.977    H   88 0.975
    29  C   3.997        C   28 1.008    C   30 0.980    H   90 0.977    H   89 0.976
    30  C   3.984        N   31 1.011    C   24 0.992    C   29 0.980    H   91 0.948
    31  N   3.014        C   30 1.011    H   92 0.965    H   93 0.965
    32  C   3.951        C   33 1.601    C   23 1.229    H   94 0.951
    33  C   3.937        C   32 1.601    C   34 1.227    H   95 0.935
    34  C   3.918        C   38 1.389    C   33 1.227    S   35 1.124
    35  S   2.577        C   36 1.124    C   34 1.124
    36  C   3.918        C   37 1.388    C   45 1.227    S   35 1.124
    37  C   3.938        C   36 1.388    C   38 1.345    C   43 0.992
    38  C   3.939        C   34 1.389    C   37 1.345    C   39 0.993
    39  C   3.984        N   40 1.010    C   38 0.993    C   41 0.981    H   96 0.949
    40  N   3.017        C   39 1.010    H   97 0.966    H   98 0.965
    41  C   3.997        C   42 1.008    C   39 0.981    H   99 0.976    H  100 0.976
    42  C   3.997        C   41 1.008    C   43 0.981    H  102 0.977    H  101 0.976
    43  C   3.985        N   44 1.010    C   37 0.992    C   42 0.981    H  103 0.949
    44  N   3.017        C   43 1.010    H  104 0.965    H  105 0.965
    45  C   3.938        C   46 1.599    C   36 1.227    H  106 0.932
    46  C   3.950        C   45 1.599    C   47 1.229    H  107 0.952
    47  C   3.915        C   51 1.367    C   46 1.229    S   48 1.146
    48  S   2.577        C   47 1.146    C   49 1.116
    49  C   3.927        C   50 1.361    C   58 1.265    S   48 1.116
    50  C   3.950        C   51 1.367    C   49 1.361    C   56 0.994
    51  C   3.938        C   47 1.367    C   50 1.367    C   52 0.992
    52  C   3.984        N   53 1.009    C   51 0.992    C   54 0.981    H  108 0.948
    53  N   3.016        C   52 1.009    H  109 0.965    H  110 0.964
    54  C   3.997        C   55 1.008    C   52 0.981    H  111 0.977    H  112 0.975
    55  C   3.997        C   54 1.008    C   56 0.981    H  113 0.976    H  114 0.976
    56  C   3.985        N   57 1.008    C   50 0.994    C   55 0.981    H  115 0.948
    57  N   3.020        C   56 1.008    H  117 0.962    H  116 0.962
    58  C   3.967        C   59 1.544    C   49 1.265    H  118 0.942
    59  C   3.953        C   58 1.544    C   60 1.288    H  119 0.953
    60  C   3.937        C   61 1.500    C   59 1.288    H  120 0.953
    61  C   3.922        C   60 1.500    C   62 1.157    C   70 1.027
    62  C   3.969        C   63 1.460    C   61 1.157    C   68 1.079
    63  C   3.952        C   62 1.460    C   64 1.106    C   66 1.101
    64  C   3.944        N   65 2.750    C   63 1.106
    65  N   2.962        C   64 2.750
    66  C   3.945        N   67 2.757    C   63 1.101
    67  N   2.975        C   66 2.757
    68  C   3.979        C   75 1.433    C   69 1.249    C   62 1.079
    69  C   3.977        C   72 1.477    C   68 1.249    C   70 1.013
    70  C   3.922        O   71 1.766    C   61 1.027    C   69 1.013
    71  O   2.039        C   70 1.766
    72  C   3.971        C   69 1.477    C   73 1.313    H  121 0.962
    73  C   3.975        C   72 1.313    C   74 1.274    C   78 1.200
    74  C   3.948        C   75 1.373    C   73 1.274    S   76 1.115
    75  C   3.972        C   68 1.433    C   74 1.373    H  122 0.959
    76  S   2.552        C   77 1.130    C   74 1.115
    77  C   3.900        C   78 1.614    S   76 1.130    Br  79 1.024
    78  C   3.976        C   77 1.614    C   73 1.200    H  123 0.959
    79  Br  1.162        C   77 1.024
    80  H   0.995        C    9 0.962
    81  H   0.995        C   12 0.958
    82  H   0.995        C   15 0.959
    83  H   0.990        C   20 0.925
    84  H   0.996        C   26 0.947
    85  H   0.981        N   27 0.965
    86  H   0.976        N   27 0.962
    87  H   0.998        C   28 0.977
    88  H   0.999        C   28 0.975
    89  H   0.999        C   29 0.976
    90  H   0.998        C   29 0.977
    91  H   0.996        C   30 0.948
    92  H   0.980        N   31 0.965
    93  H   0.980        N   31 0.965
    94  H   0.995        C   32 0.951
    95  H   0.990        C   33 0.935
    96  H   0.995        C   39 0.949
    97  H   0.980        N   40 0.966
    98  H   0.980        N   40 0.965
    99  H   0.998        C   41 0.976
   100  H   0.999        C   41 0.976
   101  H   0.999        C   42 0.976
   102  H   0.998        C   42 0.977
   103  H   0.996        C   43 0.949
   104  H   0.980        N   44 0.965
   105  H   0.980        N   44 0.965
   106  H   0.989        C   45 0.932
   107  H   0.996        C   46 0.952
   108  H   0.996        C   52 0.948
   109  H   0.981        N   53 0.965
   110  H   0.979        N   53 0.964
   111  H   0.998        C   54 0.977
   112  H   0.999        C   54 0.975
   113  H   0.999        C   55 0.976
   114  H   0.998        C   55 0.976
   115  H   0.996        C   56 0.948
   116  H   0.979        N   57 0.962
   117  H   0.978        N   57 0.962
   118  H   0.994        C   58 0.942
   119  H   0.995        C   59 0.953
   120  H   0.991        C   60 0.953
   121  H   0.995        C   72 0.962
   122  H   0.995        C   75 0.959
   123  H   0.995        C   78 0.959

molecular dipole:
                 x           y           z       tot (Debye)
 q only:        1.299       0.696       5.565
   full:        2.127       0.854       7.355      19.580
molecular quadrupole (traceless):
                xx          xy          yy          xz          yz          zz
 q only:      -34.567     -62.318      14.041    -175.575     150.491      20.527
  q+dip:      -77.310     -62.243      37.881    -233.063     190.396      39.428
   full:      -73.129     -66.742      31.507    -244.295     193.025      41.621

           -------------------------------------------------
          |                Geometry Summary                 |
           -------------------------------------------------

      molecular mass/u    :     1257.1814000
   center of mass at/Å    :      -11.7716936       9.9143559      -4.0261599
  moments of inertia/u·Å² :        0.2840432E+05   0.9287520E+05   0.1190124E+06
rotational constants/cm⁻¹ :        0.5934883E-03   0.1815084E-03   0.1416460E-03

 * 116 selected distances

     #   Z        #   Z                                     value/Å
     1   6 C      2   6 C                                 1.3739347
     3   6 C      4   7 N                                 1.1488735
     5   6 C      6   7 N                                 1.1497712
     7   6 C      8   6 C                                 1.4162681
     8   6 C      9   6 C                                 1.3725776
     9   6 C     10   6 C                                 1.3994532
    10   6 C     11   6 C                                 1.4139212
     7   6 C     12   6 C                                 1.3817637
    11   6 C     12   6 C                                 1.3901207
    11   6 C     13  16 S                                 1.7384257
    13  16 S     14   6 C                                 1.7436141
    10   6 C     15   6 C                                 1.4222093
    14   6 C     15   6 C                                 1.3536932
    14   6 C     16  35 Br                                1.8762034
    17   6 C     18   8 O                                 1.2184054
    19   6 C     20   6 C                                 1.3751465
    20   6 C     21   6 C                                 1.3969904
    21   6 C     22  16 S                                 1.7411681
    22  16 S     23   6 C                                 1.7338214
    23   6 C     24   6 C                                 1.4024442
    21   6 C     25   6 C                                 1.4088577
    24   6 C     25   6 C                                 1.3911978
    26   6 C     27   7 N                                 1.4576086
    26   6 C     28   6 C                                 1.5359192
    28   6 C     29   6 C                                 1.5186889
    29   6 C     30   6 C                                 1.5382578
    30   6 C     31   7 N                                 1.4571538
    23   6 C     32   6 C                                 1.4171925
    32   6 C     33   6 C                                 1.3558108
    33   6 C     34   6 C                                 1.4152339
    34   6 C     35  16 S                                 1.7407012
    35  16 S     36   6 C                                 1.7407572
    36   6 C     37   6 C                                 1.3918404
    34   6 C     38   6 C                                 1.3916487
    37   6 C     38   6 C                                 1.4027424
    39   6 C     40   7 N                                 1.4580019
    39   6 C     41   6 C                                 1.5371747
    41   6 C     42   6 C                                 1.5197172
    42   6 C     43   6 C                                 1.5372467
    43   6 C     44   7 N                                 1.4584013
    36   6 C     45   6 C                                 1.4151473
    45   6 C     46   6 C                                 1.3558539
    46   6 C     47   6 C                                 1.4177363
    47   6 C     48  16 S                                 1.7382564
    48  16 S     49   6 C                                 1.7381012
    49   6 C     50   6 C                                 1.3961370
    47   6 C     51   6 C                                 1.3976351
    50   6 C     51   6 C                                 1.4009147
    52   6 C     53   7 N                                 1.4583025
    52   6 C     54   6 C                                 1.5383722
    54   6 C     55   6 C                                 1.5183913
    55   6 C     56   6 C                                 1.5352636
    56   6 C     57   7 N                                 1.4590477
    49   6 C     58   6 C                                 1.4061915
    58   6 C     59   6 C                                 1.3650641
    59   6 C     60   6 C                                 1.4072683
    60   6 C     61   6 C                                 1.3721740
    62   6 C     63   6 C                                 1.3739761
    64   6 C     65   7 N                                 1.1494687
    66   6 C     67   7 N                                 1.1486237
    68   6 C     69   6 C                                 1.4163403
    70   6 C     71   8 O                                 1.2117706
    69   6 C     72   6 C                                 1.3729303
    72   6 C     73   6 C                                 1.3996190
    73   6 C     74   6 C                                 1.4139723
    68   6 C     75   6 C                                 1.3808413
    74   6 C     75   6 C                                 1.3900122
    74   6 C     76  16 S                                 1.7386629
    76  16 S     77   6 C                                 1.7438027
    73   6 C     78   6 C                                 1.4226622
    77   6 C     78   6 C                                 1.3534052
    77   6 C     79  35 Br                                1.8764852 (max)
     9   6 C     80   1 H                                 1.0787109
    12   6 C     81   1 H                                 1.0770453
    15   6 C     82   1 H                                 1.0747330
    20   6 C     83   1 H                                 1.0812923
    26   6 C     84   1 H                                 1.0993009
    27   7 N     85   1 H                                 1.0143895
    27   7 N     86   1 H                                 1.0130715 (min)
    28   6 C     87   1 H                                 1.0921798
    28   6 C     88   1 H                                 1.0943395
    29   6 C     89   1 H                                 1.0940848
    29   6 C     90   1 H                                 1.0927848
    30   6 C     91   1 H                                 1.0999051
    31   7 N     92   1 H                                 1.0140783
    31   7 N     93   1 H                                 1.0137920
    32   6 C     94   1 H                                 1.0851116
    33   6 C     95   1 H                                 1.0754398
    39   6 C     96   1 H                                 1.1005063
    40   7 N     97   1 H                                 1.0149525
    40   7 N     98   1 H                                 1.0145341
    41   6 C     99   1 H                                 1.0930145
    41   6 C    100   1 H                                 1.0942888
    42   6 C    101   1 H                                 1.0942910
    42   6 C    102   1 H                                 1.0929937
    43   6 C    103   1 H                                 1.1005476
    44   7 N    104   1 H                                 1.0149842
    44   7 N    105   1 H                                 1.0145414
    45   6 C    106   1 H                                 1.0752986
    46   6 C    107   1 H                                 1.0850049
    52   6 C    108   1 H                                 1.0994972
    53   7 N    109   1 H                                 1.0142183
    53   7 N    110   1 H                                 1.0137912
    54   6 C    111   1 H                                 1.0924607
    54   6 C    112   1 H                                 1.0948085
    55   6 C    113   1 H                                 1.0936089
    55   6 C    114   1 H                                 1.0926435
    56   6 C    115   1 H                                 1.1011631
    57   7 N    116   1 H                                 1.0157277
    57   7 N    117   1 H                                 1.0151676
    58   6 C    118   1 H                                 1.0801668
    59   6 C    119   1 H                                 1.0830298
    60   6 C    120   1 H                                 1.0863355
    72   6 C    121   1 H                                 1.0786745
    75   6 C    122   1 H                                 1.0773540
    78   6 C    123   1 H                                 1.0747344

 * 7 distinct bonds (by element types)

   Z      Z             #   av. dist./Å        max./Å        min./Å
   1 H    6 C          32     1.0886047     1.1011631     1.0747330
   6 C    6 C          48     1.4189575     1.5383722     1.3534052
   1 H    7 N          12     1.0144374     1.0157277     1.0130715
   6 C    7 N          10     1.3345253     1.4590477     1.1486237
   6 C    8 O           2     1.2150880     1.2184054     1.2117706
   6 C   16 S          10     1.7397311     1.7438027     1.7338214
   6 C   35 Br          2     1.8763443     1.8764852     1.8762034


optimized geometry written to: xtbopt.xyz


           -------------------------------------------------
          | TOTAL ENERGY             -212.470752085219 Eh   |
          | GRADIENT NORM               0.000917440319 Eh/α |
          | HOMO-LUMO GAP               0.847581576366 eV   |
           -------------------------------------------------

------------------------------------------------------------------------
 * finished run on 2021/07/03 at 05:07:27.789     
------------------------------------------------------------------------
 total:
 * wall-time:     0 d,  0 h,  1 min, 23.795 sec
 *  cpu-time:     0 d,  0 h, 15 min,  8.986 sec
 * ratio c/w:    10.848 speedup
 SCF:
 * wall-time:     0 d,  0 h,  0 min,  1.408 sec
 *  cpu-time:     0 d,  0 h,  0 min, 13.720 sec
 * ratio c/w:     9.747 speedup
 ANC optimizer:
 * wall-time:     0 d,  0 h,  1 min, 22.246 sec
 *  cpu-time:     0 d,  0 h, 14 min, 53.903 sec
 * ratio c/w:    10.869 speedup

