      -----------------------------------------------------------      
     |                   =====================                   |     
     |                           x T B                           |     
     |                   =====================                   |     
     |                         S. Grimme                         |     
     |          Mulliken Center for Theoretical Chemistry        |     
     |                    University of Bonn                     |     
     |                Version 6.2 RC2 (SAW190805)                |     
      -----------------------------------------------------------      

   This program is distributed in the hope that it will be useful,
   but WITHOUT ANY WARRANTY; without even the implied warranty of
   MERCHANTABILITY or FITNESS FOR A PARTICULAR PURPOSE.
   
   FOR NON-COMMERCIAL, ACADEMIA USE ONLY.
   
   Cite this work as:
   * S. Grimme, C. Bannwarth, P. Shushkov, J. Chem. Theory Comput., 2017,
     13, 1989-2009. DOI: 10.1021/acs.jctc.7b00118
   * C. Bannwarth, S. Ehlert and S. Grimme., J. Chem. Theory Comput., 2019,
     15, 1652-1671. DOI: 10.1021/acs.jctc.8b01176
   * P. Pracht, E. Caldeweyher, S. Ehlert, S. Grimme, ChemRxiv, 2019, preprint.
     DOI: 10.26434/chemrxiv.8326202.v1
   
   for DFT-D4:
   * E. Caldeweyher, C. Bannwarth and S. Grimme, J. Chem. Phys., 2017,
     147, 034112. DOI: 10.1063/1.4993215
   * E. Caldeweyher, S. Ehlert, A. Hansen, H. Neugebauer, S. Spicher,
     C. Bannwarth and S. Grimme, J. Chem. Phys., 2019, 150, 154122.
     DOI: 10.1063/1.5090222
   
   for sTDA-xTB:
   * S. Grimme and C. Bannwarth, J. Chem. Phys., 2016, 145, 054103.
     DOI: 10.1063/1.4959605
   
   in the mass-spec context:
   * V. Asgeirsson, C. Bauer and S. Grimme, Chem. Sci., 2017, 8, 4879.
     DOI: 10.1039/c7sc00601b
   
   for metadynamics refer to:
   * S. Grimme, J. Chem. Theory Comput., 2019, 155, 2847-2862
     DOI: 10.1021/acs.jctc.9b00143
   
   with help from (in alphabetical order)
   C. Bannwarth, F. Bohle, G. Brandenburg, E. Caldeweyher, M. Checinski,
   S. Dohm, S. Ehlert, S. Ehrlich, F. März, H. Neugebauer, J. Pisarek,
   P. Pracht, P. Shushkov, and S. Spicher.
   
 * started run on 2021/06/29 at 05:44:56.107     

           -------------------------------------------------
          |                Calculation Setup                |
           -------------------------------------------------

          program call               : /ihome/ghutchison/geoffh/xtb/xtb /ihome/ghutchison/blp62/GA/running_GA/opt_GA/generations/93/43_45_2_45_43_10201.xyz -opt
          hostname                   : smp-n135
          coordinate file            : /ihome/ghutchison/blp62/GA/running_GA/opt_GA/generations/93/43_45_2_45_43_10201.xyz
          omp threads                :                    12
          number of atoms            :                    89
          number of electrons        :                   350
          charge                     :                     0
          spin                       :                   0.0
          first test random number   :      0.90740026586178


########################################################################
# WARNING! Please study the warnings concerning your input carefully
#  - XTBPATH is not set, using XTBHOME instead
#  - the use of '-opt' is discouraged, please use '--opt' next time
########################################################################

           ------------------------------------------------- 
          |                 G F N 2 - x T B                 |
          | Geometry, Frequencies, Noncovalent interactions |
          |            JCTC 2019 parametrisation            |
           ------------------------------------------------- 
             KAB for C  - Si     :                1.0500
             KAB for H  - Pd     :                0.9500
             k(s)              :                1.8500
             k(p)              :                2.2300
             k(d)              :                2.2300
             k(f)              :                2.0000
             kEN (H0ij)        :               -2.0000
             D4 a1             :                0.5200
             D4 a2             :                5.0000
             D4 s6             :                1.0000
             D4 s8             :                2.7000
             D4 s9             :                5.0000
             alphaj            :                2.0000

  Z AO/shell   Hii/eV     exponent
  1     Wed Apr 25 08:07:45 CEST 2018   EN: 2.200 GM2: 0.406  GM3: 0.0800  RAES: 1.40
     1s    -10.707211    1.230000
  6     Wed Apr 25 08:07:45 CEST 2018   EN: 2.550 GM2: 0.538  GM3: 0.1500  RAES: 3.00
     2s    -13.970922    2.096432
     2p    -10.063292    1.800000
  7     Wed Apr 25 08:07:45 CEST 2018   EN: 3.040 GM2: 0.461  GM3:-0.0640  RAES: 1.90
     2s    -16.686243    2.339881
     2p    -12.523956    2.014332
  8     Wed Apr 25 08:07:45 CEST 2018   EN: 3.440 GM2: 0.452  GM3:-0.0517  RAES: 1.80
     2s    -20.229985    2.439742
     2p    -15.503117    2.137023
 16     Tue Apr 24 11:44:34 CEST 2018   EN: 2.580 GM2: 0.340  GM3:-0.0502  RAES: 3.10
     3s    -20.029654    1.981333
     3p    -11.377694    2.025643
     3d     -0.420282    1.702555
 17     Mon Apr 23 14:09:22 CEST 2018   EN: 3.160 GM2: 0.249  GM3: 0.1495  RAES: 2.50
     3s    -29.278781    2.485265
     3p    -12.673758    2.199650
     3d     -0.240338    2.476089

           ------------------------------------------------- 
          |        Self-Consistent Charge Iterations        |
           ------------------------------------------------- 

          ...................................................
          :                      SETUP                      :
          :.................................................:
          :  # basis functions                 368          :
          :  # atomic orbitals                 359          :
          :  # shells                          173          :
          :  # electrons                       350          :
          :  max. iterations                   250          :
          :  Hamiltonian                  GFN2-xTB          :
          :  restarted?                      false          :
          :  GBSA solvation                  false          :
          :  PC potential                    false          :
          :  electronic temp.          300.0000000     K    :
          :  accuracy                    1.0000000          :
          :  -> integral cutoff          0.2500000E+02      :
          :  -> integral neglect         0.1000000E-07      :
          :  -> SCF convergence          0.1000000E-05 Eh   :
          :  -> wf. convergence          0.1000000E-03 e    :
          :  Broyden damping             0.4000000          :
          ...................................................

 iter      E             dE          RMSdq      gap      omega  full diag
   1   -197.1364332 -0.197136E+03  0.609E+00    1.19       0.0  T
   2   -197.1232528  0.131804E-01  0.412E+00    0.96       1.0  T
   3   -196.9957321  0.127521E+00  0.283E+00    0.71       1.0  T
   4   -197.4866626 -0.490931E+00  0.624E-01    0.84       1.0  T
   5   -197.5087208 -0.220581E-01  0.229E-01    0.78       1.0  T
   6   -197.5102751 -0.155437E-02  0.112E-01    0.82       1.0  T
   7   -197.5108653 -0.590199E-03  0.594E-02    0.81       1.0  T
   8   -197.5109678 -0.102471E-03  0.364E-02    0.81       1.0  T
   9   -197.5110105 -0.426809E-04  0.254E-02    0.81       1.0  T
  10   -197.5110251 -0.146292E-04  0.180E-02    0.81       1.0  T
  11   -197.5110326 -0.750713E-05  0.123E-02    0.81       1.0  T
  12   -197.5110386 -0.602331E-05  0.648E-03    0.81       1.6  T
  13   -197.5110403 -0.162824E-05  0.302E-03    0.81       3.5  T
  14   -197.5110406 -0.313747E-06  0.166E-03    0.81       6.4  T
  15   -197.5110407 -0.873068E-07  0.967E-04    0.81      11.0  T
  16   -197.5110407 -0.182145E-07  0.634E-04    0.81      16.7  T

   *** convergence criteria satisfied after 16 iterations ***

         #    Occupation            Energy/Eh            Energy/eV
      -------------------------------------------------------------
         1        2.0000           -1.0808160             -29.4105
       ...           ...                  ...                  ...
       169        2.0000           -0.4237268             -11.5302
       170        2.0000           -0.4223027             -11.4914
       171        2.0000           -0.4219056             -11.4806
       172        2.0000           -0.4192125             -11.4074
       173        2.0000           -0.4160225             -11.3205
       174        2.0000           -0.4058120             -11.0427
       175        2.0000           -0.3871704             -10.5354 (HOMO)
       176        0.0000           -0.3573941              -9.7252 (LUMO)
       177                         -0.3530697              -9.6075
       178                         -0.3438060              -9.3554
       179                         -0.3386357              -9.2147
       180                         -0.3343240              -9.0974
       ...                                ...                  ...
       359                          1.0895811              29.6490
      -------------------------------------------------------------
                  HL-Gap            0.0297763 Eh            0.8103 eV
             Fermi-level           -0.3722873 Eh          -10.1305 eV

 SCC (total)                   0 d,  0 h,  0 min,  0.552 sec
 SCC setup                      ...        0 min,  0.003 sec (  0.458%)
 Dispersion                     ...        0 min,  0.005 sec (  0.915%)
 integral evaluation            ...        0 min,  0.035 sec (  6.389%)
 zeroth order Hamiltonian       ...        0 min,  0.001 sec (  0.249%)
 iterations                     ...        0 min,  0.483 sec ( 87.450%)
 molecular gradient             ...        0 min,  0.023 sec (  4.242%)
 printout                       ...        0 min,  0.001 sec (  0.271%)

         :::::::::::::::::::::::::::::::::::::::::::::::::::::
         ::                     SUMMARY                     ::
         :::::::::::::::::::::::::::::::::::::::::::::::::::::
         :: total energy            -194.508735443679 Eh    ::
         :: gradient norm              0.175289424844 Eh/a0 ::
         :: HOMO-LUMO gap              0.810254313894 eV    ::
         ::.................................................::
         :: SCC energy              -197.511040687257 Eh    ::
         :: -> isotropic ES            0.139708321787 Eh    ::
         :: -> anisotropic ES          0.007909320575 Eh    ::
         :: -> anisotropic XC          0.171385353425 Eh    ::
         :: -> dispersion             -0.155319299027 Eh    ::
         :: repulsion energy           3.003595483336 Eh    ::
         :: add. restraining           0.000000000000 Eh    ::
         :::::::::::::::::::::::::::::::::::::::::::::::::::::

      ----------------------------------------------------------- 
     |                   =====================                   |
     |                        A N C O P T                        |
     |                   =====================                   |
     |               Approximate Normal Coordinate               |
     |                Rational Function Optimizer                |
      ----------------------------------------------------------- 

          ...................................................
          :                      SETUP                      :
          :.................................................:
          :   optimization level            normal          :
          :   max. optcycles                   267          :
          :   ANC micro-cycles                  20          :
          :   degrees of freedom               261          :
          :.................................................:
          :   RF solver                   davidson          :
          :   input Hessian                  false          :
          :   write xtbopt.log                true          :
          :   linear?                        false          :
          :   energy convergence         0.5000000E-05 Eh   :
          :   grad. convergence          0.1000000E-02 Eh/α :
          :   maximium RF displ.         2.0000000          :
          :   Hlow (freq-cutoff)         0.5000000E-02      :
          :   Hmax (freq-cutoff)         5.0000000          :
          :   S6 in model hess.         20.0000000          :
          ...................................................

generating ANC from model Hessian ...
Using Lindh-Hessian (1995)
 Shifting diagonal of input Hessian by   5.007287749151563E-003
 Lowest  eigenvalues of input Hessian
    0.005000   -0.000000    0.000000    0.000000    0.000000    0.000000
    0.000000    0.005012    0.005037    0.005067    0.005096    0.005127
    0.005223    0.005283    0.005318    0.005393    0.005511    0.005699
 Highest eigenvalues
    2.514657    2.525169    2.573380    2.581443    2.585514    2.587100
 

........................................................................
.............................. CYCLE    1 ..............................
........................................................................
   1   -197.5110407 -0.197511E+03  0.400E-04    0.81       0.0  T
   2   -197.5110407 -0.505565E-09  0.347E-04    0.81      30.5  T
   3   -197.5110407 -0.404597E-08  0.274E-04    0.81      38.6  T
     SCC iter.                  ...        0 min,  0.195 sec
     gradient                   ...        0 min,  0.030 sec
 * total energy  :  -194.5087356 Eh     change       -0.1421689E-06 Eh
   gradient norm :     0.1752903 Eh/α   predicted     0.0000000E+00 (-100.00%)
   displ. norm   :     0.3941025 α      lambda       -0.3432340E-01
   maximum displ.:     0.0919008 α      in ANC's #71, #97, #76, ...

........................................................................
.............................. CYCLE    2 ..............................
........................................................................
   1   -197.6214806 -0.197621E+03  0.255E-01    0.73       0.0  T
   2   -197.6215415 -0.608631E-04  0.165E-01    0.77       1.0  T
   3   -197.6211367  0.404804E-03  0.116E-01    0.74       1.0  T
   4   -197.6221997 -0.106308E-02  0.341E-02    0.75       1.0  T
   5   -197.6222719 -0.721757E-04  0.165E-02    0.75       1.0  T
   6   -197.6222830 -0.111283E-04  0.771E-03    0.75       1.4  T
   7   -197.6222859 -0.283164E-05  0.441E-03    0.75       2.4  T
   8   -197.6222864 -0.539020E-06  0.330E-03    0.75       3.2  T
     SCC iter.                  ...        0 min,  0.377 sec
     gradient                   ...        0 min,  0.031 sec
 * total energy  :  -194.5309758 Eh     change       -0.2224019E-01 Eh
   gradient norm :     0.0678932 Eh/α   predicted    -0.1982720E-01 ( -10.85%)
   displ. norm   :     0.4673188 α      lambda       -0.1130734E-01
   maximum displ.:     0.1166566 α      in ANC's #50, #52, #14, ...

........................................................................
.............................. CYCLE    3 ..............................
........................................................................
   1   -197.6333243 -0.197633E+03  0.241E-01    0.67       0.0  T
   2   -197.6333992 -0.749400E-04  0.143E-01    0.70       1.0  T
   3   -197.6326842  0.714988E-03  0.109E-01    0.67       1.0  T
   4   -197.6337102 -0.102599E-02  0.286E-02    0.70       1.0  T
   5   -197.6337634 -0.532008E-04  0.147E-02    0.69       1.0  T
   6   -197.6337725 -0.911636E-05  0.708E-03    0.69       1.5  T
   7   -197.6337746 -0.202554E-05  0.419E-03    0.69       2.5  T
   8   -197.6337750 -0.463450E-06  0.323E-03    0.69       3.3  T
     SCC iter.                  ...        0 min,  0.301 sec
     gradient                   ...        0 min,  0.031 sec
 * total energy  :  -194.5386967 Eh     change       -0.7720923E-02 Eh
   gradient norm :     0.0267697 Eh/α   predicted    -0.6888424E-02 ( -10.78%)
   displ. norm   :     0.5862259 α      lambda       -0.5697981E-02
   maximum displ.:     0.1796661 α      in ANC's #25, #18, #29, ...

........................................................................
.............................. CYCLE    4 ..............................
........................................................................
   1   -197.6269348 -0.197627E+03  0.266E-01    0.64       0.0  T
   2   -197.6269941 -0.593123E-04  0.152E-01    0.66       1.0  T
   3   -197.6257406  0.125349E-02  0.118E-01    0.62       1.0  T
   4   -197.6271836 -0.144292E-02  0.244E-02    0.65       1.0  T
   5   -197.6272254 -0.418449E-04  0.107E-02    0.65       1.0  T
   6   -197.6272284 -0.303090E-05  0.596E-03    0.65       1.8  T
   7   -197.6272304 -0.198434E-05  0.305E-03    0.65       3.5  T
     SCC iter.                  ...        0 min,  0.274 sec
     gradient                   ...        0 min,  0.036 sec
 * total energy  :  -194.5418995 Eh     change       -0.3202777E-02 Eh
   gradient norm :     0.0269464 Eh/α   predicted    -0.3828076E-02 (  19.52%)
   displ. norm   :     0.6769415 α      lambda       -0.6526038E-02
   maximum displ.:     0.2398904 α      in ANC's #14, #18, #25, ...

........................................................................
.............................. CYCLE    5 ..............................
........................................................................
   1   -197.6268222 -0.197627E+03  0.351E-01    0.60       0.0  T
   2   -197.6268887 -0.665618E-04  0.198E-01    0.62       1.0  T
   3   -197.6243848  0.250394E-02  0.149E-01    0.59       1.0  T
   4   -197.6271592 -0.277445E-02  0.254E-02    0.62       1.0  T
   5   -197.6272053 -0.460148E-04  0.107E-02    0.61       1.0  T
   6   -197.6272074 -0.212189E-05  0.623E-03    0.62       1.7  T
   7   -197.6272096 -0.220152E-05  0.298E-03    0.61       3.6  T
   8   -197.6272099 -0.333716E-06  0.197E-03    0.62       5.4  T
     SCC iter.                  ...        0 min,  0.299 sec
     gradient                   ...        0 min,  0.036 sec
 * total energy  :  -194.5442038 Eh     change       -0.2304363E-02 Eh
   gradient norm :     0.0384315 Eh/α   predicted    -0.4758299E-02 ( 106.49%)
   displ. norm   :     0.4438643 α      lambda       -0.4810432E-02
   maximum displ.:     0.1855566 α      in ANC's #17, #14, #19, ...

........................................................................
.............................. CYCLE    6 ..............................
........................................................................
   1   -197.6315498 -0.197632E+03  0.285E-01    0.62       0.0  T
   2   -197.6316145 -0.647104E-04  0.159E-01    0.62       1.0  T
   3   -197.6309600  0.654455E-03  0.784E-02    0.62       1.0  T
   4   -197.6316895 -0.729491E-03  0.120E-02    0.62       1.0  T
   5   -197.6316977 -0.821630E-05  0.670E-03    0.62       1.6  T
   6   -197.6316993 -0.153855E-05  0.286E-03    0.62       3.7  T
   7   -197.6316997 -0.413292E-06  0.168E-03    0.62       6.3  T
     SCC iter.                  ...        0 min,  0.446 sec
     gradient                   ...        0 min,  0.028 sec
 * total energy  :  -194.5458091 Eh     change       -0.1605299E-02 Eh
   gradient norm :     0.0391955 Eh/α   predicted    -0.2879080E-02 (  79.35%)
   displ. norm   :     0.4292834 α      lambda       -0.5187227E-02
   maximum displ.:     0.1561969 α      in ANC's #18, #37, #25, ...

........................................................................
.............................. CYCLE    7 ..............................
........................................................................
   1   -197.6452981 -0.197645E+03  0.260E-01    0.65       0.0  T
   2   -197.6453657 -0.676538E-04  0.146E-01    0.64       1.0  T
   3   -197.6446780  0.687742E-03  0.839E-02    0.64       1.0  T
   4   -197.6454466 -0.768564E-03  0.146E-02    0.64       1.0  T
   5   -197.6454629 -0.163629E-04  0.815E-03    0.64       1.3  T
   6   -197.6454671 -0.413813E-05  0.373E-03    0.64       2.8  T
   7   -197.6454676 -0.494811E-06  0.220E-03    0.64       4.8  T
     SCC iter.                  ...        0 min,  0.266 sec
     gradient                   ...        0 min,  0.037 sec
 * total energy  :  -194.5477960 Eh     change       -0.1986886E-02 Eh
   gradient norm :     0.0267836 Eh/α   predicted    -0.3071587E-02 (  54.59%)
   displ. norm   :     0.4701174 α      lambda       -0.3265089E-02
   maximum displ.:     0.2052175 α      in ANC's #14, #28, #18, ...

........................................................................
.............................. CYCLE    8 ..............................
........................................................................
   1   -197.6368073 -0.197637E+03  0.218E-01    0.64       0.0  T
   2   -197.6368426 -0.353251E-04  0.123E-01    0.64       1.0  T
   3   -197.6363806  0.461957E-03  0.674E-02    0.63       1.0  T
   4   -197.6368871 -0.506452E-03  0.129E-02    0.64       1.0  T
   5   -197.6368971 -0.100308E-04  0.694E-03    0.64       1.5  T
   6   -197.6368992 -0.202590E-05  0.283E-03    0.64       3.7  T
   7   -197.6368996 -0.475696E-06  0.152E-03    0.64       7.0  T
     SCC iter.                  ...        0 min,  0.251 sec
     gradient                   ...        0 min,  0.033 sec
 * total energy  :  -194.5494553 Eh     change       -0.1659307E-02 Eh
   gradient norm :     0.0237181 Eh/α   predicted    -0.1993351E-02 (  20.13%)
   displ. norm   :     0.4709078 α      lambda       -0.2656097E-02
   maximum displ.:     0.2162652 α      in ANC's #14, #18, #19, ...

........................................................................
.............................. CYCLE    9 ..............................
........................................................................
   1   -197.6323305 -0.197632E+03  0.213E-01    0.63       0.0  T
   2   -197.6323656 -0.350882E-04  0.119E-01    0.64       1.0  T
   3   -197.6318744  0.491209E-03  0.699E-02    0.62       1.0  T
   4   -197.6324133 -0.538863E-03  0.143E-02    0.64       1.0  T
   5   -197.6324271 -0.138570E-04  0.718E-03    0.63       1.5  T
   6   -197.6324291 -0.201041E-05  0.308E-03    0.64       3.4  T
   7   -197.6324298 -0.632384E-06  0.153E-03    0.64       6.9  T
     SCC iter.                  ...        0 min,  0.260 sec
     gradient                   ...        0 min,  0.037 sec
 * total energy  :  -194.5509848 Eh     change       -0.1529488E-02 Eh
   gradient norm :     0.0227826 Eh/α   predicted    -0.1622547E-02 (   6.08%)
   displ. norm   :     0.5225258 α      lambda       -0.2062730E-02
   maximum displ.:     0.2779215 α      in ANC's #14, #18, #21, ...

........................................................................
.............................. CYCLE   10 ..............................
........................................................................
   1   -197.6398542 -0.197640E+03  0.216E-01    0.63       0.0  T
   2   -197.6398907 -0.364946E-04  0.120E-01    0.64       1.0  T
   3   -197.6394881  0.402603E-03  0.708E-02    0.62       1.0  T
   4   -197.6399437 -0.455586E-03  0.132E-02    0.64       1.0  T
   5   -197.6399503 -0.658554E-05  0.837E-03    0.64       1.3  T
   6   -197.6399543 -0.395318E-05  0.333E-03    0.64       3.2  T
   7   -197.6399552 -0.928848E-06  0.174E-03    0.64       6.1  T
     SCC iter.                  ...        0 min,  0.262 sec
     gradient                   ...        0 min,  0.031 sec
 * total energy  :  -194.5517599 Eh     change       -0.7750463E-03 Eh
   gradient norm :     0.0221753 Eh/α   predicted    -0.1312961E-02 (  69.40%)
   displ. norm   :     0.5118045 α      lambda       -0.2528242E-02
   maximum displ.:     0.2230011 α      in ANC's #14, #18, #13, ...

........................................................................
.............................. CYCLE   11 ..............................
........................................................................
   1   -197.6478470 -0.197648E+03  0.213E-01    0.64       0.0  T
   2   -197.6478730 -0.260888E-04  0.119E-01    0.64       1.0  T
   3   -197.6474219  0.451186E-03  0.640E-02    0.63       1.0  T
   4   -197.6479124 -0.490532E-03  0.119E-02    0.64       1.0  T
   5   -197.6479161 -0.370806E-05  0.770E-03    0.64       1.4  T
   6   -197.6479204 -0.433014E-05  0.299E-03    0.64       3.5  T
   7   -197.6479208 -0.406967E-06  0.190E-03    0.64       5.6  T
     SCC iter.                  ...        0 min,  0.260 sec
     gradient                   ...        0 min,  0.031 sec
 * total energy  :  -194.5531245 Eh     change       -0.1364622E-02 Eh
   gradient norm :     0.0251434 Eh/α   predicted    -0.1595254E-02 (  16.90%)
   displ. norm   :     0.5114794 α      lambda       -0.1414667E-02
   maximum displ.:     0.2778786 α      in ANC's #14, #18, #19, ...

........................................................................
.............................. CYCLE   12 ..............................
........................................................................
   1   -197.6423189 -0.197642E+03  0.186E-01    0.63       0.0  T
   2   -197.6423370 -0.181140E-04  0.104E-01    0.64       1.0  T
   3   -197.6419468  0.390244E-03  0.619E-02    0.63       1.0  T
   4   -197.6423694 -0.422641E-03  0.121E-02    0.64       1.0  T
   5   -197.6423759 -0.642915E-05  0.739E-03    0.63       1.4  T
   6   -197.6423794 -0.353359E-05  0.265E-03    0.64       4.0  T
   7   -197.6423798 -0.380860E-06  0.160E-03    0.64       6.6  T
     SCC iter.                  ...        0 min,  0.351 sec
     gradient                   ...        0 min,  0.022 sec
 * total energy  :  -194.5539804 Eh     change       -0.8558800E-03 Eh
   gradient norm :     0.0142026 Eh/α   predicted    -0.8923813E-03 (   4.26%)
   displ. norm   :     0.5694495 α      lambda       -0.1232933E-02
   maximum displ.:     0.3221034 α      in ANC's #14, #18, #13, ...

........................................................................
.............................. CYCLE   13 ..............................
........................................................................
   1   -197.6394480 -0.197639E+03  0.204E-01    0.63       0.0  T
   2   -197.6394807 -0.327683E-04  0.113E-01    0.63       1.0  T
   3   -197.6391903  0.290386E-03  0.531E-02    0.62       1.0  T
   4   -197.6395040 -0.313635E-03  0.133E-02    0.63       1.0  T
   5   -197.6395112 -0.726049E-05  0.815E-03    0.63       1.3  T
   6   -197.6395157 -0.449208E-05  0.311E-03    0.63       3.4  T
   7   -197.6395162 -0.509532E-06  0.173E-03    0.63       6.1  T
   8   -197.6395163 -0.593531E-07  0.119E-03    0.63       8.9  T
     SCC iter.                  ...        0 min,  0.148 sec
     gradient                   ...        0 min,  0.028 sec
 * total energy  :  -194.5544379 Eh     change       -0.4575396E-03 Eh
   gradient norm :     0.0328217 Eh/α   predicted    -0.8163713E-03 (  78.43%)
   displ. norm   :     0.4795966 α      lambda       -0.1696261E-02
   maximum displ.:     0.2627791 α      in ANC's #14, #6, #13, ...

........................................................................
.............................. CYCLE   14 ..............................
........................................................................
   1   -197.6515997 -0.197652E+03  0.178E-01    0.62       0.0  T
   2   -197.6516254 -0.256668E-04  0.992E-02    0.63       1.0  T
   3   -197.6513905  0.234889E-03  0.517E-02    0.61       1.0  T
   4   -197.6516546 -0.264144E-03  0.964E-03    0.63       1.1  T
   5   -197.6516557 -0.101101E-05  0.631E-03    0.62       1.7  T
   6   -197.6516582 -0.250795E-05  0.284E-03    0.62       3.7  T
   7   -197.6516587 -0.505021E-06  0.160E-03    0.62       6.6  T
     SCC iter.                  ...        0 min,  0.138 sec
     gradient                   ...        0 min,  0.021 sec
 * total energy  :  -194.5549723 Eh     change       -0.5343974E-03 Eh
   gradient norm :     0.0305011 Eh/α   predicted    -0.1043212E-02 (  95.21%)
   displ. norm   :     0.3945287 α      lambda       -0.1854061E-02
   maximum displ.:     0.2057859 α      in ANC's #14, #18, #6, ...

........................................................................
.............................. CYCLE   15 ..............................
........................................................................
   1   -197.6248986 -0.197625E+03  0.246E-01    0.61       0.0  T
   2   -197.6249855 -0.868299E-04  0.138E-01    0.62       1.0  T
   3   -197.6243198  0.665629E-03  0.821E-02    0.61       1.0  T
   4   -197.6250570 -0.737159E-03  0.112E-02    0.62       1.0  T
   5   -197.6250647 -0.774584E-05  0.750E-03    0.62       1.4  T
   6   -197.6250699 -0.516935E-05  0.314E-03    0.62       3.4  T
   7   -197.6250702 -0.323604E-06  0.170E-03    0.62       6.2  T
     SCC iter.                  ...        0 min,  0.134 sec
     gradient                   ...        0 min,  0.027 sec
 * total energy  :  -194.5531809 Eh     change        0.1791380E-02 Eh
   gradient norm :     0.0878974 Eh/α   predicted    -0.1071327E-02 (-159.80%)
   displ. norm   :     0.2077855 α      lambda       -0.5485592E-02
   maximum displ.:     0.1029051 α      in ANC's #42, #26, #28, ...

........................................................................
.............................. CYCLE   16 ..............................
........................................................................
   1   -197.6465201 -0.197647E+03  0.189E-01    0.62       0.0  T
   2   -197.6465961 -0.759343E-04  0.106E-01    0.62       1.0  T
   3   -197.6463582  0.237876E-03  0.504E-02    0.63       1.0  T
   4   -197.6466300 -0.271761E-03  0.864E-03    0.62       1.2  T
   5   -197.6466348 -0.482537E-05  0.547E-03    0.62       1.9  T
   6   -197.6466375 -0.269422E-05  0.207E-03    0.62       5.1  T
     SCC iter.                  ...        0 min,  0.114 sec
     gradient                   ...        0 min,  0.024 sec
 * total energy  :  -194.5555136 Eh     change       -0.2332635E-02 Eh
   gradient norm :     0.0222628 Eh/α   predicted    -0.2861214E-02 (  22.66%)
   displ. norm   :     0.3701411 α      lambda       -0.2003925E-02
   maximum displ.:     0.1250711 α      in ANC's #28, #26, #14, ...

........................................................................
.............................. CYCLE   17 ..............................
........................................................................
   1   -197.6393195 -0.197639E+03  0.303E-01    0.62       0.0  T
   2   -197.6394452 -0.125729E-03  0.168E-01    0.63       1.0  T
   3   -197.6391096  0.335581E-03  0.660E-02    0.62       1.0  T
   4   -197.6395043 -0.394686E-03  0.124E-02    0.63       1.0  T
   5   -197.6395193 -0.150132E-04  0.585E-03    0.62       1.8  T
   6   -197.6395214 -0.207475E-05  0.337E-03    0.63       3.1  T
   7   -197.6395220 -0.640243E-06  0.145E-03    0.62       7.3  T
     SCC iter.                  ...        0 min,  0.135 sec
     gradient                   ...        0 min,  0.021 sec
 * total energy  :  -194.5528531 Eh     change        0.2660448E-02 Eh
   gradient norm :     0.0761566 Eh/α   predicted    -0.1139236E-02 (-142.82%)
   displ. norm   :     0.2201698 α      lambda       -0.5143278E-02
   maximum displ.:     0.0856328 α      in ANC's #28, #26, #29, ...

........................................................................
.............................. CYCLE   18 ..............................
........................................................................
   1   -197.6464213 -0.197646E+03  0.197E-01    0.62       0.0  T
   2   -197.6464693 -0.480272E-04  0.110E-01    0.62       1.0  T
   3   -197.6462214  0.247948E-03  0.554E-02    0.62       1.0  T
   4   -197.6465085 -0.287137E-03  0.647E-03    0.62       1.6  T
   5   -197.6465115 -0.296704E-05  0.410E-03    0.62       2.6  T
   6   -197.6465125 -0.108367E-05  0.225E-03    0.62       4.7  T
     SCC iter.                  ...        0 min,  0.116 sec
     gradient                   ...        0 min,  0.029 sec
 * total energy  :  -194.5558330 Eh     change       -0.2979865E-02 Eh
   gradient norm :     0.0140403 Eh/α   predicted    -0.2696293E-02 (  -9.52%)
   displ. norm   :     0.2833889 α      lambda       -0.5250928E-03
   maximum displ.:     0.1504375 α      in ANC's #14, #6, #13, ...

........................................................................
.............................. CYCLE   19 ..............................
........................................................................
   1   -197.6434330 -0.197643E+03  0.119E-01    0.62       0.0  T
   2   -197.6434456 -0.125184E-04  0.665E-02    0.62       1.0  T
   3   -197.6433720  0.735219E-04  0.302E-02    0.62       1.0  T
   4   -197.6434561 -0.840213E-04  0.518E-03    0.62       2.0  T
   5   -197.6434568 -0.787534E-06  0.323E-03    0.62       3.3  T
   6   -197.6434575 -0.619800E-06  0.173E-03    0.62       6.1  T
   7   -197.6434576 -0.173623E-06  0.961E-04    0.62      11.0  T
     SCC iter.                  ...        0 min,  0.130 sec
     gradient                   ...        0 min,  0.022 sec
 * total energy  :  -194.5560244 Eh     change       -0.1913992E-03 Eh
   gradient norm :     0.0164514 Eh/α   predicted    -0.2836340E-03 (  48.19%)
   displ. norm   :     0.2654701 α      lambda       -0.2907370E-03
   maximum displ.:     0.1523817 α      in ANC's #14, #6, #13, ...

........................................................................
.............................. CYCLE   20 ..............................
........................................................................
   1   -197.6423918 -0.197642E+03  0.766E-02    0.62       0.0  T
   2   -197.6423938 -0.202286E-05  0.432E-02    0.62       1.0  T
   3   -197.6423389  0.549095E-04  0.223E-02    0.61       1.0  T
   4   -197.6423975 -0.586217E-04  0.484E-03    0.62       2.2  T
   5   -197.6423984 -0.857660E-06  0.298E-03    0.62       3.6  T
   6   -197.6423989 -0.543745E-06  0.127E-03    0.62       8.4  T
     SCC iter.                  ...        0 min,  0.113 sec
     gradient                   ...        0 min,  0.025 sec
 * total energy  :  -194.5562488 Eh     change       -0.2244553E-03 Eh
   gradient norm :     0.0070123 Eh/α   predicted    -0.1556148E-03 ( -30.67%)
   displ. norm   :     0.4349806 α      lambda       -0.4199546E-03
   maximum displ.:     0.2334453 α      in ANC's #6, #14, #1, ...
 * RMSD in coord.:     0.6791706 α      energy gain  -0.4751339E-01 Eh

generating ANC from model Hessian ...
Using Lindh-Hessian (1995)
 Shifting diagonal of input Hessian by   5.037677830824574E-003
 Lowest  eigenvalues of input Hessian
    0.005000    0.005033   -0.000000   -0.000000   -0.000000   -0.000000
    0.000000    0.000000    0.005066    0.005085    0.005126    0.005167
    0.005230    0.005314    0.005372    0.005457    0.005519    0.005611
 Highest eigenvalues
    2.603391    2.614025    2.650341    2.650883    2.661839    2.667066
 

........................................................................
.............................. CYCLE   21 ..............................
........................................................................
   1   -197.6488571 -0.197649E+03  0.114E-01    0.62       0.0  T
   2   -197.6488653 -0.821720E-05  0.640E-02    0.62       1.0  T
   3   -197.6488390  0.263475E-04  0.191E-02    0.62       1.0  T
   4   -197.6488685 -0.295554E-04  0.684E-03    0.62       1.5  T
   5   -197.6488693 -0.787239E-06  0.437E-03    0.62       2.4  T
   6   -197.6488707 -0.140213E-05  0.183E-03    0.62       5.8  T
   7   -197.6488708 -0.141351E-06  0.130E-03    0.62       8.2  T
   8   -197.6488709 -0.375747E-07  0.902E-04    0.62      11.7  T
   9   -197.6488709 -0.314506E-07  0.545E-04    0.62      19.4  T
     SCC iter.                  ...        0 min,  0.352 sec
     gradient                   ...        0 min,  0.023 sec
 * total energy  :  -194.5565410 Eh     change       -0.2921552E-03 Eh
   gradient norm :     0.0099538 Eh/α   predicted     0.0000000E+00 (-100.00%)
   displ. norm   :     0.1628320 α      lambda       -0.2405122E-03
   maximum displ.:     0.0834090 α      in ANC's #7, #1, #12, ...

........................................................................
.............................. CYCLE   22 ..............................
........................................................................
   1   -197.6441813 -0.197644E+03  0.817E-02    0.62       0.0  T
   2   -197.6441876 -0.634850E-05  0.453E-02    0.62       1.0  T
   3   -197.6441793  0.837550E-05  0.105E-02    0.62       1.0  T
   4   -197.6441908 -0.115175E-04  0.254E-03    0.62       4.2  T
   5   -197.6441909 -0.159266E-06  0.157E-03    0.62       6.8  T
   6   -197.6441910 -0.905179E-07  0.869E-04    0.62      12.2  T
     SCC iter.                  ...        0 min,  0.110 sec
     gradient                   ...        0 min,  0.020 sec
 * total energy  :  -194.5566134 Eh     change       -0.7241141E-04 Eh
   gradient norm :     0.0063025 Eh/α   predicted    -0.1235249E-03 (  70.59%)
   displ. norm   :     0.1738735 α      lambda       -0.3743854E-03
   maximum displ.:     0.0788075 α      in ANC's #6, #11, #7, ...

........................................................................
.............................. CYCLE   23 ..............................
........................................................................
   1   -197.6399799 -0.197640E+03  0.853E-02    0.62       0.0  T
   2   -197.6399864 -0.642566E-05  0.476E-02    0.62       1.0  T
   3   -197.6399750  0.113591E-04  0.123E-02    0.62       1.0  T
   4   -197.6399897 -0.147356E-04  0.327E-03    0.62       3.2  T
   5   -197.6399898 -0.113696E-06  0.227E-03    0.62       4.7  T
   6   -197.6399902 -0.331002E-06  0.981E-04    0.62      10.8  T
     SCC iter.                  ...        0 min,  0.112 sec
     gradient                   ...        0 min,  0.021 sec
 * total energy  :  -194.5566486 Eh     change       -0.3520208E-04 Eh
   gradient norm :     0.0153911 Eh/α   predicted    -0.1928524E-03 ( 447.84%)
   displ. norm   :     0.1530460 α      lambda       -0.4788052E-03
   maximum displ.:     0.0589274 α      in ANC's #52, #7, #1, ...

........................................................................
.............................. CYCLE   24 ..............................
........................................................................
   1   -197.6410543 -0.197641E+03  0.102E-01    0.62       0.0  T
   2   -197.6410639 -0.967022E-05  0.561E-02    0.62       1.0  T
   3   -197.6410569  0.707469E-05  0.114E-02    0.62       1.0  T
   4   -197.6410686 -0.117308E-04  0.269E-03    0.62       3.9  T
   5   -197.6410686 -0.573481E-07  0.199E-03    0.62       5.3  T
   6   -197.6410689 -0.286499E-06  0.751E-04    0.62      14.1  T
     SCC iter.                  ...        0 min,  0.114 sec
     gradient                   ...        0 min,  0.030 sec
 * total energy  :  -194.5567636 Eh     change       -0.1150002E-03 Eh
   gradient norm :     0.0106310 Eh/α   predicted    -0.2450230E-03 ( 113.06%)
   displ. norm   :     0.1176997 α      lambda       -0.4078096E-03
   maximum displ.:     0.0419488 α      in ANC's #7, #6, #11, ...

........................................................................
.............................. CYCLE   25 ..............................
........................................................................
   1   -197.6465553 -0.197647E+03  0.653E-02    0.62       0.0  T
   2   -197.6465595 -0.417844E-05  0.364E-02    0.62       1.0  T
   3   -197.6465553  0.415933E-05  0.783E-03    0.62       1.4  T
   4   -197.6465613 -0.592773E-05  0.227E-03    0.62       4.7  T
   5   -197.6465614 -0.156154E-06  0.153E-03    0.62       6.9  T
   6   -197.6465615 -0.120468E-06  0.742E-04    0.62      14.3  T
     SCC iter.                  ...        0 min,  0.113 sec
     gradient                   ...        0 min,  0.021 sec
 * total energy  :  -194.5569487 Eh     change       -0.1850936E-03 Eh
   gradient norm :     0.0083734 Eh/α   predicted    -0.2067342E-03 (  11.69%)
   displ. norm   :     0.2559924 α      lambda       -0.3403514E-03
   maximum displ.:     0.1068395 α      in ANC's #7, #1, #6, ...

........................................................................
.............................. CYCLE   26 ..............................
........................................................................
   1   -197.6455900 -0.197646E+03  0.112E-01    0.62       0.0  T
   2   -197.6456013 -0.113134E-04  0.627E-02    0.62       1.0  T
   3   -197.6455853  0.159976E-04  0.153E-02    0.62       1.0  T
   4   -197.6456075 -0.222754E-04  0.339E-03    0.62       3.1  T
   5   -197.6456075  0.905481E-07  0.241E-03    0.62       4.4  T
   6   -197.6456079 -0.398299E-06  0.105E-03    0.62      10.1  T
     SCC iter.                  ...        0 min,  0.117 sec
     gradient                   ...        0 min,  0.021 sec
 * total energy  :  -194.5569210 Eh     change        0.2772144E-04 Eh
   gradient norm :     0.0117684 Eh/α   predicted    -0.1813289E-03 (-754.11%)
   displ. norm   :     0.2727391 α      lambda       -0.5965668E-03
   maximum displ.:     0.1141411 α      in ANC's #7, #6, #1, ...

........................................................................
.............................. CYCLE   27 ..............................
........................................................................
   1   -197.6435870 -0.197644E+03  0.910E-02    0.62       0.0  T
   2   -197.6435926 -0.560101E-05  0.512E-02    0.62       1.0  T
   3   -197.6435806  0.120228E-04  0.125E-02    0.63       1.0  T
   4   -197.6435955 -0.148853E-04  0.368E-03    0.62       2.9  T
   5   -197.6435957 -0.168114E-06  0.238E-03    0.62       4.4  T
   6   -197.6435959 -0.290344E-06  0.117E-03    0.62       9.1  T
     SCC iter.                  ...        0 min,  0.113 sec
     gradient                   ...        0 min,  0.022 sec
 * total energy  :  -194.5572908 Eh     change       -0.3698156E-03 Eh
   gradient norm :     0.0048692 Eh/α   predicted    -0.3204743E-03 ( -13.34%)
   displ. norm   :     0.4445984 α      lambda       -0.3826771E-03
   maximum displ.:     0.1925448 α      in ANC's #7, #6, #1, ...

........................................................................
.............................. CYCLE   28 ..............................
........................................................................
   1   -197.6423400 -0.197642E+03  0.119E-01    0.62       0.0  T
   2   -197.6423464 -0.645475E-05  0.675E-02    0.62       1.0  T
   3   -197.6423295  0.169088E-04  0.153E-02    0.62       1.0  T
   4   -197.6423493 -0.197664E-04  0.536E-03    0.62       2.0  T
   5   -197.6423498 -0.528407E-06  0.322E-03    0.62       3.3  T
   6   -197.6423506 -0.796364E-06  0.139E-03    0.62       7.6  T
   7   -197.6423507 -0.543824E-07  0.105E-03    0.62      10.1  T
     SCC iter.                  ...        0 min,  0.131 sec
     gradient                   ...        0 min,  0.021 sec
 * total energy  :  -194.5575224 Eh     change       -0.2315759E-03 Eh
   gradient norm :     0.0072086 Eh/α   predicted    -0.2291610E-03 (  -1.04%)
   displ. norm   :     0.6073700 α      lambda       -0.4577166E-03
   maximum displ.:     0.2646877 α      in ANC's #7, #6, #1, ...

........................................................................
.............................. CYCLE   29 ..............................
........................................................................
   1   -197.6412185 -0.197641E+03  0.153E-01    0.62       0.0  T
   2   -197.6412285 -0.998851E-05  0.872E-02    0.62       1.0  T
   3   -197.6412144  0.141082E-04  0.149E-02    0.62       1.0  T
   4   -197.6412310 -0.166770E-04  0.711E-03    0.62       1.5  T
   5   -197.6412329 -0.182238E-05  0.387E-03    0.62       2.7  T
   6   -197.6412339 -0.105505E-05  0.180E-03    0.62       5.9  T
   7   -197.6412340 -0.492819E-07  0.139E-03    0.62       7.6  T
     SCC iter.                  ...        0 min,  0.139 sec
     gradient                   ...        0 min,  0.031 sec
 * total energy  :  -194.5578594 Eh     change       -0.3370060E-03 Eh
   gradient norm :     0.0058940 Eh/α   predicted    -0.3132846E-03 (  -7.04%)
   displ. norm   :     0.6532022 α      lambda       -0.4344722E-03
   maximum displ.:     0.2816386 α      in ANC's #7, #6, #1, ...

........................................................................
.............................. CYCLE   30 ..............................
........................................................................
   1   -197.6420461 -0.197642E+03  0.157E-01    0.62       0.0  T
   2   -197.6420556 -0.946484E-05  0.897E-02    0.62       1.0  T
   3   -197.6420392  0.164008E-04  0.163E-02    0.62       1.0  T
   4   -197.6420585 -0.192736E-04  0.733E-03    0.62       1.4  T
   5   -197.6420597 -0.121393E-05  0.419E-03    0.62       2.5  T
   6   -197.6420612 -0.151753E-05  0.196E-03    0.62       5.4  T
   7   -197.6420613 -0.639912E-07  0.153E-03    0.62       6.9  T
     SCC iter.                  ...        0 min,  0.136 sec
     gradient                   ...        0 min,  0.028 sec
 * total energy  :  -194.5581824 Eh     change       -0.3230010E-03 Eh
   gradient norm :     0.0064834 Eh/α   predicted    -0.3099291E-03 (  -4.05%)
   displ. norm   :     0.6890911 α      lambda       -0.5857417E-03
   maximum displ.:     0.3399240 α      in ANC's #6, #7, #1, ...

........................................................................
.............................. CYCLE   31 ..............................
........................................................................
   1   -197.6455850 -0.197646E+03  0.183E-01    0.62       0.0  T
   2   -197.6456027 -0.177334E-04  0.104E-01    0.62       1.0  T
   3   -197.6455730  0.296734E-04  0.218E-02    0.62       1.0  T
   4   -197.6456096 -0.365430E-04  0.824E-03    0.62       1.3  T
   5   -197.6456107 -0.115645E-05  0.503E-03    0.62       2.1  T
   6   -197.6456129 -0.212735E-05  0.225E-03    0.62       4.7  T
   7   -197.6456130 -0.106751E-06  0.169E-03    0.62       6.3  T
     SCC iter.                  ...        0 min,  0.320 sec
     gradient                   ...        0 min,  0.028 sec
 * total energy  :  -194.5583269 Eh     change       -0.1445315E-03 Eh
   gradient norm :     0.0131855 Eh/α   predicted    -0.4319415E-03 ( 198.86%)
   displ. norm   :     0.4247511 α      lambda       -0.6610700E-03
   maximum displ.:     0.1817157 α      in ANC's #6, #7, #1, ...

........................................................................
.............................. CYCLE   32 ..............................
........................................................................
   1   -197.6442274 -0.197644E+03  0.129E-01    0.62       0.0  T
   2   -197.6442370 -0.958570E-05  0.726E-02    0.63       1.0  T
   3   -197.6441524  0.845713E-04  0.309E-02    0.62       1.0  T
   4   -197.6442466 -0.941794E-04  0.577E-03    0.62       1.8  T
   5   -197.6442467 -0.818594E-07  0.434E-03    0.62       2.4  T
   6   -197.6442482 -0.157472E-05  0.182E-03    0.62       5.8  T
   7   -197.6442484 -0.188751E-06  0.110E-03    0.62       9.7  T
     SCC iter.                  ...        0 min,  0.139 sec
     gradient                   ...        0 min,  0.021 sec
 * total energy  :  -194.5587029 Eh     change       -0.3760016E-03 Eh
   gradient norm :     0.0063996 Eh/α   predicted    -0.3901694E-03 (   3.77%)
   displ. norm   :     0.5880448 α      lambda       -0.4054100E-03
   maximum displ.:     0.2690531 α      in ANC's #6, #7, #1, ...

........................................................................
.............................. CYCLE   33 ..............................
........................................................................
   1   -197.6392675 -0.197639E+03  0.142E-01    0.62       0.0  T
   2   -197.6392768 -0.928967E-05  0.810E-02    0.62       1.0  T
   3   -197.6392627  0.140400E-04  0.154E-02    0.62       1.0  T
   4   -197.6392797 -0.169301E-04  0.676E-03    0.62       1.6  T
   5   -197.6392805 -0.800736E-06  0.401E-03    0.62       2.6  T
   6   -197.6392819 -0.143942E-05  0.173E-03    0.62       6.1  T
   7   -197.6392820 -0.664380E-07  0.130E-03    0.62       8.1  T
     SCC iter.                  ...        0 min,  0.134 sec
     gradient                   ...        0 min,  0.027 sec
 * total energy  :  -194.5589579 Eh     change       -0.2549749E-03 Eh
   gradient norm :     0.0079894 Eh/α   predicted    -0.2728052E-03 (   6.99%)
   displ. norm   :     0.5756551 α      lambda       -0.3538737E-03
   maximum displ.:     0.3016407 α      in ANC's #6, #7, #1, ...

........................................................................
.............................. CYCLE   34 ..............................
........................................................................
   1   -197.6443410 -0.197644E+03  0.132E-01    0.62       0.0  T
   2   -197.6443480 -0.707036E-05  0.746E-02    0.62       1.0  T
   3   -197.6443395  0.851978E-05  0.135E-02    0.62       1.0  T
   4   -197.6443487 -0.915929E-05  0.732E-03    0.62       1.4  T
   5   -197.6443505 -0.182345E-05  0.368E-03    0.62       2.9  T
   6   -197.6443517 -0.118823E-05  0.163E-03    0.62       6.5  T
   7   -197.6443517 -0.407295E-07  0.130E-03    0.62       8.2  T
     SCC iter.                  ...        0 min,  0.135 sec
     gradient                   ...        0 min,  0.021 sec
 * total energy  :  -194.5592549 Eh     change       -0.2969846E-03 Eh
   gradient norm :     0.0053551 Eh/α   predicted    -0.2355704E-03 ( -20.68%)
   displ. norm   :     0.7343842 α      lambda       -0.4216061E-03
   maximum displ.:     0.3907959 α      in ANC's #6, #7, #1, ...

........................................................................
.............................. CYCLE   35 ..............................
........................................................................
   1   -197.6459540 -0.197646E+03  0.176E-01    0.62       0.0  T
   2   -197.6459671 -0.130986E-04  0.992E-02    0.62       1.0  T
   3   -197.6459173  0.497431E-04  0.254E-02    0.62       1.0  T
   4   -197.6459702 -0.528685E-04  0.105E-02    0.62       1.0  T
   5   -197.6459725 -0.234413E-05  0.623E-03    0.62       1.7  T
   6   -197.6459761 -0.352108E-05  0.239E-03    0.62       4.4  T
   7   -197.6459763 -0.200480E-06  0.177E-03    0.62       6.0  T
   8   -197.6459763 -0.759320E-07  0.117E-03    0.62       9.1  T
     SCC iter.                  ...        0 min,  0.151 sec
     gradient                   ...        0 min,  0.033 sec
 * total energy  :  -194.5596007 Eh     change       -0.3457905E-03 Eh
   gradient norm :     0.0053257 Eh/α   predicted    -0.3244947E-03 (  -6.16%)
   displ. norm   :     0.8186274 α      lambda       -0.3665623E-03
   maximum displ.:     0.4373031 α      in ANC's #6, #7, #1, ...

........................................................................
.............................. CYCLE   36 ..............................
........................................................................
   1   -197.6409272 -0.197641E+03  0.192E-01    0.62       0.0  T
   2   -197.6409410 -0.138013E-04  0.109E-01    0.62       1.0  T
   3   -197.6408843  0.567389E-04  0.264E-02    0.62       1.0  T
   4   -197.6409429 -0.586057E-04  0.114E-02    0.62       1.0  T
   5   -197.6409466 -0.371987E-05  0.673E-03    0.62       1.6  T
   6   -197.6409507 -0.416353E-05  0.251E-03    0.62       4.2  T
   7   -197.6409509 -0.191795E-06  0.190E-03    0.62       5.6  T
   8   -197.6409510 -0.855843E-07  0.122E-03    0.62       8.7  T
     SCC iter.                  ...        0 min,  0.160 sec
     gradient                   ...        0 min,  0.022 sec
 * total energy  :  -194.5599019 Eh     change       -0.3012257E-03 Eh
   gradient norm :     0.0052488 Eh/α   predicted    -0.3061153E-03 (   1.62%)
   displ. norm   :     0.7046385 α      lambda       -0.3789866E-03
   maximum displ.:     0.3982300 α      in ANC's #6, #1, #7, ...

........................................................................
.............................. CYCLE   37 ..............................
........................................................................
   1   -197.6508778 -0.197651E+03  0.199E-01    0.62       0.0  T
   2   -197.6508993 -0.214732E-04  0.110E-01    0.63       1.0  T
   3   -197.6507367  0.162602E-03  0.433E-02    0.61       1.0  T
   4   -197.6509095 -0.172790E-03  0.142E-02    0.63       1.0  T
   5   -197.6509127 -0.317310E-05  0.986E-03    0.62       1.1  T
   6   -197.6509208 -0.814674E-05  0.333E-03    0.62       3.2  T
   7   -197.6509214 -0.589688E-06  0.226E-03    0.62       4.7  T
   8   -197.6509215 -0.103198E-06  0.167E-03    0.62       6.3  T
     SCC iter.                  ...        0 min,  0.158 sec
     gradient                   ...        0 min,  0.033 sec
 * total energy  :  -194.5600902 Eh     change       -0.1883065E-03 Eh
   gradient norm :     0.0089475 Eh/α   predicted    -0.2835710E-03 (  50.59%)
   displ. norm   :     0.6882190 α      lambda       -0.3435508E-03
   maximum displ.:     0.3633476 α      in ANC's #6, #7, #1, ...

........................................................................
.............................. CYCLE   38 ..............................
........................................................................
   1   -197.6386344 -0.197639E+03  0.163E-01    0.62       0.0  T
   2   -197.6386461 -0.116755E-04  0.933E-02    0.62       1.0  T
   3   -197.6385694  0.766659E-04  0.307E-02    0.62       1.0  T
   4   -197.6386542 -0.847922E-04  0.836E-03    0.62       1.3  T
   5   -197.6386545 -0.215539E-06  0.588E-03    0.62       1.8  T
   6   -197.6386573 -0.286021E-05  0.256E-03    0.62       4.1  T
   7   -197.6386575 -0.213095E-06  0.191E-03    0.62       5.5  T
     SCC iter.                  ...        0 min,  0.138 sec
     gradient                   ...        0 min,  0.022 sec
 * total energy  :  -194.5602575 Eh     change       -0.1672729E-03 Eh
   gradient norm :     0.0122426 Eh/α   predicted    -0.2531421E-03 (  51.33%)
   displ. norm   :     0.4437038 α      lambda       -0.2030343E-03
   maximum displ.:     0.2504000 α      in ANC's #6, #7, #1, ...

........................................................................
.............................. CYCLE   39 ..............................
........................................................................
   1   -197.6373526 -0.197637E+03  0.987E-02    0.62       0.0  T
   2   -197.6373575 -0.493550E-05  0.562E-02    0.62       1.0  T
   3   -197.6373476  0.991146E-05  0.124E-02    0.62       1.0  T
   4   -197.6373588 -0.111891E-04  0.550E-03    0.62       1.9  T
   5   -197.6373594 -0.612804E-06  0.341E-03    0.62       3.1  T
   6   -197.6373603 -0.873241E-06  0.165E-03    0.62       6.4  T
   7   -197.6373604 -0.689556E-07  0.129E-03    0.62       8.2  T
     SCC iter.                  ...        0 min,  0.128 sec
     gradient                   ...        0 min,  0.020 sec
 * total energy  :  -194.5603503 Eh     change       -0.9287687E-04 Eh
   gradient norm :     0.0084787 Eh/α   predicted    -0.1215057E-03 (  30.82%)
   displ. norm   :     0.3133534 α      lambda       -0.1689567E-03
   maximum displ.:     0.1792145 α      in ANC's #6, #1, #4, ...

........................................................................
.............................. CYCLE   40 ..............................
........................................................................
   1   -197.6406780 -0.197641E+03  0.847E-02    0.62       0.0  T
   2   -197.6406834 -0.546546E-05  0.469E-02    0.62       1.0  T
   3   -197.6406745  0.888169E-05  0.119E-02    0.62       1.0  T
   4   -197.6406850 -0.104385E-04  0.490E-03    0.62       2.2  T
   5   -197.6406853 -0.282201E-06  0.333E-03    0.62       3.2  T
   6   -197.6406862 -0.923057E-06  0.129E-03    0.62       8.2  T
   7   -197.6406863 -0.863329E-07  0.885E-04    0.62      12.0  T
     SCC iter.                  ...        0 min,  0.126 sec
     gradient                   ...        0 min,  0.187 sec
 * total energy  :  -194.5604514 Eh     change       -0.1010281E-03 Eh
   gradient norm :     0.0065970 Eh/α   predicted    -0.9277890E-04 (  -8.17%)
   displ. norm   :     0.4510400 α      lambda       -0.1572486E-03
   maximum displ.:     0.2760469 α      in ANC's #6, #1, #4, ...

........................................................................
.............................. CYCLE   41 ..............................
........................................................................
   1   -197.6445176 -0.197645E+03  0.110E-01    0.62       0.0  T
   2   -197.6445237 -0.613576E-05  0.617E-02    0.63       1.0  T
   3   -197.6445024  0.212742E-04  0.170E-02    0.62       1.0  T
   4   -197.6445254 -0.230076E-04  0.661E-03    0.63       1.6  T
   5   -197.6445261 -0.686091E-06  0.419E-03    0.62       2.5  T
   6   -197.6445278 -0.166087E-05  0.143E-03    0.62       7.4  T
   7   -197.6445279 -0.872796E-07  0.100E-03    0.62      10.6  T
     SCC iter.                  ...        0 min,  0.133 sec
     gradient                   ...        0 min,  0.021 sec
 * total energy  :  -194.5605625 Eh     change       -0.1111123E-03 Eh
   gradient norm :     0.0037725 Eh/α   predicted    -0.9462045E-04 ( -14.84%)
   displ. norm   :     0.5453713 α      lambda       -0.1482809E-03
   maximum displ.:     0.3216135 α      in ANC's #6, #1, #4, ...

........................................................................
.............................. CYCLE   42 ..............................
........................................................................
   1   -197.6459050 -0.197646E+03  0.125E-01    0.62       0.0  T
   2   -197.6459124 -0.737342E-05  0.708E-02    0.62       1.0  T
   3   -197.6458903  0.220906E-04  0.175E-02    0.62       1.0  T
   4   -197.6459150 -0.246884E-04  0.677E-03    0.63       1.6  T
   5   -197.6459158 -0.761485E-06  0.400E-03    0.62       2.7  T
   6   -197.6459172 -0.146081E-05  0.155E-03    0.62       6.8  T
   7   -197.6459173 -0.593853E-07  0.119E-03    0.62       8.9  T
   8   -197.6459173 -0.307816E-07  0.823E-04    0.62      12.9  T
   9   -197.6459173 -0.274759E-07  0.519E-04    0.62      20.4  T
     SCC iter.                  ...        0 min,  0.168 sec
     gradient                   ...        0 min,  0.023 sec
 * total energy  :  -194.5606748 Eh     change       -0.1122772E-03 Eh
   gradient norm :     0.0055583 Eh/α   predicted    -0.9619603E-04 ( -14.32%)
   displ. norm   :     0.6022073 α      lambda       -0.1561290E-03
   maximum displ.:     0.3494743 α      in ANC's #6, #4, #1, ...
 * RMSD in coord.:     1.0451804 α      energy gain  -0.4425922E-02 Eh

generating ANC from model Hessian ...
Using Lindh-Hessian (1995)
 Shifting diagonal of input Hessian by   5.002092440738936E-003
 Lowest  eigenvalues of input Hessian
    0.005000   -0.000000   -0.000000   -0.000000   -0.000000    0.000000
    0.000000    0.005012    0.005047    0.005081    0.005096    0.005160
    0.005263    0.005297    0.005352    0.005503    0.005523    0.005744
 Highest eigenvalues
    2.604537    2.609310    2.635041    2.646505    2.659143    2.665917
 

........................................................................
.............................. CYCLE   43 ..............................
........................................................................
   1   -197.6440337 -0.197644E+03  0.143E-01    0.62       0.0  T
   2   -197.6440438 -0.101458E-04  0.806E-02    0.62       1.0  T
   3   -197.6440142  0.295884E-04  0.205E-02    0.62       1.0  T
   4   -197.6440477 -0.335138E-04  0.742E-03    0.63       1.4  T
   5   -197.6440480 -0.264338E-06  0.486E-03    0.62       2.2  T
   6   -197.6440504 -0.242607E-05  0.167E-03    0.62       6.3  T
   7   -197.6440505 -0.802222E-07  0.124E-03    0.62       8.5  T
   8   -197.6440505 -0.320337E-07  0.862E-04    0.62      12.3  T
   9   -197.6440506 -0.309559E-07  0.549E-04    0.62      19.3  T
     SCC iter.                  ...        0 min,  0.177 sec
     gradient                   ...        0 min,  0.028 sec
 * total energy  :  -194.5607838 Eh     change       -0.1090473E-03 Eh
   gradient norm :     0.0054473 Eh/α   predicted     0.0000000E+00 (-100.00%)
   displ. norm   :     0.0909896 α      lambda       -0.9018375E-04
   maximum displ.:     0.0383790 α      in ANC's #8, #12, #18, ...

........................................................................
.............................. CYCLE   44 ..............................
........................................................................
   1   -197.6452835 -0.197645E+03  0.646E-02    0.62       0.0  T
   2   -197.6452871 -0.361297E-05  0.358E-02    0.62       1.0  T
   3   -197.6452801  0.694621E-05  0.954E-03    0.63       1.1  T
   4   -197.6452891 -0.892530E-05  0.200E-03    0.62       5.3  T
   5   -197.6452892 -0.140328E-06  0.130E-03    0.62       8.2  T
   6   -197.6452893 -0.725953E-07  0.672E-04    0.62      15.8  T
     SCC iter.                  ...        0 min,  0.117 sec
     gradient                   ...        0 min,  0.022 sec
 * total energy  :  -194.5607946 Eh     change       -0.1083747E-04 Eh
   gradient norm :     0.0039880 Eh/α   predicted    -0.4549048E-04 ( 319.75%)
   displ. norm   :     0.0905718 α      lambda       -0.1435196E-03
   maximum displ.:     0.0360109 α      in ANC's #23, #8, #1, ...

........................................................................
.............................. CYCLE   45 ..............................
........................................................................
   1   -197.6476455 -0.197648E+03  0.584E-02    0.62       0.0  T
   2   -197.6476484 -0.289141E-05  0.327E-02    0.62       1.0  T
   3   -197.6476435  0.488384E-05  0.805E-03    0.62       1.3  T
   4   -197.6476498 -0.627016E-05  0.235E-03    0.62       4.5  T
   5   -197.6476498 -0.633325E-07  0.170E-03    0.62       6.2  T
   6   -197.6476500 -0.212416E-06  0.815E-04    0.62      13.0  T
   7   -197.6476501 -0.252252E-07  0.568E-04    0.62      18.7  T
     SCC iter.                  ...        0 min,  0.136 sec
     gradient                   ...        0 min,  0.023 sec
 * total energy  :  -194.5608045 Eh     change       -0.9847964E-05 Eh
   gradient norm :     0.0070382 Eh/α   predicted    -0.7234938E-04 ( 634.66%)
   displ. norm   :     0.0879384 α      lambda       -0.1809620E-03
   maximum displ.:     0.0407329 α      in ANC's #12, #50, #8, ...

........................................................................
.............................. CYCLE   46 ..............................
........................................................................
   1   -197.6473191 -0.197647E+03  0.707E-02    0.62       0.0  T
   2   -197.6473242 -0.500681E-05  0.391E-02    0.62       1.0  T
   3   -197.6473190  0.519236E-05  0.930E-03    0.62       1.1  T
   4   -197.6473267 -0.770261E-05  0.199E-03    0.62       5.3  T
   5   -197.6473268 -0.119542E-06  0.137E-03    0.62       7.7  T
   6   -197.6473269 -0.115582E-06  0.626E-04    0.62      16.9  T
     SCC iter.                  ...        0 min,  0.115 sec
     gradient                   ...        0 min,  0.028 sec
 * total energy  :  -194.5608120 Eh     change       -0.7547635E-05 Eh
   gradient norm :     0.0058321 Eh/α   predicted    -0.9118108E-04 (1108.07%)
   displ. norm   :     0.0585372 α      lambda       -0.1553518E-03
   maximum displ.:     0.0218084 α      in ANC's #32, #50, #6, ...

........................................................................
.............................. CYCLE   47 ..............................
........................................................................
   1   -197.6457505 -0.197646E+03  0.533E-02    0.62       0.0  T
   2   -197.6457533 -0.279725E-05  0.295E-02    0.62       1.0  T
   3   -197.6457500  0.330272E-05  0.694E-03    0.62       1.5  T
   4   -197.6457547 -0.473753E-05  0.136E-03    0.62       7.8  T
   5   -197.6457548 -0.354838E-07  0.899E-04    0.62      11.8  T
   6   -197.6457548 -0.381527E-07  0.433E-04    0.62      24.5  T
     SCC iter.                  ...        0 min,  0.112 sec
     gradient                   ...        0 min,  0.020 sec
 * total energy  :  -194.5608583 Eh     change       -0.4622574E-04 Eh
   gradient norm :     0.0032615 Eh/α   predicted    -0.7794244E-04 (  68.61%)
   displ. norm   :     0.0981525 α      lambda       -0.1636586E-03
   maximum displ.:     0.0283273 α      in ANC's #1, #50, #8, ...

........................................................................
.............................. CYCLE   48 ..............................
........................................................................
   1   -197.6436766 -0.197644E+03  0.871E-02    0.62       0.0  T
   2   -197.6436842 -0.753871E-05  0.480E-02    0.62       1.0  T
   3   -197.6436788  0.537244E-05  0.956E-03    0.62       1.1  T
   4   -197.6436880 -0.919074E-05  0.181E-03    0.62       5.9  T
   5   -197.6436880 -0.340784E-07  0.117E-03    0.62       9.0  T
   6   -197.6436881 -0.654056E-07  0.450E-04    0.62      23.6  T
   7   -197.6436881 -0.125893E-07  0.232E-04    0.62      45.6  T
     SCC iter.                  ...        0 min,  0.135 sec
     gradient                   ...        0 min,  0.023 sec
 * total energy  :  -194.5607307 Eh     change        0.1275438E-03 Eh
   gradient norm :     0.0090650 Eh/α   predicted    -0.8261974E-04 (-164.78%)
   displ. norm   :     0.0759150 α      lambda       -0.3488041E-03
   maximum displ.:     0.0276961 α      in ANC's #31, #50, #33, ...

........................................................................
.............................. CYCLE   49 ..............................
........................................................................
   1   -197.6468680 -0.197647E+03  0.637E-02    0.62       0.0  T
   2   -197.6468720 -0.392617E-05  0.353E-02    0.62       1.0  T
   3   -197.6468678  0.417102E-05  0.778E-03    0.63       1.4  T
   4   -197.6468739 -0.606058E-05  0.180E-03    0.62       5.9  T
   5   -197.6468740 -0.921708E-07  0.118E-03    0.62       9.0  T
   6   -197.6468740 -0.722234E-07  0.531E-04    0.62      20.0  T
     SCC iter.                  ...        0 min,  0.114 sec
     gradient                   ...        0 min,  0.020 sec
 * total energy  :  -194.5609017 Eh     change       -0.1709972E-03 Eh
   gradient norm :     0.0020646 Eh/α   predicted    -0.1754088E-03 (   2.58%)
   displ. norm   :     0.0720857 α      lambda       -0.5560339E-04
   maximum displ.:     0.0306740 α      in ANC's #8, #1, #7, ...

........................................................................
.............................. CYCLE   50 ..............................
........................................................................
   1   -197.6460879 -0.197646E+03  0.536E-02    0.62       0.0  T
   2   -197.6460907 -0.278747E-05  0.296E-02    0.62       1.0  T
   3   -197.6460892  0.151649E-05  0.549E-03    0.62       1.9  T
   4   -197.6460921 -0.285362E-05  0.131E-03    0.62       8.1  T
   5   -197.6460921  0.332344E-08  0.959E-04    0.62      11.1  T
   6   -197.6460921 -0.715078E-07  0.349E-04    0.62      30.4  T
     SCC iter.                  ...        0 min,  0.294 sec
     gradient                   ...        0 min,  0.022 sec
 * total energy  :  -194.5608661 Eh     change        0.3559202E-04 Eh
   gradient norm :     0.0041971 Eh/α   predicted    -0.2794709E-04 (-178.52%)
   displ. norm   :     0.0575311 α      lambda       -0.1194270E-03
   maximum displ.:     0.0195186 α      in ANC's #13, #27, #7, ...

........................................................................
.............................. CYCLE   51 ..............................
........................................................................
   1   -197.6460274 -0.197646E+03  0.405E-02    0.62       0.0  T
   2   -197.6460288 -0.147437E-05  0.224E-02    0.62       1.0  T
   3   -197.6460288  0.501699E-07  0.299E-03    0.62       3.5  T
   4   -197.6460295 -0.691526E-06  0.105E-03    0.62      10.1  T
     SCC iter.                  ...        0 min,  0.081 sec
     gradient                   ...        0 min,  0.021 sec
 * total energy  :  -194.5609282 Eh     change       -0.6210450E-04 Eh
   gradient norm :     0.0016002 Eh/α   predicted    -0.5991211E-04 (  -3.53%)
   displ. norm   :     0.0863960 α      lambda        0.1028322E-03
   maximum displ.:     0.0292844 α      in ANC's #13, #27, #7, ...

........................................................................
.............................. CYCLE   52 ..............................
........................................................................
   1   -197.6447668 -0.197645E+03  0.609E-02    0.62       0.0  T
   2   -197.6447700 -0.322586E-05  0.336E-02    0.62       1.0  T
   3   -197.6447679  0.213638E-05  0.619E-03    0.62       1.7  T
   4   -197.6447716 -0.367542E-05  0.162E-03    0.62       6.6  T
   5   -197.6447715  0.491106E-07  0.117E-03    0.62       9.0  T
   6   -197.6447717 -0.151115E-06  0.395E-04    0.62      26.8  T
   7   -197.6447717 -0.730915E-08  0.238E-04    0.62      44.5  T
     SCC iter.                  ...        0 min,  0.130 sec
     gradient                   ...        0 min,  0.022 sec
 * total energy  :  -194.5608088 Eh     change        0.1194727E-03 Eh
   gradient norm :     0.0068673 Eh/α   predicted     0.5158640E-04 ( -56.82%)
   displ. norm   :     0.0586852 α      lambda       -0.2038478E-03
   maximum displ.:     0.0189374 α      in ANC's #8, #27, #28, ...

........................................................................
.............................. CYCLE   53 ..............................
........................................................................
   1   -197.6460322 -0.197646E+03  0.526E-02    0.62       0.0  T
   2   -197.6460347 -0.249105E-05  0.290E-02    0.62       1.0  T
   3   -197.6460303  0.439053E-05  0.775E-03    0.63       1.4  T
   4   -197.6460361 -0.579415E-05  0.126E-03    0.62       8.4  T
   5   -197.6460362 -0.523239E-07  0.845E-04    0.62      12.5  T
   6   -197.6460362 -0.410910E-07  0.419E-04    0.62      25.3  T
     SCC iter.                  ...        0 min,  0.111 sec
     gradient                   ...        0 min,  0.025 sec
 * total energy  :  -194.5609288 Eh     change       -0.1200111E-03 Eh
   gradient norm :     0.0030297 Eh/α   predicted    -0.1022753E-03 ( -14.78%)
   displ. norm   :     0.1130946 α      lambda       -0.1427665E-03
   maximum displ.:     0.0518764 α      in ANC's #8, #1, #7, ...

........................................................................
.............................. CYCLE   54 ..............................
........................................................................
   1   -197.6458442 -0.197646E+03  0.686E-02    0.62       0.0  T
   2   -197.6458488 -0.456572E-05  0.378E-02    0.62       1.0  T
   3   -197.6458465  0.226319E-05  0.687E-03    0.62       1.5  T
   4   -197.6458508 -0.424149E-05  0.216E-03    0.62       4.9  T
   5   -197.6458509 -0.795104E-07  0.136E-03    0.62       7.8  T
   6   -197.6458510 -0.149716E-06  0.462E-04    0.62      22.9  T
   7   -197.6458510 -0.120609E-07  0.261E-04    0.62      40.6  T
     SCC iter.                  ...        0 min,  0.134 sec
     gradient                   ...        0 min,  0.022 sec
 * total energy  :  -194.5609405 Eh     change       -0.1176972E-04 Eh
   gradient norm :     0.0037445 Eh/α   predicted    -0.7229708E-04 ( 514.26%)
   displ. norm   :     0.0635960 α      lambda       -0.9058030E-04
   maximum displ.:     0.0243216 α      in ANC's #8, #7, #1, ...

........................................................................
.............................. CYCLE   55 ..............................
........................................................................
   1   -197.6462481 -0.197646E+03  0.389E-02    0.62       0.0  T
   2   -197.6462495 -0.137849E-05  0.215E-02    0.62       1.0  T
   3   -197.6462463  0.321069E-05  0.640E-03    0.62       1.7  T
   4   -197.6462503 -0.401209E-05  0.129E-03    0.62       8.2  T
   5   -197.6462503 -0.406470E-08  0.930E-04    0.62      11.4  T
   6   -197.6462504 -0.670313E-07  0.366E-04    0.62      29.0  T
     SCC iter.                  ...        0 min,  0.115 sec
     gradient                   ...        0 min,  0.022 sec
 * total energy  :  -194.5609845 Eh     change       -0.4395044E-04 Eh
   gradient norm :     0.0018141 Eh/α   predicted    -0.4547380E-04 (   3.47%)
   displ. norm   :     0.1282840 α      lambda       -0.4768581E-04
   maximum displ.:     0.0550266 α      in ANC's #8, #7, #1, ...

........................................................................
.............................. CYCLE   56 ..............................
........................................................................
   1   -197.6461523 -0.197646E+03  0.599E-02    0.63       0.0  T
   2   -197.6461548 -0.245151E-05  0.331E-02    0.62       1.0  T
   3   -197.6461424  0.124445E-04  0.123E-02    0.63       1.0  T
   4   -197.6461567 -0.143322E-04  0.246E-03    0.62       4.3  T
   5   -197.6461566  0.947252E-07  0.179E-03    0.62       5.9  T
   6   -197.6461569 -0.328944E-06  0.577E-04    0.62      18.4  T
   7   -197.6461569 -0.255283E-07  0.303E-04    0.62      35.0  T
     SCC iter.                  ...        0 min,  0.135 sec
     gradient                   ...        0 min,  0.021 sec
 * total energy  :  -194.5609940 Eh     change       -0.9531366E-05 Eh
   gradient norm :     0.0032012 Eh/α   predicted    -0.2401780E-04 ( 151.99%)
   displ. norm   :     0.1114110 α      lambda       -0.4955772E-04
   maximum displ.:     0.0553344 α      in ANC's #8, #1, #7, ...

........................................................................
.............................. CYCLE   57 ..............................
........................................................................
   1   -197.6459720 -0.197646E+03  0.402E-02    0.62       0.0  T
   2   -197.6459730 -0.968691E-06  0.222E-02    0.62       1.0  T
   3   -197.6459710  0.198603E-05  0.543E-03    0.62       2.0  T
   4   -197.6459732 -0.222453E-05  0.225E-03    0.62       4.7  T
   5   -197.6459733 -0.891084E-07  0.128E-03    0.62       8.3  T
   6   -197.6459735 -0.194290E-06  0.343E-04    0.62      30.9  T
   7   -197.6459735 -0.527848E-08  0.229E-04    0.62      46.2  T
     SCC iter.                  ...        0 min,  0.132 sec
     gradient                   ...        0 min,  0.022 sec
 * total energy  :  -194.5610355 Eh     change       -0.4146850E-04 Eh
   gradient norm :     0.0018220 Eh/α   predicted    -0.2508660E-04 ( -39.50%)
   displ. norm   :     0.5098153 α      lambda       -0.1031031E-03
   maximum displ.:     0.2472534 α      in ANC's #8, #7, #1, ...

........................................................................
.............................. CYCLE   58 ..............................
........................................................................
   1   -197.6440686 -0.197644E+03  0.173E-01    0.62       0.0  T
   2   -197.6440845 -0.159087E-04  0.954E-02    0.62       1.0  T
   3   -197.6440520  0.324980E-04  0.225E-02    0.62       1.0  T
   4   -197.6440855 -0.335024E-04  0.107E-02    0.63       1.0  T
   5   -197.6440891 -0.352926E-05  0.552E-03    0.62       1.9  T
   6   -197.6440926 -0.354721E-05  0.136E-03    0.62       7.8  T
   7   -197.6440927 -0.833175E-07  0.896E-04    0.62      11.8  T
   8   -197.6440927 -0.172345E-07  0.567E-04    0.62      18.7  T
     SCC iter.                  ...        0 min,  0.151 sec
     gradient                   ...        0 min,  0.022 sec
 * total energy  :  -194.5610725 Eh     change       -0.3700176E-04 Eh
   gradient norm :     0.0041472 Eh/α   predicted    -0.5750798E-04 (  55.42%)
   displ. norm   :     0.2330002 α      lambda       -0.1079850E-03
   maximum displ.:     0.1106723 α      in ANC's #8, #7, #1, ...

........................................................................
.............................. CYCLE   59 ..............................
........................................................................
   1   -197.6429754 -0.197643E+03  0.866E-02    0.62       0.0  T
   2   -197.6429804 -0.503597E-05  0.475E-02    0.62       1.0  T
   3   -197.6429779  0.252355E-05  0.854E-03    0.62       1.2  T
   4   -197.6429810 -0.316530E-05  0.485E-03    0.62       2.2  T
   5   -197.6429820 -0.100420E-05  0.206E-03    0.62       5.1  T
   6   -197.6429825 -0.500339E-06  0.671E-04    0.62      15.8  T
     SCC iter.                  ...        0 min,  0.126 sec
     gradient                   ...        0 min,  0.021 sec
 * total energy  :  -194.5611267 Eh     change       -0.5423967E-04 Eh
   gradient norm :     0.0047745 Eh/α   predicted    -0.5692599E-04 (   4.95%)
   displ. norm   :     0.0927109 α      lambda       -0.5950967E-04
   maximum displ.:     0.0440225 α      in ANC's #1, #7, #8, ...

........................................................................
.............................. CYCLE   60 ..............................
........................................................................
   1   -197.6457453 -0.197646E+03  0.348E-02    0.62       0.0  T
   2   -197.6457462 -0.884304E-06  0.191E-02    0.62       1.0  T
   3   -197.6457442  0.199980E-05  0.544E-03    0.62       1.9  T
   4   -197.6457466 -0.241184E-05  0.177E-03    0.62       6.0  T
   5   -197.6457467 -0.417356E-07  0.838E-04    0.62      12.6  T
     SCC iter.                  ...        0 min,  0.282 sec
     gradient                   ...        0 min,  0.020 sec
 * total energy  :  -194.5611683 Eh     change       -0.4161144E-04 Eh
   gradient norm :     0.0025344 Eh/α   predicted    -0.3001474E-04 ( -27.87%)
   displ. norm   :     0.2667016 α      lambda       -0.6181694E-04
   maximum displ.:     0.1279316 α      in ANC's #1, #7, #8, ...

........................................................................
.............................. CYCLE   61 ..............................
........................................................................
   1   -197.6461088 -0.197646E+03  0.861E-02    0.62       0.0  T
   2   -197.6461129 -0.416908E-05  0.471E-02    0.62       1.0  T
   3   -197.6461092  0.376903E-05  0.965E-03    0.62       1.1  T
   4   -197.6461128 -0.360789E-05  0.562E-03    0.63       1.9  T
   5   -197.6461141 -0.136391E-05  0.219E-03    0.62       4.8  T
   6   -197.6461147 -0.534347E-06  0.589E-04    0.62      18.0  T
   7   -197.6461147 -0.101856E-07  0.423E-04    0.62      25.0  T
     SCC iter.                  ...        0 min,  0.131 sec
     gradient                   ...        0 min,  0.021 sec
 * total energy  :  -194.5612124 Eh     change       -0.4404787E-04 Eh
   gradient norm :     0.0019165 Eh/α   predicted    -0.3310978E-04 ( -24.83%)
   displ. norm   :     0.5817598 α      lambda       -0.5285635E-04
   maximum displ.:     0.2817434 α      in ANC's #1, #7, #8, ...

........................................................................
[...]
       166        2.0000           -0.4344561             -11.8222
       167        2.0000           -0.4315151             -11.7421
       168        2.0000           -0.4283512             -11.6560
       169        2.0000           -0.4197643             -11.4224
       170        2.0000           -0.4192037             -11.4071
       171        2.0000           -0.4185212             -11.3885
       172        2.0000           -0.4172886             -11.3550
       173        2.0000           -0.4160676             -11.3218
       174        2.0000           -0.4058675             -11.0442
       175        2.0000           -0.3867182             -10.5231 (HOMO)
       176        0.0000           -0.3638055              -9.8997 (LUMO)
       177                         -0.3580888              -9.7441
       178                         -0.3443820              -9.3711
       179                         -0.3415601              -9.2943
       180                         -0.3333850              -9.0719
       181                         -0.3294903              -8.9659
       182                         -0.3170352              -8.6270
       183                         -0.2860660              -7.7843
       184                         -0.2820813              -7.6758
       185                         -0.2729481              -7.4273
       186                         -0.2655665              -7.2264
       ...                                ...                  ...
       359                          1.1551352              31.4328
      -------------------------------------------------------------
                  HL-Gap            0.0229127 Eh            0.6235 eV
             Fermi-level           -0.3752630 Eh          -10.2114 eV

     #   Z        covCN         q      C6AA      α(0)
     1   6 C      3.016     0.035    27.193     8.554
     2   6 C      2.947     0.011    27.779     8.644
     3   6 C      1.936     0.123    28.068     8.556
     4   7 N      0.911    -0.218    25.754     7.340
     5   6 C      1.936     0.126    27.998     8.545
     6   7 N      0.911    -0.238    26.215     7.405
     7   6 C      3.038     0.009    27.784     8.646
     8   6 C      3.041    -0.018    28.417     8.743
     9   6 C      2.951    -0.026    28.649     8.779
    10   6 C      2.921     0.092    25.947     8.353
    11   6 C      2.920     0.095    25.887     8.344
    12   6 C      2.955    -0.038    28.931     8.822
    13  17 Cl     1.001    -0.108   102.532    15.491
    14  17 Cl     0.996    -0.112   102.658    15.501
    15   6 C      2.873     0.229    23.205     7.897
    16   8 O      0.856    -0.349    20.698     6.100
    17   6 C      3.008    -0.032    28.788     8.801
    18   6 C      2.941    -0.014    28.354     8.733
    19   6 C      2.995     0.021    27.521     8.605
    20   6 C      3.048    -0.029    28.683     8.784
    21   6 C      3.247    -0.016    27.390     8.476
    22   6 C      3.083     0.023    27.390     8.580
    23  16 S      2.264     0.065   138.427    19.802
    24   6 C      3.084     0.013    27.623     8.616
    25   6 C      3.247    -0.013    27.310     8.464
    26   6 C      3.043     0.040    27.052     8.531
    27   6 C      2.947     0.025    27.450     8.593
    28   6 C      1.918     0.127    27.974     8.542
    29   7 N      0.911    -0.213    25.647     7.324
    30   6 C      1.920     0.128    27.961     8.540
    31   7 N      0.911    -0.217    25.726     7.336
    32   6 C      3.045    -0.044    29.056     8.841
    33   6 C      3.037     0.026    27.387     8.584
    34  16 S      2.290     0.042   139.345    19.868
    35   6 C      3.020    -0.006    28.142     8.702
    36   6 C      3.030     0.139    24.947     8.193
    37   8 O      1.704    -0.249    18.121     5.747
    38   6 C      3.649     0.030    20.392     6.487
    39   6 C      3.084    -0.081    29.935     8.969
    40   6 C      3.018     0.021    27.512     8.604
    41  16 S      2.366     0.003   140.946    19.981
    42   6 C      3.040     0.021    27.511     8.603
    43   6 C      3.049    -0.043    29.019     8.835
    44   6 C      3.243    -0.013    27.360     8.477
    45   6 C      3.083     0.012    27.648     8.620
    46  16 S      2.249     0.027   139.947    19.911
    47   6 C      3.080     0.022    27.430     8.586
    48   6 C      3.242    -0.017    27.472     8.496
    49   6 C      3.039     0.036    27.148     8.546
    50   6 C      2.946     0.028    27.373     8.581
    51   6 C      1.921     0.123    28.077     8.557
    52   7 N      0.911    -0.191    25.141     7.252
    53   6 C      1.924     0.126    28.006     8.546
    54   7 N      0.911    -0.210    25.566     7.313
    55   6 C      3.037    -0.036    28.865     8.812
    56   6 C      2.992     0.026    27.411     8.588
    57  16 S      2.278     0.044   139.267    19.862
    58   6 C      2.958    -0.015    28.390     8.739
    59   6 C      3.000    -0.034    28.821     8.806
    60   6 C      3.017     0.032    27.274     8.567
    61   6 C      2.947     0.009    27.817     8.650
    62   6 C      1.951     0.123    28.051     8.553
    63   7 N      0.911    -0.223    25.861     7.355
    64   6 C      1.948     0.122    28.074     8.557
    65   7 N      0.911    -0.231    26.048     7.382
    66   6 C      3.030     0.007    27.829     8.653
    67   6 C      3.044    -0.017    28.403     8.741
    68   6 C      2.864     0.229    23.198     7.895
    69   8 O      0.856    -0.359    20.876     6.126
    70   6 C      2.951    -0.026    28.641     8.778
    71   6 C      2.921     0.093    25.934     8.351
    72   6 C      2.920     0.095    25.901     8.346
    73   6 C      2.956    -0.039    28.974     8.829
    74  17 Cl     1.001    -0.110   102.600    15.497
    75  17 Cl     0.996    -0.110   102.590    15.496
    76   1 H      0.926     0.093     1.849     2.126
    77   1 H      0.926     0.090     1.882     2.146
    78   1 H      0.925     0.085     1.925     2.170
    79   1 H      0.926     0.060     2.203     2.321
    80   1 H      0.926     0.082     1.956     2.187
    81   1 H      0.925     0.081     1.967     2.193
    82   1 H      0.924     0.052     2.301     2.372
    83   1 H      0.924     0.052     2.292     2.368
    84   1 H      0.926     0.058     2.218     2.329
    85   1 H      0.926     0.070     2.082     2.256
    86   1 H      0.926     0.114     1.662     2.016
    87   1 H      0.925     0.072     2.069     2.249
    88   1 H      0.926     0.096     1.821     2.110
    89   1 H      0.926     0.088     1.897     2.154

 Mol. C6AA /au·bohr⁶  :     212493.237787
 Mol. C8AA /au·bohr⁸  :    6459480.016733
 Mol. α(0) /au        :        739.325126


Wiberg/Mayer (AO) data.
largest (>0.10) Wiberg bond orders for each atom
          total WBO             WBO to atom ...
     1  C   3.976        C    2 1.488    C   17 1.138    C    7 1.079
     2  C   3.965        C    1 1.488    C    5 1.102    C    3 1.092
     3  C   3.948        N    4 2.775    C    2 1.092
     4  N   2.974        C    3 2.775
     5  C   3.946        N    6 2.761    C    2 1.102
     6  N   2.977        C    5 2.761
     7  C   3.983        C   12 1.405    C    8 1.286    C    1 1.079
     8  C   3.975        C    9 1.418    C    7 1.286    C   15 1.017
     9  C   3.977        C    8 1.418    C   10 1.388    H   76 0.959
    10  C   3.915        C    9 1.388    C   11 1.341    Cl  14 1.015
    11  C   3.923        C   12 1.391    C   10 1.341    Cl  13 1.020
    12  C   3.972        C    7 1.405    C   11 1.391    H   77 0.955
    13  Cl  1.174        C   11 1.020
    14  Cl  1.166        C   10 1.015
    15  C   3.925        O   16 1.785    C    8 1.017    C   17 1.010
    16  O   2.056        C   15 1.785
    17  C   3.949        C   18 1.542    C    1 1.138    C   15 1.010
    18  C   3.947        C   17 1.542    C   19 1.254    H   78 0.948
    19  C   3.910        C   20 1.404    C   18 1.254    S   23 1.089
    20  C   3.973        C   19 1.404    C   21 1.368    H   79 0.955
    21  C   3.953        C   20 1.368    C   22 1.277    C   26 1.099
    22  C   3.930        C   21 1.277    S   23 1.225    C   24 1.207
    23  S   2.618        C   22 1.225    C   19 1.089
    24  C   3.907        C   25 1.301    C   22 1.207    S   34 1.182
    25  C   3.951        C   32 1.350    C   24 1.301    C   26 1.091
    26  C   3.981        C   27 1.514    C   21 1.099    C   25 1.091
    27  C   3.984        C   26 1.514    C   28 1.094    C   30 1.093
    28  C   3.948        N   29 2.785    C   27 1.094
    29  N   2.977        C   28 2.785
    30  C   3.947        N   31 2.785    C   27 1.093
    31  N   2.978        C   30 2.785
    32  C   3.953        C   33 1.415    C   25 1.350    H   80 0.951
    33  C   3.907        C   32 1.415    C   35 1.219    S   34 1.119
    34  S   2.613        C   24 1.182    C   33 1.119
    35  C   3.905        C   36 1.323    C   33 1.219    S   41 1.132
    36  C   3.912        C   35 1.323    C   39 1.314    O   37 1.093
    37  O   2.259        C   36 1.093    C   38 0.969
    38  C   3.930        H   81 0.978    H   83 0.977    H   82 0.977    O   37 0.969
    39  C   3.958        C   40 1.430    C   36 1.314    H   84 0.958
    40  C   3.922        C   39 1.430    C   42 1.206    S   41 1.124
    41  S   2.578        C   35 1.132    C   40 1.124
    42  C   3.905        C   43 1.429    C   40 1.206    S   46 1.112
    43  C   3.960        C   42 1.429    C   44 1.350    H   85 0.953
    44  C   3.949        C   43 1.350    C   45 1.306    C   49 1.088
    45  C   3.908        C   44 1.306    C   47 1.212    S   46 1.173
    46  S   2.595        C   45 1.173    C   42 1.112
    47  C   3.922        C   48 1.265    S   57 1.232    C   45 1.212
    48  C   3.952        C   55 1.378    C   47 1.265    C   49 1.100
    49  C   3.982        C   50 1.522    C   48 1.100    C   44 1.088
    50  C   3.982        C   49 1.522    C   53 1.091    C   51 1.089
    51  C   3.950        N   52 2.794    C   50 1.089
    52  N   2.985        C   51 2.794
    53  C   3.948        N   54 2.786    C   50 1.091
    54  N   2.979        C   53 2.786
    55  C   3.944        C   56 1.397    C   48 1.378    H   86 0.931
    56  C   3.908        C   55 1.397    C   58 1.276    S   57 1.073
    57  S   2.614        C   47 1.232    C   56 1.073
    58  C   3.948        C   59 1.524    C   56 1.276    H   87 0.940
    59  C   3.948        C   58 1.524    C   60 1.132    C   68 1.036
    60  C   3.973        C   61 1.494    C   59 1.132    C   66 1.087
    61  C   3.940        C   60 1.494    C   64 1.096    C   62 1.091
    62  C   3.946        N   63 2.769    C   61 1.091
    63  N   2.972        C   62 2.769
    64  C   3.946        N   65 2.753    C   61 1.096
    65  N   2.965        C   64 2.753
    66  C   3.981        C   73 1.398    C   67 1.288    C   60 1.087
    67  C   3.976        C   70 1.417    C   66 1.288    C   68 1.020
    68  C   3.923        O   69 1.761    C   59 1.036    C   67 1.020
    69  O   2.062        C   68 1.761
    70  C   3.976        C   67 1.417    C   71 1.388    H   88 0.958
    71  C   3.914        C   70 1.388    C   72 1.338    Cl  75 1.017
    72  C   3.922        C   73 1.395    C   71 1.338    Cl  74 1.018
    73  C   3.972        C   66 1.398    C   72 1.395    H   89 0.954
    74  Cl  1.172        C   72 1.018
    75  Cl  1.168        C   71 1.017
    76  H   0.991        C    9 0.959
    77  H   0.991        C   12 0.955
    78  H   0.990        C   18 0.948
    79  H   0.996        C   20 0.955
    80  H   0.993        C   32 0.951
    81  H   0.993        C   38 0.978
    82  H   0.996        C   38 0.977
    83  H   0.996        C   38 0.977
    84  H   0.996        C   39 0.958
    85  H   0.994        C   43 0.953
    86  H   0.986        C   55 0.931
    87  H   0.994        C   58 0.940
    88  H   0.990        C   70 0.958
    89  H   0.992        C   73 0.954

molecular dipole:
                 x           y           z       tot (Debye)
 q only:       -0.917      -0.659      -1.212
   full:       -1.266      -0.351      -1.198       4.520
molecular quadrupole (traceless):
                xx          xy          yy          xz          yz          zz
 q only:       41.737     -58.644     -45.166      67.946     103.958       3.429
  q+dip:       39.824     -22.475     -41.067      45.520      63.956       1.243
   full:       48.439     -25.312     -50.967      58.080      64.223       2.528

           -------------------------------------------------
          |                Geometry Summary                 |
           -------------------------------------------------

      molecular mass/u    :     1136.8794000
   center of mass at/Å    :       -3.7445412     -10.7447179       4.2119879
  moments of inertia/u·Å² :        0.6741711E+04   0.1222598E+06   0.1279930E+06
rotational constants/cm⁻¹ :        0.2500498E-02   0.1378837E-03   0.1317074E-03

 * 79 selected distances

     #   Z        #   Z                                     value/Å
     1   6 C      2   6 C                                 1.3706535
     3   6 C      4   7 N                                 1.1471271
     5   6 C      6   7 N                                 1.1481711
     7   6 C      8   6 C                                 1.4068269
     8   6 C      9   6 C                                 1.3799458
     9   6 C     10   6 C                                 1.3896148
    10   6 C     11   6 C                                 1.4000497
     7   6 C     12   6 C                                 1.3841086
    11   6 C     12   6 C                                 1.3910581
    11   6 C     13  17 Cl                                1.7158948
    10   6 C     14  17 Cl                                1.7164884
    15   6 C     16   8 O                                 1.2083867
    17   6 C     18   6 C                                 1.3645542
    18   6 C     19   6 C                                 1.4083972
    19   6 C     20   6 C                                 1.3894210
    20   6 C     21   6 C                                 1.3868947
    21   6 C     22   6 C                                 1.4127624
    22   6 C     23  16 S                                 1.6995635
    22   6 C     24   6 C                                 1.4134265
    24   6 C     25   6 C                                 1.4081350
    21   6 C     26   6 C                                 1.4518731
    26   6 C     27   6 C                                 1.3639819
    28   6 C     29   7 N                                 1.1465730
    30   6 C     31   7 N                                 1.1466429
    25   6 C     32   6 C                                 1.3914203
    32   6 C     33   6 C                                 1.3875791
    24   6 C     34  16 S                                 1.7085605
    33   6 C     34  16 S                                 1.7560506 (max)
    33   6 C     35   6 C                                 1.4148575
    35   6 C     36   6 C                                 1.4006279
    36   6 C     37   8 O                                 1.3458097
    37   8 O     38   6 C                                 1.4130331
    36   6 C     39   6 C                                 1.4006594
    39   6 C     40   6 C                                 1.3808856
    35   6 C     41  16 S                                 1.7361589
    40   6 C     41  16 S                                 1.7371607
    40   6 C     42   6 C                                 1.4150958
    42   6 C     43   6 C                                 1.3858964
    43   6 C     44   6 C                                 1.3911431
    44   6 C     45   6 C                                 1.4072141
    42   6 C     46  16 S                                 1.7554500
    45   6 C     46  16 S                                 1.7115247
    45   6 C     47   6 C                                 1.4120901
    47   6 C     48   6 C                                 1.4164936
    48   6 C     49   6 C                                 1.4530155
    49   6 C     50   6 C                                 1.3628288
    51   6 C     52   7 N                                 1.1457531
    53   6 C     54   7 N                                 1.1464702
    48   6 C     55   6 C                                 1.3866001
    55   6 C     56   6 C                                 1.3908218
    47   6 C     57  16 S                                 1.6975328
    56   6 C     58   6 C                                 1.4068888
    58   6 C     59   6 C                                 1.3699480
    60   6 C     61   6 C                                 1.3705549
    62   6 C     63   7 N                                 1.1475742
    64   6 C     65   7 N                                 1.1489033
    66   6 C     67   6 C                                 1.4041405
    68   6 C     69   8 O                                 1.2116471
    67   6 C     70   6 C                                 1.3798387
    70   6 C     71   6 C                                 1.3890465
    71   6 C     72   6 C                                 1.4002356
    66   6 C     73   6 C                                 1.3859967
    72   6 C     73   6 C                                 1.3905065
    72   6 C     74  17 Cl                                1.7166643
    71   6 C     75  17 Cl                                1.7158095
     9   6 C     76   1 H                                 1.0785038
    12   6 C     77   1 H                                 1.0779005
    18   6 C     78   1 H                                 1.0860919
    20   6 C     79   1 H                                 1.0747447
    32   6 C     80   1 H                                 1.0731224 (min)
    38   6 C     81   1 H                                 1.0882424
    38   6 C     82   1 H                                 1.0936426
    38   6 C     83   1 H                                 1.0935547
    39   6 C     84   1 H                                 1.0750315
    43   6 C     85   1 H                                 1.0750958
    55   6 C     86   1 H                                 1.0756248
    58   6 C     87   1 H                                 1.0835701
    70   6 C     88   1 H                                 1.0786173
    73   6 C     89   1 H                                 1.0773077

 * 6 distinct bonds (by element types)

   Z      Z             #   av. dist./Å        max./Å        min./Å
   1 H    6 C          14     1.0807893     1.0936426     1.0731224
   6 C    6 C          41     1.3955144     1.4530155     1.3628288
   6 C    7 N           8     1.1471519     1.1489033     1.1457531
   6 C    8 O           4     1.2947191     1.4130331     1.2083867
   6 C   16 S           8     1.7252502     1.7560506     1.6975328
   6 C   17 Cl          4     1.7162142     1.7166643     1.7158095


optimized geometry written to: xtbopt.xyz


           -------------------------------------------------
          | TOTAL ENERGY             -194.561561243249 Eh   |
          | GRADIENT NORM               0.000382468924 Eh/α |
          | HOMO-LUMO GAP               0.623485266292 eV   |
           -------------------------------------------------

------------------------------------------------------------------------
 * finished run on 2021/06/29 at 05:45:17.275     
------------------------------------------------------------------------
 total:
 * wall-time:     0 d,  0 h,  0 min, 21.168 sec
 *  cpu-time:     0 d,  0 h,  3 min, 50.514 sec
 * ratio c/w:    10.890 speedup
 SCF:
 * wall-time:     0 d,  0 h,  0 min,  0.554 sec
 *  cpu-time:     0 d,  0 h,  0 min,  5.291 sec
 * ratio c/w:     9.560 speedup
 ANC optimizer:
 * wall-time:     0 d,  0 h,  0 min, 20.550 sec
 *  cpu-time:     0 d,  0 h,  3 min, 44.673 sec
 * ratio c/w:    10.933 speedup

