      -----------------------------------------------------------      
     |                   =====================                   |     
     |                           x T B                           |     
     |                   =====================                   |     
     |                         S. Grimme                         |     
     |          Mulliken Center for Theoretical Chemistry        |     
     |                    University of Bonn                     |     
     |                Version 6.2 RC2 (SAW190805)                |     
      -----------------------------------------------------------      

   This program is distributed in the hope that it will be useful,
   but WITHOUT ANY WARRANTY; without even the implied warranty of
   MERCHANTABILITY or FITNESS FOR A PARTICULAR PURPOSE.
   
   FOR NON-COMMERCIAL, ACADEMIA USE ONLY.
   
   Cite this work as:
   * S. Grimme, C. Bannwarth, P. Shushkov, J. Chem. Theory Comput., 2017,
     13, 1989-2009. DOI: 10.1021/acs.jctc.7b00118
   * C. Bannwarth, S. Ehlert and S. Grimme., J. Chem. Theory Comput., 2019,
     15, 1652-1671. DOI: 10.1021/acs.jctc.8b01176
   * P. Pracht, E. Caldeweyher, S. Ehlert, S. Grimme, ChemRxiv, 2019, preprint.
     DOI: 10.26434/chemrxiv.8326202.v1
   
   for DFT-D4:
   * E. Caldeweyher, C. Bannwarth and S. Grimme, J. Chem. Phys., 2017,
     147, 034112. DOI: 10.1063/1.4993215
   * E. Caldeweyher, S. Ehlert, A. Hansen, H. Neugebauer, S. Spicher,
     C. Bannwarth and S. Grimme, J. Chem. Phys., 2019, 150, 154122.
     DOI: 10.1063/1.5090222
   
   for sTDA-xTB:
   * S. Grimme and C. Bannwarth, J. Chem. Phys., 2016, 145, 054103.
     DOI: 10.1063/1.4959605
   
   in the mass-spec context:
   * V. Asgeirsson, C. Bauer and S. Grimme, Chem. Sci., 2017, 8, 4879.
     DOI: 10.1039/c7sc00601b
   
   for metadynamics refer to:
   * S. Grimme, J. Chem. Theory Comput., 2019, 155, 2847-2862
     DOI: 10.1021/acs.jctc.9b00143
   
   with help from (in alphabetical order)
   C. Bannwarth, F. Bohle, G. Brandenburg, E. Caldeweyher, M. Checinski,
   S. Dohm, S. Ehlert, S. Ehrlich, F. März, H. Neugebauer, J. Pisarek,
   P. Pracht, P. Shushkov, and S. Spicher.
   
 * started run on 2021/07/06 at 11:40:34.853     

           -------------------------------------------------
          |                Calculation Setup                |
           -------------------------------------------------

          program call               : /ihome/ghutchison/geoffh/xtb/xtb /ihome/ghutchison/blp62/GA/running_GA/opt_GA/generations/115/45_38_73_63_31_13025.xyz -opt
          hostname                   : smp-n97
          coordinate file            : /ihome/ghutchison/blp62/GA/running_GA/opt_GA/generations/115/45_38_73_63_31_13025.xyz
          omp threads                :                    12
          number of atoms            :                    95
          number of electrons        :                   340
          charge                     :                     0
          spin                       :                   0.0
          first test random number   :      0.61946488807654


########################################################################
# WARNING! Please study the warnings concerning your input carefully
#  - XTBPATH is not set, using XTBHOME instead
#  - the use of '-opt' is discouraged, please use '--opt' next time
########################################################################

           ------------------------------------------------- 
          |                 G F N 2 - x T B                 |
          | Geometry, Frequencies, Noncovalent interactions |
          |            JCTC 2019 parametrisation            |
           ------------------------------------------------- 
             KAB for C  - Si     :                1.0500
             KAB for H  - Pd     :                0.9500
             k(s)              :                1.8500
             k(p)              :                2.2300
             k(d)              :                2.2300
             k(f)              :                2.0000
             kEN (H0ij)        :               -2.0000
             D4 a1             :                0.5200
             D4 a2             :                5.0000
             D4 s6             :                1.0000
             D4 s8             :                2.7000
             D4 s9             :                5.0000
             alphaj            :                2.0000

  Z AO/shell   Hii/eV     exponent
  1     Wed Apr 25 08:07:45 CEST 2018   EN: 2.200 GM2: 0.406  GM3: 0.0800  RAES: 1.40
     1s    -10.707211    1.230000
  6     Wed Apr 25 08:07:45 CEST 2018   EN: 2.550 GM2: 0.538  GM3: 0.1500  RAES: 3.00
     2s    -13.970922    2.096432
     2p    -10.063292    1.800000
  7     Wed Apr 25 08:07:45 CEST 2018   EN: 3.040 GM2: 0.461  GM3:-0.0640  RAES: 1.90
     2s    -16.686243    2.339881
     2p    -12.523956    2.014332
  8     Wed Apr 25 08:07:45 CEST 2018   EN: 3.440 GM2: 0.452  GM3:-0.0517  RAES: 1.80
     2s    -20.229985    2.439742
     2p    -15.503117    2.137023
  9     Mon Apr 23 13:58:50 CEST 2018   EN: 3.980 GM2: 0.532  GM3: 0.1426  RAES: 2.40
     2s    -23.458179    2.416361
     2p    -15.746583    2.308399
 16     Tue Apr 24 11:44:34 CEST 2018   EN: 2.580 GM2: 0.340  GM3:-0.0502  RAES: 3.10
     3s    -20.029654    1.981333
     3p    -11.377694    2.025643
     3d     -0.420282    1.702555

           ------------------------------------------------- 
          |        Self-Consistent Charge Iterations        |
           ------------------------------------------------- 

          ...................................................
          :                      SETUP                      :
          :.................................................:
          :  # basis functions                 332          :
          :  # atomic orbitals                 329          :
          :  # shells                          171          :
          :  # electrons                       340          :
          :  max. iterations                   250          :
          :  Hamiltonian                  GFN2-xTB          :
          :  restarted?                      false          :
          :  GBSA solvation                  false          :
          :  PC potential                    false          :
          :  electronic temp.          300.0000000     K    :
          :  accuracy                    1.0000000          :
          :  -> integral cutoff          0.2500000E+02      :
          :  -> integral neglect         0.1000000E-07      :
          :  -> SCF convergence          0.1000000E-05 Eh   :
          :  -> wf. convergence          0.1000000E-03 e    :
          :  Broyden damping             0.4000000          :
          ...................................................

 iter      E             dE          RMSdq      gap      omega  full diag
   1   -190.0631653 -0.190063E+03  0.567E+00    0.78       0.0  T
   2   -190.0358195  0.273458E-01  0.391E+00    0.61       1.0  T
   3   -189.8390362  0.196783E+00  0.300E+00    0.28       1.0  T
   4   -190.3118447 -0.472808E+00  0.117E+00    0.17       1.0  T
   5   -190.4188371 -0.106992E+00  0.366E-01    0.11       1.0  T
   6   -190.4243163 -0.547922E-02  0.249E-01    0.54       1.0  T
   7   -190.4303365 -0.602014E-02  0.122E-01    0.26       1.0  T
   8   -190.4311131 -0.776656E-03  0.606E-02    0.21       1.0  T
   9   -190.4311194 -0.625251E-05  0.389E-02    0.20       1.0  T
  10   -190.4311695 -0.501477E-04  0.238E-02    0.21       1.0  T
  11   -190.4312181 -0.485940E-04  0.116E-02    0.19       1.0  T
  12   -190.4312288 -0.107164E-04  0.601E-03    0.20       1.7  T
  13   -190.4312311 -0.223491E-05  0.208E-03    0.20       4.9  T
  14   -190.4312312 -0.138900E-06  0.128E-03    0.20       8.0  T
  15   -190.4312313 -0.741799E-07  0.726E-04    0.20      14.1  T
  16   -190.4312313 -0.288745E-07  0.417E-04    0.20      24.6  T

   *** convergence criteria satisfied after 16 iterations ***

         #    Occupation            Energy/Eh            Energy/eV
      -------------------------------------------------------------
         1        2.0000           -0.8524381             -23.1960
       ...           ...                  ...                  ...
       164        2.0000           -0.4102476             -11.1634
       165        2.0000           -0.4057782             -11.0418
       166        2.0000           -0.4047365             -11.0134
       167        2.0000           -0.3948370             -10.7441
       168        2.0000           -0.3929845             -10.6937
       169        2.0000           -0.3900432             -10.6136
       170        1.9590           -0.3697782             -10.0622 (HOMO)
       171        0.0410           -0.3624305              -9.8622 (LUMO)
       172        0.0000           -0.3513525              -9.5608
       173                         -0.3482786              -9.4771
       174                         -0.3328898              -9.0584
       175                         -0.3154648              -8.5842
       ...                                ...                  ...
       329                          1.0895825              29.6490
      -------------------------------------------------------------
                  HL-Gap            0.0073477 Eh            0.1999 eV
             Fermi-level           -0.3661043 Eh           -9.9622 eV

 SCC (total)                   0 d,  0 h,  0 min,  0.228 sec
 SCC setup                      ...        0 min,  0.002 sec (  0.874%)
 Dispersion                     ...        0 min,  0.005 sec (  2.323%)
 integral evaluation            ...        0 min,  0.021 sec (  9.225%)
 zeroth order Hamiltonian       ...        0 min,  0.001 sec (  0.548%)
 iterations                     ...        0 min,  0.178 sec ( 78.342%)
 molecular gradient             ...        0 min,  0.019 sec (  8.210%)
 printout                       ...        0 min,  0.001 sec (  0.432%)

         :::::::::::::::::::::::::::::::::::::::::::::::::::::
         ::                     SUMMARY                     ::
         :::::::::::::::::::::::::::::::::::::::::::::::::::::
         :: total energy            -187.557478427160 Eh    ::
         :: gradient norm              0.421510780603 Eh/a0 ::
         :: HOMO-LUMO gap              0.199941219132 eV    ::
         ::.................................................::
         :: SCC energy              -190.431231298754 Eh    ::
         :: -> isotropic ES            0.157474706754 Eh    ::
         :: -> anisotropic ES          0.004237228872 Eh    ::
         :: -> anisotropic XC          0.143827776563 Eh    ::
         :: -> dispersion             -0.142397716314 Eh    ::
         :: repulsion energy           2.874708568643 Eh    ::
         :: add. restraining           0.000000000000 Eh    ::
         :::::::::::::::::::::::::::::::::::::::::::::::::::::

      ----------------------------------------------------------- 
     |                   =====================                   |
     |                        A N C O P T                        |
     |                   =====================                   |
     |               Approximate Normal Coordinate               |
     |                Rational Function Optimizer                |
      ----------------------------------------------------------- 

          ...................................................
          :                      SETUP                      :
          :.................................................:
          :   optimization level            normal          :
          :   max. optcycles                   285          :
          :   ANC micro-cycles                  20          :
          :   degrees of freedom               279          :
          :.................................................:
          :   RF solver                   davidson          :
          :   input Hessian                  false          :
          :   write xtbopt.log                true          :
          :   linear?                        false          :
          :   energy convergence         0.5000000E-05 Eh   :
          :   grad. convergence          0.1000000E-02 Eh/α :
          :   maximium RF displ.         2.0000000          :
          :   Hlow (freq-cutoff)         0.5000000E-02      :
          :   Hmax (freq-cutoff)         5.0000000          :
          :   S6 in model hess.         20.0000000          :
          ...................................................

generating ANC from model Hessian ...
Using Lindh-Hessian (1995)
 Shifting diagonal of input Hessian by   4.986034052963662E-003
 Lowest  eigenvalues of input Hessian
   -0.000000   -0.000000   -0.000000   -0.000000    0.000000    0.000000
    0.005000    0.005007    0.005009    0.005038    0.005082    0.005104
    0.005197    0.005387    0.005458    0.005558    0.005651    0.005737
 Highest eigenvalues
    2.166531    2.257344    2.277021    2.299982    2.501386    2.582673
 

........................................................................
.............................. CYCLE    1 ..............................
........................................................................
   1   -190.4312313 -0.190431E+03  0.233E-04    0.20       0.0  T
   2   -190.4312313  0.326696E-07  0.432E-04    0.20      23.8  T
   3   -190.4312313 -0.371821E-07  0.122E-04    0.20      84.2  T
     SCC iter.                  ...        0 min,  0.034 sec
     gradient                   ...        0 min,  0.019 sec
 * total energy  :  -187.5574784 Eh     change        0.5176184E-07 Eh
   gradient norm :     0.4215143 Eh/α   predicted     0.0000000E+00 (-100.00%)
   displ. norm   :     0.4261622 α      lambda       -0.1457799E+00
   maximum displ.:     0.1110597 α      in ANC's #232, #183, #181, ...

........................................................................
.............................. CYCLE    2 ..............................
........................................................................
   1   -190.6502908 -0.190650E+03  0.383E-01    0.14       0.0  T
   2   -190.6505657 -0.274871E-03  0.267E-01    0.48       1.0  T
   3   -190.6470619  0.350372E-02  0.221E-01    0.12       1.0  T
   4   -190.6510090 -0.394706E-02  0.153E-01    0.45       1.0  T
   5   -190.6539375 -0.292847E-02  0.741E-02    0.32       1.0  T
   6   -190.6543015 -0.364043E-03  0.504E-02    0.26       1.0  T
   7   -190.6545801 -0.278636E-03  0.239E-02    0.21       1.0  T
   8   -190.6546165 -0.363005E-04  0.862E-03    0.20       1.2  T
   9   -190.6546208 -0.436284E-05  0.422E-03    0.20       2.4  T
  10   -190.6546210 -0.209684E-06  0.332E-03    0.20       3.1  T
     SCC iter.                  ...        0 min,  0.109 sec
     gradient                   ...        0 min,  0.018 sec
 * total energy  :  -187.6546710 Eh     change       -0.9719258E-01 Eh
   gradient norm :     0.1278396 Eh/α   predicted    -0.8612812E-01 ( -11.38%)
   displ. norm   :     0.4813451 α      lambda       -0.3479127E-01
   maximum displ.:     0.1583284 α      in ANC's #46, #32, #56, ...

........................................................................
.............................. CYCLE    3 ..............................
........................................................................
   1   -190.7251898 -0.190725E+03  0.273E-01    0.13       0.0  T
   2   -190.7237466  0.144315E-02  0.224E-01    0.50       1.0  T
   3   -190.7285793 -0.483268E-02  0.123E-01    0.18       1.0  T
   4   -190.7289855 -0.406200E-03  0.769E-02    0.20       1.0  T
   5   -190.7285467  0.438814E-03  0.679E-02    0.15       1.0  T
   6   -190.7292126 -0.665898E-03  0.359E-02    0.22       1.0  T
   7   -190.7294530 -0.240385E-03  0.130E-02    0.19       1.0  T
   8   -190.7294645 -0.115426E-04  0.544E-03    0.19       1.9  T
   9   -190.7294660 -0.149374E-05  0.253E-03    0.19       4.1  T
  10   -190.7294666 -0.551644E-06  0.133E-03    0.19       7.7  T
     SCC iter.                  ...        0 min,  0.107 sec
     gradient                   ...        0 min,  0.018 sec
 * total energy  :  -187.6773699 Eh     change       -0.2269899E-01 Eh
   gradient norm :     0.0713403 Eh/α   predicted    -0.2142616E-01 (  -5.61%)
   displ. norm   :     0.5784222 α      lambda       -0.1316146E-01
   maximum displ.:     0.2089598 α      in ANC's #46, #32, #25, ...

........................................................................
.............................. CYCLE    4 ..............................
........................................................................
   1   -190.7302880 -0.190730E+03  0.217E-01    0.13       0.0  T
   2   -190.7279376  0.235037E-02  0.174E-01    0.44       1.0  T
   3   -190.7259092  0.202841E-02  0.184E-01    0.12       1.0  T
   4   -190.7305658 -0.465659E-02  0.965E-02    0.31       1.0  T
   5   -190.7316930 -0.112718E-02  0.574E-02    0.23       1.0  T
   6   -190.7321294 -0.436449E-03  0.256E-02    0.20       1.0  T
   7   -190.7320106  0.118834E-03  0.323E-02    0.16       1.0  T
   8   -190.7321954 -0.184780E-03  0.125E-02    0.19       1.0  T
   9   -190.7322184 -0.230410E-04  0.248E-03    0.18       4.1  T
  10   -190.7322185 -0.113875E-06  0.161E-03    0.18       6.4  T
  11   -190.7322184  0.179418E-06  0.147E-03    0.18       7.0  T
     SCC iter.                  ...        0 min,  0.117 sec
     gradient                   ...        0 min,  0.018 sec
 * total energy  :  -187.6864269 Eh     change       -0.9056989E-02 Eh
   gradient norm :     0.0393166 Eh/α   predicted    -0.8783292E-02 (  -3.02%)
   displ. norm   :     0.6650341 α      lambda       -0.8224640E-02
   maximum displ.:     0.2269314 α      in ANC's #21, #32, #46, ...

........................................................................
.............................. CYCLE    5 ..............................
........................................................................
   1   -190.7417636 -0.190742E+03  0.278E-01    0.16       0.0  T
   2   -190.7402177  0.154590E-02  0.175E-01    0.32       1.0  T
   3   -190.3840789  0.356139E+00  0.125E+00    0.11       1.0  T
   4   -190.7407487 -0.356670E+00  0.122E-01    0.33       1.0  T
   5   -190.7406772  0.715480E-04  0.970E-02    0.34       1.0  T
   6   -190.7409599 -0.282731E-03  0.897E-02    0.32       1.0  T
   7   -190.7411448 -0.184884E-03  0.824E-02    0.30       1.0  T
   8   -190.7413879 -0.243140E-03  0.732E-02    0.28       1.0  T
   9   -190.7415813 -0.193403E-03  0.655E-02    0.26       1.0  T
  10   -190.7417820 -0.200621E-03  0.560E-02    0.25       1.0  T
  11   -190.7420860 -0.304088E-03  0.387E-02    0.22       1.0  T
  12   -190.7423571 -0.271087E-03  0.864E-03    0.19       1.2  T
  13   -190.7423675 -0.103730E-04  0.442E-03    0.19       2.3  T
  14   -190.7423673  0.241414E-06  0.434E-03    0.18       2.4  T
  15   -190.7423709 -0.366824E-05  0.757E-04    0.19      13.6  T
     SCC iter.                  ...        0 min,  0.163 sec
     gradient                   ...        0 min,  0.019 sec
 * total energy  :  -187.6919367 Eh     change       -0.5509809E-02 Eh
   gradient norm :     0.0332487 Eh/α   predicted    -0.5931080E-02 (   7.65%)
   displ. norm   :     0.6995529 α      lambda       -0.7535062E-02
   maximum displ.:     0.2886290 α      in ANC's #25, #32, #21, ...

........................................................................
.............................. CYCLE    6 ..............................
........................................................................
   1   -190.7477806 -0.190748E+03  0.281E-01    0.16       0.0  T
   2   -190.7452923  0.248825E-02  0.197E-01    0.36       1.0  T
   3   -190.5460184  0.199274E+00  0.932E-01    0.09       1.0  T
   4   -190.7461322 -0.200114E+00  0.157E-01    0.38       1.0  T
   5   -190.7465722 -0.440034E-03  0.114E-01    0.38       1.0  T
   6   -190.7467611 -0.188865E-03  0.106E-01    0.36       1.0  T
   7   -190.7471541 -0.393000E-03  0.955E-02    0.33       1.0  T
   8   -190.7474742 -0.320122E-03  0.842E-02    0.30       1.0  T
   9   -190.7477569 -0.282677E-03  0.742E-02    0.28       1.0  T
  10   -190.7481862 -0.429331E-03  0.557E-02    0.25       1.0  T
  11   -190.7485730 -0.386767E-03  0.323E-02    0.22       1.0  T
  12   -190.7487645 -0.191579E-03  0.608E-03    0.20       1.7  T
  13   -190.7487664 -0.188660E-05  0.452E-03    0.20       2.3  T
  14   -190.7487685 -0.205370E-05  0.312E-03    0.19       3.3  T
     SCC iter.                  ...        0 min,  0.146 sec
     gradient                   ...        0 min,  0.018 sec
 * total energy  :  -187.6965181 Eh     change       -0.4581380E-02 Eh
   gradient norm :     0.0287581 Eh/α   predicted    -0.5611279E-02 (  22.48%)
   displ. norm   :     0.5881022 α      lambda       -0.4351667E-02
   maximum displ.:     0.2737325 α      in ANC's #21, #25, #38, ...

........................................................................
.............................. CYCLE    7 ..............................
........................................................................
   1   -190.7539536 -0.190754E+03  0.210E-01    0.18       0.0  T
   2   -190.7519983  0.195536E-02  0.156E-01    0.32       1.0  T
   3   -190.6716758  0.803224E-01  0.597E-01    0.09       1.0  T
   4   -190.7524880 -0.808121E-01  0.116E-01    0.36       1.0  T
   5   -190.7528536 -0.365645E-03  0.937E-02    0.33       1.0  T
   6   -190.7531277 -0.274076E-03  0.834E-02    0.31       1.0  T
   7   -190.7535002 -0.372541E-03  0.707E-02    0.29       1.0  T
   8   -190.7538644 -0.364186E-03  0.550E-02    0.26       1.0  T
   9   -190.7541015 -0.237115E-03  0.425E-02    0.25       1.0  T
  10   -190.7543493 -0.247832E-03  0.231E-02    0.23       1.0  T
  11   -190.7544458 -0.964973E-04  0.607E-03    0.20       1.7  T
  12   -190.7544510 -0.517876E-05  0.299E-03    0.20       3.4  T
  13   -190.7544527 -0.168931E-05  0.779E-04    0.21      13.2  T
     SCC iter.                  ...        0 min,  0.137 sec
     gradient                   ...        0 min,  0.018 sec
 * total energy  :  -187.7001891 Eh     change       -0.3670975E-02 Eh
   gradient norm :     0.0234492 Eh/α   predicted    -0.2928433E-02 ( -20.23%)
   displ. norm   :     0.7076652 α      lambda       -0.5006726E-02
   maximum displ.:     0.3563019 α      in ANC's #21, #38, #25, ...

........................................................................
.............................. CYCLE    8 ..............................
........................................................................
   1   -190.7635403 -0.190764E+03  0.258E-01    0.20       0.0  T
   2   -190.7610099  0.253048E-02  0.189E-01    0.35       1.0  T
   3   -190.6620307  0.989792E-01  0.664E-01    0.12       1.0  T
   4   -190.7613854 -0.993547E-01  0.139E-01    0.41       1.0  T
   5   -190.7621921 -0.806670E-03  0.106E-01    0.37       1.0  T
   6   -190.7625114 -0.319307E-03  0.941E-02    0.35       1.0  T
   7   -190.7629692 -0.457815E-03  0.804E-02    0.32       1.0  T
   8   -190.7634474 -0.478193E-03  0.624E-02    0.30       1.0  T
   9   -190.7637688 -0.321404E-03  0.469E-02    0.27       1.0  T
  10   -190.7640605 -0.291751E-03  0.265E-02    0.25       1.0  T
  11   -190.7641898 -0.129276E-03  0.501E-03    0.23       2.0  T
  12   -190.7641871  0.276279E-05  0.556E-03    0.22       1.8  T
  13   -190.7641931 -0.606584E-05  0.923E-04    0.23      11.1  T
  14   -190.7641933 -0.133034E-06  0.401E-04    0.23      25.6  T
     SCC iter.                  ...        0 min,  0.147 sec
     gradient                   ...        0 min,  0.018 sec
 * total energy  :  -187.7039987 Eh     change       -0.3809587E-02 Eh
   gradient norm :     0.0208729 Eh/α   predicted    -0.3757027E-02 (  -1.38%)
   displ. norm   :     0.7365109 α      lambda       -0.4407228E-02
   maximum displ.:     0.3333569 α      in ANC's #21, #17, #38, ...

........................................................................
.............................. CYCLE    9 ..............................
........................................................................
   1   -190.7585474 -0.190759E+03  0.305E-01    0.21       0.0  T
   2   -190.7540845  0.446288E-02  0.239E-01    0.41       1.0  T
   3   -190.6832703  0.708142E-01  0.583E-01    0.15       1.0  T
   4   -190.7549157 -0.716455E-01  0.169E-01    0.48       1.0  T
   5   -190.7567528 -0.183705E-02  0.129E-01    0.42       1.0  T
   6   -190.7574069 -0.654068E-03  0.111E-01    0.39       1.0  T
   7   -190.7581606 -0.753729E-03  0.912E-02    0.35       1.0  T
   8   -190.7589714 -0.810772E-03  0.639E-02    0.31       1.0  T
   9   -190.7594117 -0.440325E-03  0.423E-02    0.29       1.0  T
  10   -190.7597085 -0.296812E-03  0.158E-02    0.26       1.0  T
  11   -190.7597475 -0.389710E-04  0.467E-03    0.25       2.2  T
  12   -190.7597469  0.551172E-06  0.426E-03    0.25       2.4  T
  13   -190.7597504 -0.351224E-05  0.644E-04    0.25      15.9  T
     SCC iter.                  ...        0 min,  0.135 sec
     gradient                   ...        0 min,  0.018 sec
 * total energy  :  -187.7066374 Eh     change       -0.2638683E-02 Eh
   gradient norm :     0.0407244 Eh/α   predicted    -0.3398962E-02 (  28.81%)
   displ. norm   :     0.6140947 α      lambda       -0.3771316E-02
   maximum displ.:     0.3307916 α      in ANC's #21, #33, #16, ...

........................................................................
.............................. CYCLE   10 ..............................
........................................................................
   1   -190.7655004 -0.190766E+03  0.245E-01    0.24       0.0  T
   2   -190.7620688  0.343168E-02  0.199E-01    0.38       1.0  T
   3   -190.7245627  0.375060E-01  0.439E-01    0.18       1.0  T
   4   -190.7625935 -0.380308E-01  0.137E-01    0.43       1.0  T
   5   -190.7644360 -0.184252E-02  0.953E-02    0.36       1.0  T
   6   -190.7650099 -0.573906E-03  0.765E-02    0.34       1.0  T
   7   -190.7655381 -0.528213E-03  0.561E-02    0.32       1.0  T
   8   -190.7659917 -0.453555E-03  0.300E-02    0.29       1.0  T
   9   -190.7661287 -0.137037E-03  0.133E-02    0.28       1.0  T
  10   -190.7661553 -0.266354E-04  0.333E-03    0.27       3.1  T
  11   -190.7661553  0.269134E-07  0.210E-03    0.27       4.9  T
  12   -190.7661557 -0.345365E-06  0.160E-03    0.27       6.4  T
     SCC iter.                  ...        0 min,  0.125 sec
     gradient                   ...        0 min,  0.018 sec
 * total energy  :  -187.7089291 Eh     change       -0.2291771E-02 Eh
   gradient norm :     0.0230762 Eh/α   predicted    -0.2596770E-02 (  13.31%)
   displ. norm   :     0.5197422 α      lambda       -0.2957941E-02
   maximum displ.:     0.2765728 α      in ANC's #21, #9, #16, ...

........................................................................
.............................. CYCLE   11 ..............................
........................................................................
   1   -190.7793401 -0.190779E+03  0.193E-01    0.26       0.0  T
   2   -190.7776110  0.172911E-02  0.147E-01    0.34       1.0  T
   3   -190.7461255  0.314855E-01  0.391E-01    0.19       1.0  T
   4   -190.7778372 -0.317117E-01  0.976E-02    0.37       1.0  T
   5   -190.7789411 -0.110394E-02  0.611E-02    0.33       1.0  T
   6   -190.7792633 -0.322242E-03  0.442E-02    0.31       1.0  T
   7   -190.7795290 -0.265667E-03  0.256E-02    0.30       1.0  T
   8   -190.7796416 -0.112572E-03  0.786E-03    0.28       1.3  T
   9   -190.7796476 -0.603399E-05  0.392E-03    0.28       2.6  T
  10   -190.7796483 -0.700932E-06  0.176E-03    0.28       5.8  T
  11   -190.7796485 -0.213887E-06  0.727E-04    0.28      14.1  T
     SCC iter.                  ...        0 min,  0.114 sec
     gradient                   ...        0 min,  0.018 sec
 * total energy  :  -187.7103364 Eh     change       -0.1407209E-02 Eh
   gradient norm :     0.0290909 Eh/α   predicted    -0.1878491E-02 (  33.49%)
   displ. norm   :     0.5786564 α      lambda       -0.2570635E-02
   maximum displ.:     0.2930038 α      in ANC's #21, #9, #33, ...

........................................................................
.............................. CYCLE   12 ..............................
........................................................................
   1   -190.7701343 -0.190770E+03  0.193E-01    0.26       0.0  T
   2   -190.7659162  0.421808E-02  0.191E-01    0.38       1.0  T
   3   -190.7591459  0.677036E-02  0.250E-01    0.22       1.0  T
   4   -190.7688561 -0.971025E-02  0.973E-02    0.36       1.0  T
   5   -190.7702166 -0.136048E-02  0.536E-02    0.32       1.0  T
   6   -190.7705614 -0.344839E-03  0.335E-02    0.31       1.0  T
   7   -190.7707316 -0.170198E-03  0.147E-02    0.29       1.0  T
   8   -190.7707641 -0.325152E-04  0.409E-03    0.28       2.5  T
   9   -190.7707634  0.748926E-06  0.331E-03    0.28       3.1  T
  10   -190.7707648 -0.141100E-05  0.119E-03    0.28       8.6  T
     SCC iter.                  ...        0 min,  0.110 sec
     gradient                   ...        0 min,  0.018 sec
 * total energy  :  -187.7120252 Eh     change       -0.1688819E-02 Eh
   gradient norm :     0.0183839 Eh/α   predicted    -0.1715707E-02 (   1.59%)
   displ. norm   :     0.5461491 α      lambda       -0.1916284E-02
   maximum displ.:     0.2429198 α      in ANC's #21, #9, #16, ...

........................................................................
.............................. CYCLE   13 ..............................
........................................................................
   1   -190.7738426 -0.190774E+03  0.196E-01    0.28       0.0  T
   2   -190.7731230  0.719607E-03  0.126E-01    0.32       1.0  T
   3   -190.7220055  0.511176E-01  0.479E-01    0.21       1.0  T
   4   -190.7728711 -0.508657E-01  0.774E-02    0.35       1.0  T
   5   -190.7736774 -0.806248E-03  0.417E-02    0.32       1.0  T
   6   -190.7738698 -0.192429E-03  0.275E-02    0.31       1.0  T
   7   -190.7739613 -0.914911E-04  0.162E-02    0.30       1.0  T
   8   -190.7740079 -0.465467E-04  0.561E-03    0.29       1.8  T
   9   -190.7740095 -0.162905E-05  0.267E-03    0.29       3.8  T
  10   -190.7740097 -0.261978E-06  0.143E-03    0.29       7.2  T
     SCC iter.                  ...        0 min,  0.108 sec
     gradient                   ...        0 min,  0.018 sec
 * total energy  :  -187.7128308 Eh     change       -0.8056697E-03 Eh
   gradient norm :     0.0259444 Eh/α   predicted    -0.1243941E-02 (  54.40%)
   displ. norm   :     0.4695056 α      lambda       -0.1809342E-02
   maximum displ.:     0.1955122 α      in ANC's #21, #9, #16, ...

........................................................................
.............................. CYCLE   14 ..............................
........................................................................
   1   -190.7753369 -0.190775E+03  0.161E-01    0.27       0.0  T
   2   -190.7734409  0.189600E-02  0.137E-01    0.34       1.0  T
   3   -190.7571616  0.162794E-01  0.296E-01    0.22       1.0  T
   4   -190.7742286 -0.170670E-01  0.802E-02    0.34       1.0  T
   5   -190.7752542 -0.102559E-02  0.409E-02    0.31       1.0  T
   6   -190.7754481 -0.193913E-03  0.252E-02    0.30       1.0  T
   7   -190.7755463 -0.982554E-04  0.120E-02    0.29       1.0  T
   8   -190.7755657 -0.194006E-04  0.448E-03    0.29       2.3  T
   9   -190.7755661 -0.331156E-06  0.314E-03    0.29       3.3  T
  10   -190.7755673 -0.119441E-05  0.107E-03    0.29       9.6  T
     SCC iter.                  ...        0 min,  0.108 sec
     gradient                   ...        0 min,  0.018 sec
 * total energy  :  -187.7140128 Eh     change       -0.1181988E-02 Eh
   gradient norm :     0.0166356 Eh/α   predicted    -0.1104093E-02 (  -6.59%)
   displ. norm   :     0.5022477 α      lambda       -0.1493699E-02
   maximum displ.:     0.1925767 α      in ANC's #9, #16, #21, ...

........................................................................
.............................. CYCLE   15 ..............................
........................................................................
   1   -190.7799866 -0.190780E+03  0.178E-01    0.28       0.0  T
   2   -190.7798748  0.111788E-03  0.102E-01    0.30       1.0  T
   3   -190.7602590  0.196159E-01  0.295E-01    0.22       1.0  T
   4   -190.7796789 -0.194200E-01  0.507E-02    0.30       1.0  T
   5   -190.7800115 -0.332608E-03  0.181E-02    0.30       1.0  T
   6   -190.7800450 -0.335253E-04  0.971E-03    0.29       1.1  T
   7   -190.7800535 -0.847863E-05  0.463E-03    0.29       2.2  T
   8   -190.7800555 -0.201448E-05  0.251E-03    0.29       4.1  T
   9   -190.7800559 -0.379311E-06  0.122E-03    0.29       8.4  T
     SCC iter.                  ...        0 min,  0.097 sec
     gradient                   ...        0 min,  0.018 sec
 * total energy  :  -187.7146525 Eh     change       -0.6396832E-03 Eh
   gradient norm :     0.0224244 Eh/α   predicted    -0.9352436E-03 (  46.20%)
   displ. norm   :     0.4842658 α      lambda       -0.1617447E-02
   maximum displ.:     0.1920044 α      in ANC's #9, #16, #21, ...

........................................................................
.............................. CYCLE   16 ..............................
........................................................................
   1   -190.7788333 -0.190779E+03  0.157E-01    0.29       0.0  T
   2   -190.7788367 -0.332430E-05  0.869E-02    0.28       1.0  T
   3   -190.7777251  0.111159E-02  0.774E-02    0.32       1.0  T
   4   -190.7783370 -0.611898E-03  0.553E-02    0.27       1.0  T
   5   -190.7788589 -0.521926E-03  0.146E-02    0.29       1.0  T
   6   -190.7788778 -0.188505E-04  0.659E-03    0.29       1.6  T
   7   -190.7788826 -0.489264E-05  0.208E-03    0.29       4.9  T
   8   -190.7788830 -0.390283E-06  0.858E-04    0.29      12.0  T
     SCC iter.                  ...        0 min,  0.086 sec
     gradient                   ...        0 min,  0.018 sec
 * total energy  :  -187.7153254 Eh     change       -0.6728417E-03 Eh
   gradient norm :     0.0219276 Eh/α   predicted    -0.9983808E-03 (  48.38%)
   displ. norm   :     0.4189905 α      lambda       -0.1603753E-02
   maximum displ.:     0.1781595 α      in ANC's #9, #16, #13, ...

........................................................................
.............................. CYCLE   17 ..............................
........................................................................
   1   -190.7750931 -0.190775E+03  0.152E-01    0.28       0.0  T
   2   -190.7739773  0.111579E-02  0.115E-01    0.32       1.0  T
   3   -190.7486169  0.253604E-01  0.347E-01    0.22       1.0  T
   4   -190.7743658 -0.257489E-01  0.682E-02    0.33       1.0  T
   5   -190.7749955 -0.629696E-03  0.340E-02    0.30       1.0  T
   6   -190.7751538 -0.158214E-03  0.203E-02    0.30       1.0  T
   7   -190.7752069 -0.531633E-04  0.111E-02    0.29       1.0  T
   8   -190.7752256 -0.186698E-04  0.454E-03    0.29       2.3  T
   9   -190.7752266 -0.104348E-05  0.218E-03    0.28       4.7  T
  10   -190.7752269 -0.276525E-06  0.138E-03    0.28       7.4  T
     SCC iter.                  ...        0 min,  0.107 sec
     gradient                   ...        0 min,  0.018 sec
 * total energy  :  -187.7156887 Eh     change       -0.3633609E-03 Eh
   gradient norm :     0.0244290 Eh/α   predicted    -0.9426502E-03 ( 159.43%)
   displ. norm   :     0.3105728 α      lambda       -0.1465084E-02
   maximum displ.:     0.1265364 α      in ANC's #9, #16, #7, ...

........................................................................
.............................. CYCLE   18 ..............................
........................................................................
   1   -190.7739579 -0.190774E+03  0.968E-02    0.28       0.0  T
   2   -190.7738510  0.106907E-03  0.597E-02    0.29       1.0  T
   3   -190.7666004  0.725063E-02  0.186E-01    0.24       1.0  T
   4   -190.7737118 -0.711141E-02  0.402E-02    0.30       1.0  T
   5   -190.7739774 -0.265590E-03  0.116E-02    0.29       1.0  T
   6   -190.7739945 -0.170632E-04  0.572E-03    0.28       1.8  T
   7   -190.7739965 -0.204886E-05  0.312E-03    0.28       3.3  T
   8   -190.7739974 -0.834195E-06  0.160E-03    0.28       6.4  T
     SCC iter.                  ...        0 min,  0.086 sec
     gradient                   ...        0 min,  0.018 sec
 * total energy  :  -187.7163811 Eh     change       -0.6923631E-03 Eh
   gradient norm :     0.0156255 Eh/α   predicted    -0.8032007E-03 (  16.01%)
   displ. norm   :     0.3647573 α      lambda       -0.9440617E-03
   maximum displ.:     0.1730538 α      in ANC's #9, #7, #13, ...

........................................................................
.............................. CYCLE   19 ..............................
........................................................................
   1   -190.7796307 -0.190780E+03  0.143E-01    0.28       0.0  T
   2   -190.7796448 -0.141466E-04  0.797E-02    0.28       1.0  T
   3   -190.7789023  0.742468E-03  0.664E-02    0.26       1.0  T
   4   -190.7793285 -0.426175E-03  0.420E-02    0.30       1.0  T
   5   -190.7796550 -0.326461E-03  0.104E-02    0.28       1.0  T
   6   -190.7796640 -0.899036E-05  0.587E-03    0.28       1.7  T
   7   -190.7796671 -0.313447E-05  0.212E-03    0.28       4.8  T
   8   -190.7796676 -0.443070E-06  0.774E-04    0.28      13.3  T
   9   -190.7796676 -0.180267E-07  0.463E-04    0.28      22.1  T
     SCC iter.                  ...        0 min,  0.097 sec
     gradient                   ...        0 min,  0.018 sec
 * total energy  :  -187.7167684 Eh     change       -0.3873028E-03 Eh
   gradient norm :     0.0180741 Eh/α   predicted    -0.5348342E-03 (  38.09%)
   displ. norm   :     0.3807195 α      lambda       -0.7627863E-03
   maximum displ.:     0.1918290 α      in ANC's #9, #13, #7, ...

........................................................................
.............................. CYCLE   20 ..............................
........................................................................
   1   -190.7840145 -0.190784E+03  0.120E-01    0.28       0.0  T
   2   -190.7840147 -0.179595E-06  0.680E-02    0.28       1.0  T
   3   -190.7830297  0.984939E-03  0.731E-02    0.30       1.0  T
   4   -190.7838975 -0.867778E-03  0.288E-02    0.27       1.0  T
   5   -190.7840267 -0.129127E-03  0.891E-03    0.28       1.2  T
   6   -190.7840302 -0.350762E-05  0.603E-03    0.28       1.7  T
   7   -190.7840343 -0.417767E-05  0.225E-03    0.28       4.6  T
   8   -190.7840349 -0.602867E-06  0.948E-04    0.28      10.8  T
   9   -190.7840350 -0.378500E-07  0.554E-04    0.28      18.5  T
     SCC iter.                  ...        0 min,  0.096 sec
     gradient                   ...        0 min,  0.018 sec
 * total energy  :  -187.7172716 Eh     change       -0.5032453E-03 Eh
   gradient norm :     0.0116730 Eh/α   predicted    -0.4366768E-03 ( -13.23%)
   displ. norm   :     0.5647154 α      lambda       -0.9164281E-03
   maximum displ.:     0.2777762 α      in ANC's #9, #7, #14, ...
 * RMSD in coord.:     0.8222898 α      energy gain  -0.1597932E+00 Eh

generating ANC from model Hessian ...
Using Lindh-Hessian (1995)
 Shifting diagonal of input Hessian by   4.994495438696472E-003
 Lowest  eigenvalues of input Hessian
   -0.000000   -0.000000    0.000000    0.000000    0.000000    0.000000
    0.005000    0.005010    0.005018    0.005051    0.005119    0.005141
    0.005209    0.005325    0.005439    0.005496    0.005544    0.005635
 Highest eigenvalues
    2.284804    2.288927    2.592099    2.634316    2.645736    2.654373
 

........................................................................
.............................. CYCLE   21 ..............................
........................................................................
   1   -190.7744944 -0.190774E+03  0.170E-01    0.27       0.0  T
   2   -190.7732934  0.120100E-02  0.124E-01    0.31       1.0  T
   3   -190.7321008  0.411926E-01  0.435E-01    0.21       1.0  T
   4   -190.7733967 -0.412959E-01  0.785E-02    0.32       1.0  T
   5   -190.7742429 -0.846249E-03  0.425E-02    0.30       1.0  T
   6   -190.7744706 -0.227679E-03  0.279E-02    0.29       1.0  T
   7   -190.7745654 -0.947939E-04  0.159E-02    0.28       1.0  T
   8   -190.7746100 -0.446053E-04  0.548E-03    0.28       1.9  T
   9   -190.7746120 -0.198854E-05  0.283E-03    0.27       3.6  T
  10   -190.7746122 -0.211856E-06  0.147E-03    0.27       7.0  T
  11   -190.7746125 -0.260524E-06  0.554E-04    0.27      18.5  T
  12   -190.7746125 -0.364141E-07  0.307E-04    0.27      33.4  T
     SCC iter.                  ...        0 min,  0.131 sec
     gradient                   ...        0 min,  0.020 sec
 * total energy  :  -187.7176727 Eh     change       -0.4011149E-03 Eh
   gradient norm :     0.0218031 Eh/α   predicted     0.0000000E+00 (-100.00%)
   displ. norm   :     0.2355160 α      lambda       -0.8758404E-03
   maximum displ.:     0.1267593 α      in ANC's #19, #10, #7, ...

........................................................................
.............................. CYCLE   22 ..............................
........................................................................
   1   -190.7787727 -0.190779E+03  0.146E-01    0.27       0.0  T
   2   -190.7787560  0.167270E-04  0.820E-02    0.28       1.0  T
   3   -190.7727779  0.597808E-02  0.169E-01    0.23       1.0  T
   4   -190.7785611 -0.578320E-02  0.370E-02    0.29       1.0  T
   5   -190.7788114 -0.250307E-03  0.708E-03    0.28       1.4  T
   6   -190.7788151 -0.367892E-05  0.418E-03    0.27       2.5  T
   7   -190.7788163 -0.125289E-05  0.263E-03    0.27       3.9  T
     SCC iter.                  ...        0 min,  0.075 sec
     gradient                   ...        0 min,  0.018 sec
 * total energy  :  -187.7176997 Eh     change       -0.2695312E-04 Eh
   gradient norm :     0.0134225 Eh/α   predicted    -0.4622113E-03 (1614.87%)
   displ. norm   :     0.2457216 α      lambda       -0.1529904E-02
   maximum displ.:     0.1346019 α      in ANC's #12, #10, #9, ...

........................................................................
.............................. CYCLE   23 ..............................
........................................................................
   1   -190.7935139 -0.190794E+03  0.157E-01    0.27       0.0  T
   2   -190.7935459 -0.320464E-04  0.861E-02    0.27       1.0  T
   3   -190.7934413  0.104616E-03  0.362E-02    0.27       1.0  T
   4   -190.7935644 -0.123117E-03  0.792E-03    0.27       1.3  T
   5   -190.7935444  0.200475E-04  0.118E-02    0.28       1.0  T
   6   -190.7935540 -0.967253E-05  0.892E-03    0.27       1.2  T
   7   -190.7935685 -0.144816E-04  0.212E-03    0.27       4.8  T
   8   -190.7935691 -0.554735E-06  0.106E-03    0.27       9.7  T
   9   -190.7935692 -0.816975E-07  0.583E-04    0.27      17.6  T
     SCC iter.                  ...        0 min,  0.096 sec
     gradient                   ...        0 min,  0.018 sec
 * total energy  :  -187.7178859 Eh     change       -0.1862457E-03 Eh
   gradient norm :     0.0356358 Eh/α   predicted    -0.8111449E-03 ( 335.52%)
   displ. norm   :     0.1259603 α      lambda       -0.1018959E-02
   maximum displ.:     0.0489388 α      in ANC's #46, #10, #44, ...

........................................................................
.............................. CYCLE   24 ..............................
........................................................................
   1   -190.7856660 -0.190786E+03  0.101E-01    0.28       0.0  T
   2   -190.7855767  0.893130E-04  0.600E-02    0.27       1.0  T
   3   -190.7813385  0.423816E-02  0.153E-01    0.34       1.0  T
   4   -190.7856398 -0.430131E-02  0.176E-02    0.28       1.0  T
   5   -190.7856893 -0.494265E-04  0.439E-03    0.28       2.3  T
   6   -190.7856908 -0.148455E-05  0.300E-03    0.27       3.4  T
   7   -190.7856918 -0.103792E-05  0.118E-03    0.27       8.7  T
     SCC iter.                  ...        0 min,  0.076 sec
     gradient                   ...        0 min,  0.018 sec
 * total energy  :  -187.7182612 Eh     change       -0.3752663E-03 Eh
   gradient norm :     0.0081022 Eh/α   predicted    -0.5175659E-03 (  37.92%)
   displ. norm   :     0.1890975 α      lambda       -0.7722668E-03
   maximum displ.:     0.0857201 α      in ANC's #12, #8, #10, ...

........................................................................
.............................. CYCLE   25 ..............................
........................................................................
   1   -190.7759448 -0.190776E+03  0.147E-01    0.27       0.0  T
   2   -190.7759408  0.396458E-05  0.820E-02    0.28       1.0  T
   3   -190.7711036  0.483725E-02  0.151E-01    0.23       1.0  T
   4   -190.7759139 -0.481036E-02  0.201E-02    0.28       1.0  T
   5   -190.7759822 -0.682985E-04  0.401E-03    0.27       2.6  T
   6   -190.7759836 -0.132445E-05  0.228E-03    0.27       4.5  T
   7   -190.7759838 -0.213442E-06  0.155E-03    0.27       6.6  T
     SCC iter.                  ...        0 min,  0.075 sec
     gradient                   ...        0 min,  0.018 sec
 * total energy  :  -187.7181220 Eh     change        0.1392080E-03 Eh
   gradient norm :     0.0240687 Eh/α   predicted    -0.3999441E-03 (-387.30%)
   displ. norm   :     0.1749046 α      lambda       -0.1010139E-02
   maximum displ.:     0.0698938 α      in ANC's #8, #10, #9, ...

........................................................................
.............................. CYCLE   26 ..............................
........................................................................
   1   -190.7813507 -0.190781E+03  0.130E-01    0.27       0.0  T
   2   -190.7813435  0.724350E-05  0.723E-02    0.27       1.0  T
   3   -190.7792443  0.209914E-02  0.105E-01    0.31       1.0  T
   4   -190.7813645 -0.212020E-02  0.116E-02    0.27       1.0  T
   5   -190.7813778 -0.132353E-04  0.479E-03    0.27       2.1  T
   6   -190.7813784 -0.608665E-06  0.355E-03    0.27       2.9  T
   7   -190.7813800 -0.156746E-05  0.108E-03    0.27       9.5  T
     SCC iter.                  ...        0 min,  0.076 sec
     gradient                   ...        0 min,  0.018 sec
 * total energy  :  -187.7184912 Eh     change       -0.3691913E-03 Eh
   gradient norm :     0.0124059 Eh/α   predicted    -0.5205217E-03 (  40.99%)
   displ. norm   :     0.2127215 α      lambda       -0.8239237E-03
   maximum displ.:     0.0834931 α      in ANC's #10, #12, #46, ...

........................................................................
.............................. CYCLE   27 ..............................
........................................................................
   1   -190.7899971 -0.190790E+03  0.123E-01    0.27       0.0  T
   2   -190.7900139 -0.168215E-04  0.679E-02    0.27       1.0  T
   3   -190.7895861  0.427782E-03  0.494E-02    0.29       1.0  T
   4   -190.7897880 -0.201914E-03  0.352E-02    0.26       1.0  T
   5   -190.7900253 -0.237306E-03  0.575E-03    0.27       1.8  T
   6   -190.7900277 -0.237119E-05  0.299E-03    0.27       3.4  T
   7   -190.7900286 -0.841618E-06  0.156E-03    0.27       6.6  T
     SCC iter.                  ...        0 min,  0.076 sec
     gradient                   ...        0 min,  0.018 sec
 * total energy  :  -187.7184657 Eh     change        0.2547202E-04 Eh
   gradient norm :     0.0252125 Eh/α   predicted    -0.4306043E-03 (*******%)
   displ. norm   :     0.1338979 α      lambda       -0.6566532E-03
   maximum displ.:     0.0616591 α      in ANC's #12, #10, #46, ...

........................................................................
.............................. CYCLE   28 ..............................
........................................................................
   1   -190.7847858 -0.190785E+03  0.688E-02    0.27       0.0  T
   2   -190.7847527  0.331216E-04  0.408E-02    0.27       1.0  T
   3   -190.7826851  0.206762E-02  0.105E-01    0.31       1.0  T
   4   -190.7847859 -0.210083E-02  0.966E-03    0.27       1.1  T
   5   -190.7847961 -0.101832E-04  0.327E-03    0.27       3.1  T
   6   -190.7847967 -0.669338E-06  0.228E-03    0.27       4.5  T
   7   -190.7847973 -0.553010E-06  0.897E-04    0.27      11.4  T
     SCC iter.                  ...        0 min,  0.076 sec
     gradient                   ...        0 min,  0.018 sec
 * total energy  :  -187.7188849 Eh     change       -0.4192024E-03 Eh
   gradient norm :     0.0054672 Eh/α   predicted    -0.3342136E-03 ( -20.27%)
   displ. norm   :     0.2770524 α      lambda       -0.3298419E-03
   maximum displ.:     0.1364352 α      in ANC's #10, #12, #5, ...

........................................................................
.............................. CYCLE   29 ..............................
........................................................................
   1   -190.7807561 -0.190781E+03  0.887E-02    0.27       0.0  T
   2   -190.7807485  0.761610E-05  0.503E-02    0.27       1.0  T
   3   -190.7795954  0.115311E-02  0.779E-02    0.29       1.0  T
   4   -190.7807330 -0.113761E-02  0.151E-02    0.27       1.0  T
   5   -190.7807618 -0.287823E-04  0.648E-03    0.27       1.6  T
   6   -190.7807650 -0.322440E-05  0.374E-03    0.27       2.7  T
   7   -190.7807667 -0.174544E-05  0.102E-03    0.27      10.0  T
   8   -190.7807668 -0.575464E-07  0.594E-04    0.27      17.3  T
     SCC iter.                  ...        0 min,  0.086 sec
     gradient                   ...        0 min,  0.018 sec
 * total energy  :  -187.7191003 Eh     change       -0.2153549E-03 Eh
   gradient norm :     0.0083338 Eh/α   predicted    -0.1775838E-03 ( -17.54%)
   displ. norm   :     0.4631652 α      lambda       -0.3875966E-03
   maximum displ.:     0.2234472 α      in ANC's #10, #12, #5, ...

........................................................................
.............................. CYCLE   30 ..............................
........................................................................
   1   -190.7779460 -0.190778E+03  0.127E-01    0.27       0.0  T
   2   -190.7777347  0.211220E-03  0.783E-02    0.26       1.0  T
   3   -190.7708757  0.685899E-02  0.198E-01    0.35       1.0  T
   4   -190.7778196 -0.694387E-02  0.278E-02    0.28       1.0  T
   5   -190.7779726 -0.152997E-03  0.700E-03    0.27       1.5  T
   6   -190.7779672  0.544442E-05  0.660E-03    0.26       1.6  T
   7   -190.7779734 -0.623194E-05  0.285E-03    0.27       3.6  T
   8   -190.7779742 -0.757381E-06  0.126E-03    0.27       8.1  T
   9   -190.7779743 -0.136253E-06  0.721E-04    0.27      14.2  T
     SCC iter.                  ...        0 min,  0.097 sec
     gradient                   ...        0 min,  0.018 sec
 * total energy  :  -187.7194191 Eh     change       -0.3188321E-03 Eh
   gradient norm :     0.0114647 Eh/α   predicted    -0.2353727E-03 ( -26.18%)
   displ. norm   :     0.6151022 α      lambda       -0.5061879E-03
   maximum displ.:     0.2977405 α      in ANC's #10, #12, #5, ...

........................................................................
.............................. CYCLE   31 ..............................
........................................................................
   1   -190.7775671 -0.190778E+03  0.158E-01    0.27       0.0  T
   2   -190.7773510  0.216029E-03  0.945E-02    0.25       1.0  T
   3   -190.7687962  0.855479E-02  0.222E-01    0.36       1.0  T
   4   -190.7774276 -0.863133E-02  0.302E-02    0.28       1.0  T
   5   -190.7775933 -0.165772E-03  0.995E-03    0.26       1.0  T
   6   -190.7776008 -0.748992E-05  0.446E-03    0.26       2.3  T
   7   -190.7776023 -0.146760E-05  0.206E-03    0.26       5.0  T
   8   -190.7776027 -0.397997E-06  0.967E-04    0.26      10.6  T
     SCC iter.                  ...        0 min,  0.086 sec
     gradient                   ...        0 min,  0.018 sec
 * total energy  :  -187.7198606 Eh     change       -0.4414483E-03 Eh
   gradient norm :     0.0082057 Eh/α   predicted    -0.3488555E-03 ( -20.97%)
   displ. norm   :     0.6865664 α      lambda       -0.5393213E-03
   maximum displ.:     0.3383107 α      in ANC's #10, #12, #5, ...

........................................................................
.............................. CYCLE   32 ..............................
........................................................................
   1   -190.7808774 -0.190781E+03  0.169E-01    0.26       0.0  T
   2   -190.7808628  0.145497E-04  0.959E-02    0.26       1.0  T
   3   -190.7783273  0.253552E-02  0.118E-01    0.29       1.0  T
   4   -190.7807156 -0.238828E-02  0.332E-02    0.25       1.0  T
   5   -190.7808560 -0.140456E-03  0.182E-02    0.27       1.0  T
   6   -190.7809003 -0.442550E-04  0.677E-03    0.26       1.5  T
   7   -190.7809057 -0.545073E-05  0.205E-03    0.26       5.0  T
   8   -190.7809061 -0.341318E-06  0.108E-03    0.26       9.5  T
   9   -190.7809061 -0.327254E-07  0.612E-04    0.26      16.8  T
     SCC iter.                  ...        0 min,  0.096 sec
     gradient                   ...        0 min,  0.018 sec
 * total energy  :  -187.7203191 Eh     change       -0.4585787E-03 Eh
   gradient norm :     0.0042854 Eh/α   predicted    -0.3967733E-03 ( -13.48%)
   displ. norm   :     0.7055293 α      lambda       -0.4714191E-03
   maximum displ.:     0.3551527 α      in ANC's #10, #5, #12, ...

........................................................................
.............................. CYCLE   33 ..............................
........................................................................
   1   -190.7829513 -0.190783E+03  0.169E-01    0.25       0.0  T
   2   -190.7829155  0.357716E-04  0.968E-02    0.26       1.0  T
   3   -190.7733310  0.958449E-02  0.210E-01    0.21       1.0  T
   4   -190.7827251 -0.939404E-02  0.375E-02    0.26       1.0  T
   5   -190.7829578 -0.232720E-03  0.144E-02    0.26       1.0  T
   6   -190.7829740 -0.162054E-04  0.719E-03    0.25       1.4  T
   7   -190.7829786 -0.459139E-05  0.295E-03    0.26       3.5  T
   8   -190.7829796 -0.101552E-05  0.135E-03    0.26       7.6  T
   9   -190.7829797 -0.109500E-06  0.721E-04    0.26      14.2  T
     SCC iter.                  ...        0 min,  0.096 sec
     gradient                   ...        0 min,  0.018 sec
 * total energy  :  -187.7207302 Eh     change       -0.4111052E-03 Eh
   gradient norm :     0.0057834 Eh/α   predicted    -0.3530438E-03 ( -14.12%)
   displ. norm   :     0.7175611 α      lambda       -0.4561019E-03
   maximum displ.:     0.3659552 α      in ANC's #10, #5, #2, ...

........................................................................
.............................. CYCLE   34 ..............................
........................................................................
   1   -190.7859403 -0.190786E+03  0.167E-01    0.25       0.0  T
   2   -190.7854443  0.496022E-03  0.107E-01    0.27       1.0  T
   3   -190.7266992  0.587451E-01  0.503E-01    0.19       1.0  T
   4   -190.7853886 -0.586895E-01  0.538E-02    0.28       1.0  T
   5   -190.7858489 -0.460280E-03  0.281E-02    0.27       1.0  T
   6   -190.7859124 -0.635173E-04  0.197E-02    0.26       1.0  T
   7   -190.7859774 -0.649374E-04  0.102E-02    0.26       1.0  T
   8   -190.7859898 -0.123821E-04  0.420E-03    0.25       2.4  T
   9   -190.7859912 -0.141486E-05  0.227E-03    0.25       4.5  T
  10   -190.7859915 -0.317169E-06  0.884E-04    0.25      11.6  T
     SCC iter.                  ...        0 min,  0.105 sec
     gradient                   ...        0 min,  0.018 sec
 * total energy  :  -187.7211328 Eh     change       -0.4025434E-03 Eh
   gradient norm :     0.0061637 Eh/α   predicted    -0.3454743E-03 ( -14.18%)
   displ. norm   :     0.7674247 α      lambda       -0.4471935E-03
   maximum displ.:     0.4008701 α      in ANC's #10, #5, #2, ...

........................................................................
.............................. CYCLE   35 ..............................
........................................................................
   1   -190.7843858 -0.190784E+03  0.178E-01    0.24       0.0  T
   2   -190.7832645  0.112126E-02  0.126E-01    0.27       1.0  T
   3   -190.7175131  0.657514E-01  0.535E-01    0.20       1.0  T
   4   -190.7832802 -0.657671E-01  0.767E-02    0.29       1.0  T
   5   -190.7841058 -0.825671E-03  0.428E-02    0.27       1.0  T
   6   -190.7842995 -0.193651E-03  0.294E-02    0.26       1.0  T
   7   -190.7844265 -0.127048E-03  0.166E-02    0.26       1.0  T
   8   -190.7844684 -0.418499E-04  0.671E-03    0.25       1.5  T
   9   -190.7844735 -0.507377E-05  0.397E-03    0.25       2.6  T
  10   -190.7844745 -0.101946E-05  0.140E-03    0.25       7.3  T
  11   -190.7844745 -0.585356E-07  0.847E-04    0.25      12.1  T
     SCC iter.                  ...        0 min,  0.117 sec
     gradient                   ...        0 min,  0.018 sec
 * total energy  :  -187.7215274 Eh     change       -0.3946408E-03 Eh
   gradient norm :     0.0050293 Eh/α   predicted    -0.3552847E-03 (  -9.97%)
   displ. norm   :     0.7235911 α      lambda       -0.4725819E-03
   maximum displ.:     0.3630087 α      in ANC's #10, #5, #2, ...

........................................................................
.............................. CYCLE   36 ..............................
........................................................................
   1   -190.7936487 -0.190794E+03  0.166E-01    0.23       0.0  T
   2   -190.7891902  0.445849E-02  0.178E-01    0.30       1.0  T
   3   -190.7760924  0.130979E-01  0.292E-01    0.21       1.0  T
   4   -190.7917678 -0.156754E-01  0.101E-01    0.30       1.0  T
   5   -190.7933235 -0.155570E-02  0.541E-02    0.27       1.0  T
   6   -190.7937093 -0.385873E-03  0.357E-02    0.26       1.0  T
   7   -190.7938529 -0.143590E-03  0.214E-02    0.25       1.0  T
   8   -190.7939357 -0.827724E-04  0.844E-03    0.25       1.2  T
   9   -190.7939441 -0.845605E-05  0.294E-03    0.25       3.5  T
  10   -190.7939444 -0.268466E-06  0.123E-03    0.25       8.3  T
  11   -190.7939446 -0.154177E-06  0.475E-04    0.25      21.6  T
     SCC iter.                  ...        0 min,  0.118 sec
     gradient                   ...        0 min,  0.018 sec
 * total energy  :  -187.7218616 Eh     change       -0.3341859E-03 Eh
   gradient norm :     0.0059177 Eh/α   predicted    -0.3600098E-03 (   7.73%)
   displ. norm   :     0.8018774 α      lambda       -0.4383826E-03
   maximum displ.:     0.4365792 α      in ANC's #10, #5, #2, ...

........................................................................
.............................. CYCLE   37 ..............................
........................................................................
   1   -190.7806573 -0.190781E+03  0.182E-01    0.24       0.0  T
   2   -190.7794437  0.121362E-02  0.130E-01    0.27       1.0  T
   3   -190.7102602  0.691835E-01  0.548E-01    0.21       1.0  T
   4   -190.7793693 -0.691091E-01  0.835E-02    0.29       1.0  T
   5   -190.7803417 -0.972373E-03  0.442E-02    0.26       1.0  T
   6   -190.7805908 -0.249109E-03  0.292E-02    0.26       1.0  T
   7   -190.7806863 -0.954692E-04  0.176E-02    0.25       1.0  T
   8   -190.7807413 -0.549870E-04  0.880E-03    0.25       1.2  T
   9   -190.7807482 -0.693360E-05  0.342E-03    0.24       3.0  T
  10   -190.7807486 -0.413431E-06  0.178E-03    0.24       5.8  T
  11   -190.7807489 -0.234884E-06  0.727E-04    0.24      14.1  T
     SCC iter.                  ...        0 min,  0.116 sec
     gradient                   ...        0 min,  0.018 sec
 * total energy  :  -187.7221565 Eh     change       -0.2949307E-03 Eh
   gradient norm :     0.0075061 Eh/α   predicted    -0.3601378E-03 (  22.11%)
   displ. norm   :     0.5242375 α      lambda       -0.2282401E-03
   maximum displ.:     0.2612186 α      in ANC's #10, #5, #2, ...

........................................................................
.............................. CYCLE   38 ..............................
........................................................................
   1   -190.7811506 -0.190781E+03  0.111E-01    0.24       0.0  T
   2   -190.7794011  0.174942E-02  0.113E-01    0.27       1.0  T
   3   -190.7712068  0.819437E-02  0.218E-01    0.21       1.0  T
   4   -190.7805666 -0.935983E-02  0.563E-02    0.27       1.0  T
   5   -190.7811128 -0.546138E-03  0.250E-02    0.25       1.0  T
   6   -190.7812156 -0.102831E-03  0.135E-02    0.25       1.0  T
   7   -190.7812349 -0.193279E-04  0.708E-03    0.25       1.4  T
   8   -190.7812423 -0.735151E-05  0.377E-03    0.24       2.7  T
   9   -190.7812437 -0.139318E-05  0.135E-03    0.24       7.6  T
  10   -190.7812438 -0.105372E-06  0.700E-04    0.24      14.7  T
     SCC iter.                  ...        0 min,  0.106 sec
     gradient                   ...        0 min,  0.018 sec
 * total energy  :  -187.7223488 Eh     change       -0.1922383E-03 Eh
   gradient norm :     0.0063150 Eh/α   predicted    -0.1454854E-03 ( -24.32%)
   displ. norm   :     0.5526627 α      lambda       -0.3101699E-03
   maximum displ.:     0.2776869 α      in ANC's #5, #10, #2, ...

........................................................................
.............................. CYCLE   39 ..............................
........................................................................
   1   -190.7899210 -0.190790E+03  0.108E-01    0.24       0.0  T
   2   -190.7885533  0.136775E-02  0.102E-01    0.27       1.0  T
   3   -190.7782637  0.102896E-01  0.234E-01    0.21       1.0  T
   4   -190.7893263 -0.110626E-01  0.583E-02    0.27       1.0  T
   5   -190.7898577 -0.531383E-03  0.253E-02    0.25       1.0  T
   6   -190.7899665 -0.108815E-03  0.136E-02    0.25       1.0  T
   7   -190.7899881 -0.216010E-04  0.634E-03    0.25       1.6  T
   8   -190.7899929 -0.480203E-05  0.335E-03    0.25       3.1  T
   9   -190.7899938 -0.904261E-06  0.140E-03    0.24       7.3  T
  10   -190.7899940 -0.140657E-06  0.696E-04    0.24      14.7  T
     SCC iter.                  ...        0 min,  0.105 sec
     gradient                   ...        0 min,  0.018 sec
 * total energy  :  -187.7225740 Eh     change       -0.2252009E-03 Eh
   gradient norm :     0.0047225 Eh/α   predicted    -0.2024532E-03 ( -10.10%)
   displ. norm   :     0.6861135 α      lambda       -0.2456424E-03
   maximum displ.:     0.3473403 α      in ANC's #5, #10, #2, ...

........................................................................
.............................. CYCLE   40 ..............................
........................................................................
   1   -190.7883603 -0.190788E+03  0.134E-01    0.24       0.0  T
   2   -190.7870664  0.129390E-02  0.111E-01    0.27       1.0  T
   3   -190.7621430  0.249234E-01  0.342E-01    0.21       1.0  T
   4   -190.7874674 -0.253243E-01  0.708E-02    0.28       1.0  T
   5   -190.7881914 -0.723992E-03  0.334E-02    0.26       1.0  T
   6   -190.7883683 -0.176923E-03  0.200E-02    0.25       1.0  T
   7   -190.7884120 -0.436950E-04  0.112E-02    0.25       1.0  T
   8   -190.7884305 -0.185615E-04  0.569E-03    0.25       1.8  T
   9   -190.7884341 -0.353215E-05  0.187E-03    0.25       5.5  T
  10   -190.7884342 -0.949627E-07  0.954E-04    0.25      10.8  T
  11   -190.7884343 -0.816864E-07  0.330E-04    0.25      31.1  T
     SCC iter.                  ...        0 min,  0.115 sec
     gradient                   ...        0 min,  0.018 sec
 * total energy  :  -187.7227725 Eh     change       -0.1985222E-03 Eh
   gradient norm :     0.0044100 Eh/α   predicted    -0.1806403E-03 (  -9.01%)
   displ. norm   :     0.5972815 α      lambda       -0.2262076E-03
   maximum displ.:     0.3196436 α      in ANC's #5, #10, #2, ...

........................................................................
.............................. CYCLE   41 ..............................
........................................................................
   1   -190.7891316 -0.190789E+03  0.110E-01    0.25       0.0  T
   2   -190.7889998  0.131789E-03  0.679E-02    0.25       1.0  T
   3   -190.7721988  0.168010E-01  0.273E-01    0.22       1.0  T
   4   -190.7889219 -0.167231E-01  0.361E-02    0.26       1.0  T
   5   -190.7891274 -0.205522E-03  0.117E-02    0.25       1.0  T
   6   -190.7891447 -0.172902E-04  0.692E-03    0.25       1.5  T
   7   -190.7891487 -0.403227E-05  0.373E-03    0.25       2.7  T
   8   -190.7891503 -0.156766E-05  0.165E-03    0.25       6.2  T
   9   -190.7891505 -0.177613E-06  0.809E-04    0.25      12.7  T
     SCC iter.                  ...        0 min,  0.094 sec
     gradient                   ...        0 min,  0.018 sec
 * total energy  :  -187.7229450 Eh     change       -0.1724722E-03 Eh
   gradient norm :     0.0054503 Eh/α   predicted    -0.1534543E-03 ( -11.03%)
   displ. norm   :     0.6073988 α      lambda       -0.2280749E-03
   maximum displ.:     0.3375570 α      in ANC's #5, #10, #2, ...

........................................................................
.............................. CYCLE   42 ..............................
........................................................................
   1   -190.7890126 -0.190789E+03  0.111E-01    0.25       0.0  T
   2   -190.7890140 -0.133709E-05  0.638E-02    0.25       1.0  T
   3   -190.7880233  0.990691E-03  0.709E-02    0.24       1.0  T
   4   -190.7887133 -0.690077E-03  0.394E-02    0.26       1.0  T
   5   -190.7890148 -0.301403E-03  0.103E-02    0.25       1.0  T
   6   -190.7890257 -0.109947E-04  0.536E-03    0.25       1.9  T
   7   -190.7890281 -0.235045E-05  0.264E-03    0.25       3.9  T
   8   -190.7890289 -0.815516E-06  0.106E-03    0.25       9.7  T
     SCC iter.                  ...        0 min,  0.086 sec
     gradient                   ...        0 min,  0.018 sec
 * total energy  :  -187.7231163 Eh     change       -0.1713644E-03 Eh
   gradient norm :     0.0065789 Eh/α   predicted    -0.1561106E-03 (  -8.90%)
   displ. norm   :     0.5596565 α      lambda       -0.2332726E-03
   maximum displ.:     0.3219152 α      in ANC's #5, #2, #10, ...
 * RMSD in coord.:     0.9787329 α      energy gain  -0.5844712E-02 Eh

generating ANC from model Hessian ...
Using Lindh-Hessian (1995)
 Shifting diagonal of input Hessian by   5.026295071605639E-003
 Lowest  eigenvalues of input Hessian
    0.005000   -0.000000   -0.000000    0.000000    0.000000    0.000000
    0.000000    0.005044    0.005050    0.005061    0.005132    0.005192
    0.005237    0.005407    0.005443    0.005554    0.005567    0.005800
 Highest eigenvalues
    2.282297    2.293190    2.608204    2.643236    2.646231    2.648299
 

........................................................................
.............................. CYCLE   43 ..............................
........................................................................
   1   -190.7920401 -0.190792E+03  0.105E-01    0.25       0.0  T
   2   -190.7918526  0.187539E-03  0.680E-02    0.24       1.0  T
   3   -190.7852532  0.659936E-02  0.188E-01    0.31       1.0  T
   4   -190.7919721 -0.671884E-02  0.278E-02    0.26       1.0  T
   5   -190.7920539 -0.818337E-04  0.112E-02    0.25       1.0  T
   6   -190.7920649 -0.109531E-04  0.691E-03    0.25       1.5  T
   7   -190.7920716 -0.676096E-05  0.261E-03    0.25       3.9  T
   8   -190.7920718 -0.188909E-06  0.160E-03    0.25       6.4  T
   9   -190.7920721 -0.314788E-06  0.719E-04    0.25      14.3  T
  10   -190.7920722 -0.236795E-07  0.397E-04    0.25      25.8  T
     SCC iter.                  ...        0 min,  0.107 sec
     gradient                   ...        0 min,  0.019 sec
 * total energy  :  -187.7232356 Eh     change       -0.1192242E-03 Eh
   gradient norm :     0.0098767 Eh/α   predicted     0.0000000E+00 (-100.00%)
   displ. norm   :     0.1121340 α      lambda       -0.1901404E-03
   maximum displ.:     0.0420239 α      in ANC's #3, #7, #19, ...

........................................................................
.............................. CYCLE   44 ..............................
........................................................................
   1   -190.7910377 -0.190791E+03  0.603E-02    0.25       0.0  T
   2   -190.7910433 -0.554819E-05  0.331E-02    0.25       1.0  T
   3   -190.7908813  0.161981E-03  0.285E-02    0.24       1.0  T
   4   -190.7909696 -0.883536E-04  0.194E-02    0.25       1.0  T
   5   -190.7910454 -0.757610E-04  0.363E-03    0.25       2.8  T
   6   -190.7910462 -0.769359E-06  0.236E-03    0.25       4.4  T
   7   -190.7910468 -0.682864E-06  0.968E-04    0.25      10.6  T
     SCC iter.                  ...        0 min,  0.075 sec
     gradient                   ...        0 min,  0.018 sec
 * total energy  :  -187.7232759 Eh     change       -0.4037835E-04 Eh
   gradient norm :     0.0058658 Eh/α   predicted    -0.9630441E-04 ( 138.51%)
   displ. norm   :     0.1705196 α      lambda       -0.4110162E-03
   maximum displ.:     0.0696100 α      in ANC's #17, #9, #6, ...

........................................................................
.............................. CYCLE   45 ..............................
........................................................................
   1   -190.7906547 -0.190791E+03  0.911E-02    0.25       0.0  T
   2   -190.7906689 -0.142112E-04  0.500E-02    0.25       1.0  T
   3   -190.7901766  0.492335E-03  0.505E-02    0.25       1.0  T
   4   -190.7903641 -0.187478E-03  0.390E-02    0.24       1.0  T
   5   -190.7906574 -0.293317E-03  0.120E-02    0.25       1.0  T
   6   -190.7906793 -0.219190E-04  0.424E-03    0.25       2.4  T
   7   -190.7906813 -0.204483E-05  0.156E-03    0.25       6.6  T
   8   -190.7906815 -0.178768E-06  0.730E-04    0.25      14.0  T
     SCC iter.                  ...        0 min,  0.085 sec
     gradient                   ...        0 min,  0.018 sec
 * total energy  :  -187.7232013 Eh     change        0.7460366E-04 Eh
   gradient norm :     0.0167894 Eh/α   predicted    -0.2114846E-03 (-383.48%)
   displ. norm   :     0.0639372 α      lambda       -0.4023582E-03
   maximum displ.:     0.0229946 α      in ANC's #17, #51, #9, ...

........................................................................
.............................. CYCLE   46 ..............................
........................................................................
   1   -190.7910511 -0.190791E+03  0.418E-02    0.25       0.0  T
   2   -190.7910287  0.223894E-04  0.259E-02    0.25       1.0  T
   3   -190.7898454  0.118330E-02  0.775E-02    0.27       1.0  T
   4   -190.7910440 -0.119861E-02  0.110E-02    0.25       1.0  T
   5   -190.7910581 -0.141266E-04  0.500E-03    0.25       2.1  T
   6   -190.7910606 -0.250360E-05  0.293E-03    0.25       3.5  T
   7   -190.7910617 -0.110417E-05  0.110E-03    0.25       9.3  T
     SCC iter.                  ...        0 min,  0.075 sec
     gradient                   ...        0 min,  0.018 sec
 * total energy  :  -187.7234144 Eh     change       -0.2130725E-03 Eh
   gradient norm :     0.0028212 Eh/α   predicted    -0.2020031E-03 (  -5.20%)
   displ. norm   :     0.0689235 α      lambda       -0.6050505E-04
   maximum displ.:     0.0240219 α      in ANC's #44, #6, #7, ...

........................................................................
.............................. CYCLE   47 ..............................
........................................................................
   1   -190.7909141 -0.190791E+03  0.312E-02    0.25       0.0  T
   2   -190.7908920  0.221102E-04  0.202E-02    0.25       1.0  T
   3   -190.7899699  0.922099E-03  0.679E-02    0.27       1.0  T
   4   -190.7909157 -0.945783E-03  0.366E-03    0.25       2.8  T
   5   -190.7909168 -0.103773E-05  0.158E-03    0.25       6.5  T
   6   -190.7909167  0.238191E-07  0.138E-03    0.25       7.5  T
   7   -190.7909170 -0.255547E-06  0.555E-04    0.25      18.5  T
   8   -190.7909170 -0.327048E-07  0.261E-04    0.25      39.3  T
     SCC iter.                  ...        0 min,  0.087 sec
     gradient                   ...        0 min,  0.019 sec
 * total energy  :  -187.7234320 Eh     change       -0.1759889E-04 Eh
   gradient norm :     0.0023229 Eh/α   predicted    -0.3040054E-04 (  72.74%)
   displ. norm   :     0.1190863 α      lambda       -0.7974044E-04
   maximum displ.:     0.0468860 α      in ANC's #6, #5, #7, ...

........................................................................
.............................. CYCLE   48 ..............................
........................................................................
   1   -190.7908323 -0.190791E+03  0.334E-02    0.25       0.0  T
   2   -190.7907803  0.520719E-04  0.245E-02    0.25       1.0  T
   3   -190.7898282  0.952079E-03  0.705E-02    0.27       1.0  T
   4   -190.7908340 -0.100578E-02  0.470E-03    0.25       2.2  T
   5   -190.7908354 -0.145375E-05  0.240E-03    0.25       4.3  T
   6   -190.7908355 -0.117040E-06  0.167E-03    0.25       6.1  T
   7   -190.7908360 -0.418586E-06  0.569E-04    0.25      18.0  T
   8   -190.7908360 -0.181715E-07  0.397E-04    0.25      25.8  T
     SCC iter.                  ...        0 min,  0.086 sec
     gradient                   ...        0 min,  0.019 sec
 * total energy  :  -187.7234966 Eh     change       -0.6458516E-04 Eh
   gradient norm :     0.0021707 Eh/α   predicted    -0.4043691E-04 ( -37.39%)
   displ. norm   :     0.3338912 α      lambda       -0.1490842E-03
   maximum displ.:     0.1317641 α      in ANC's #6, #5, #7, ...

........................................................................
.............................. CYCLE   49 ..............................
........................................................................
   1   -190.7899902 -0.190790E+03  0.889E-02    0.25       0.0  T
   2   -190.7895043  0.485873E-03  0.692E-02    0.24       1.0  T
   3   -190.7846704  0.483393E-02  0.166E-01    0.30       1.0  T
   4   -190.7898600 -0.518961E-02  0.292E-02    0.26       1.0  T
   5   -190.7900065 -0.146483E-03  0.880E-03    0.25       1.2  T
   6   -190.7900105 -0.403395E-05  0.683E-03    0.25       1.5  T
   7   -190.7900168 -0.628646E-05  0.235E-03    0.25       4.4  T
   8   -190.7900172 -0.355169E-06  0.126E-03    0.25       8.2  T
   9   -190.7900173 -0.157473E-06  0.548E-04    0.25      18.7  T
  10   -190.7900173 -0.141265E-07  0.374E-04    0.25      27.4  T
     SCC iter.                  ...        0 min,  0.107 sec
     gradient                   ...        0 min,  0.019 sec
 * total energy  :  -187.7236009 Eh     change       -0.1043451E-03 Eh
   gradient norm :     0.0037041 Eh/α   predicted    -0.8285487E-04 ( -20.60%)
   displ. norm   :     0.4098491 α      lambda       -0.1475628E-03
   maximum displ.:     0.1638912 α      in ANC's #6, #5, #7, ...

........................................................................
.............................. CYCLE   50 ..............................
........................................................................
   1   -190.7894950 -0.190789E+03  0.993E-02    0.25       0.0  T
   2   -190.7884300  0.106498E-02  0.905E-02    0.23       1.0  T
   3   -190.7844372  0.399285E-02  0.164E-01    0.30       1.0  T
   4   -190.7892360 -0.479885E-02  0.405E-02    0.27       1.0  T
   5   -190.7895104 -0.274392E-03  0.138E-02    0.25       1.0  T
   6   -190.7895352 -0.247654E-04  0.811E-03    0.25       1.3  T
   7   -190.7895425 -0.737139E-05  0.313E-03    0.25       3.3  T
   8   -190.7895430 -0.463291E-06  0.189E-03    0.25       5.4  T
   9   -190.7895433 -0.340421E-06  0.773E-04    0.25      13.3  T
  10   -190.7895434 -0.509682E-07  0.479E-04    0.25      21.4  T
     SCC iter.                  ...        0 min,  0.107 sec
     gradient                   ...        0 min,  0.019 sec
 * total energy  :  -187.7236908 Eh     change       -0.8984469E-04 Eh
   gradient norm :     0.0054345 Eh/α   predicted    -0.8617509E-04 (  -4.08%)
   displ. norm   :     0.3297404 α      lambda       -0.1216483E-03
   maximum displ.:     0.1347084 α      in ANC's #6, #5, #7, ...

........................................................................
.............................. CYCLE   51 ..............................
........................................................................
   1   -190.7893605 -0.190789E+03  0.761E-02    0.25       0.0  T
   2   -190.7889170  0.443512E-03  0.633E-02    0.24       1.0  T
   3   -190.7857660  0.315090E-02  0.136E-01    0.29       1.0  T
   4   -190.7892569 -0.349085E-02  0.266E-02    0.26       1.0  T
   5   -190.7893702 -0.113305E-03  0.897E-03    0.25       1.1  T
   6   -190.7893791 -0.889439E-05  0.553E-03    0.25       1.9  T
   7   -190.7893829 -0.375650E-05  0.198E-03    0.25       5.2  T
   8   -190.7893831 -0.253957E-06  0.103E-03    0.25       9.9  T
   9   -190.7893833 -0.141401E-06  0.428E-04    0.25      24.0  T
     SCC iter.                  ...        0 min,  0.095 sec
     gradient                   ...        0 min,  0.018 sec
 * total energy  :  -187.7237936 Eh     change       -0.1028370E-03 Eh
   gradient norm :     0.0050005 Eh/α   predicted    -0.6743986E-04 ( -34.42%)
   displ. norm   :     0.4515066 α      lambda       -0.2009613E-03
   maximum displ.:     0.1907641 α      in ANC's #6, #5, #3, ...

........................................................................
.............................. CYCLE   52 ..............................
........................................................................
   1   -190.7906608 -0.190791E+03  0.102E-01    0.26       0.0  T
   2   -190.7901283  0.532553E-03  0.773E-02    0.24       1.0  T
   3   -190.7843804  0.574791E-02  0.181E-01    0.32       1.0  T
   4   -190.7903893 -0.600899E-02  0.410E-02    0.27       1.0  T
   5   -190.7906620 -0.272697E-03  0.137E-02    0.26       1.0  T
   6   -190.7906862 -0.242006E-04  0.791E-03    0.25       1.3  T
   7   -190.7906937 -0.744576E-05  0.276E-03    0.25       3.7  T
   8   -190.7906939 -0.242059E-06  0.154E-03    0.25       6.7  T
   9   -190.7906943 -0.385772E-06  0.617E-04    0.25      16.6  T
     SCC iter.                  ...        0 min,  0.094 sec
     gradient                   ...        0 min,  0.018 sec
 * total energy  :  -187.7239492 Eh     change       -0.1555945E-03 Eh
   gradient norm :     0.0031522 Eh/α   predicted    -0.1209662E-03 ( -22.26%)
   displ. norm   :     0.5698921 α      lambda       -0.1996335E-03
   maximum displ.:     0.2413581 α      in ANC's #6, #5, #3, ...

........................................................................
.............................. CYCLE   53 ..............................
........................................................................
   1   -190.7898629 -0.190790E+03  0.134E-01    0.26       0.0  T
   2   -190.7891834  0.679467E-03  0.955E-02    0.24       1.0  T
   3   -190.7802795  0.890389E-02  0.226E-01    0.35       1.0  T
   4   -190.7893254 -0.904583E-02  0.558E-02    0.28       1.0  T
   5   -190.7898560 -0.530600E-03  0.183E-02    0.26       1.0  T
   6   -190.7898978 -0.418389E-04  0.110E-02    0.26       1.0  T
   7   -190.7899118 -0.139480E-04  0.393E-03    0.26       2.6  T
[...]
      -------------------------------------------------------------
                  HL-Gap            0.0100203 Eh            0.2727 eV
             Fermi-level           -0.3685367 Eh          -10.0284 eV

     #   Z        covCN         q      C6AA      α(0)
     1   6 C      2.919    -0.054    29.332     8.881
     2   6 C      2.775     0.164    24.458     8.100
     3   9 F      0.787    -0.187    11.105     3.936
     4   6 C      2.775     0.163    24.470     8.102
     5   9 F      0.787    -0.188    11.114     3.938
     6   6 C      2.919    -0.053    29.326     8.880
     7   6 C      2.989     0.017    27.617     8.620
     8   6 C      2.988     0.019    27.570     8.613
     9   6 C      2.915    -0.028    28.690     8.783
    10   6 C      3.023     0.010    27.768     8.644
    11   6 C      3.030    -0.015    28.363     8.736
    12   6 C      2.913    -0.013    28.348     8.731
    13   6 C      2.861     0.236    23.067     7.872
    14   8 O      0.856    -0.370    21.085     6.156
    15   6 C      3.007    -0.016    28.386     8.740
    16   6 C      3.008     0.034    27.234     8.561
    17   6 C      2.947     0.016    27.662     8.626
    18   6 C      1.937     0.125    28.017     8.548
    19   7 N      0.911    -0.219    25.788     7.345
    20   6 C      1.936     0.123    28.056     8.554
    21   7 N      0.911    -0.217    25.733     7.337
    22   6 C      2.902    -0.002    28.086     8.690
    23   6 C      2.915     0.092    25.948     8.353
    24   7 N      1.930    -0.122    24.409     7.326
    25   7 N      1.936    -0.131    24.605     7.355
    26   6 C      2.907     0.086    26.079     8.374
    27   6 C      3.354     0.076    23.615     7.647
    28   6 C      3.366     0.091    23.082     7.526
    29   7 N      1.853    -0.276    28.012     7.844
    30  16 S      2.705     0.405   125.624    18.864
    31   7 N      1.855    -0.264    27.701     7.801
    32   6 C      3.069    -0.008    28.153     8.700
    33   6 C      3.009    -0.028    28.680     8.785
    34   6 C      3.081     0.016    27.571     8.608
    35   6 C      1.899     0.114    28.306     8.592
    36   7 N      0.911    -0.231    26.063     7.384
    37   6 C      3.001    -0.039    28.957     8.827
    38   6 C      3.072     0.028    27.299     8.567
    39   6 C      3.072     0.039    27.048     8.527
    40   6 C      3.053     0.004    27.891     8.661
    41   6 C      3.006    -0.040    28.975     8.830
    42   6 C      3.083     0.027    27.309     8.567
    43   6 C      2.993    -0.033    28.800     8.803
    44   6 C      1.900     0.118    28.214     8.579
    45   7 N      0.911    -0.225    25.921     7.363
    46   6 C      2.898    -0.021    28.528     8.757
    47   6 C      2.987    -0.043    29.068     8.844
    48   6 C      2.946     0.035    27.223     8.558
    49   6 C      2.937    -0.033    28.834     8.807
    50   6 C      3.070     0.004    27.871     8.656
    51   6 C      3.087     0.003    27.865     8.653
    52   6 C      2.889    -0.004    28.122     8.694
    53  16 S      2.137     0.035   139.644    19.889
    54   6 C      3.098     0.006    27.774     8.637
    55   6 C      3.236    -0.005    27.260     8.470
    56   6 C      3.062    -0.042    28.967     8.826
    57   6 C      2.950    -0.014    28.355     8.734
    58  16 S      2.224    -0.008   141.399    20.014
    59   6 C      3.030    -0.001    28.027     8.684
    60   6 C      2.901    -0.020    28.500     8.753
    61   6 C      2.901    -0.033    28.832     8.804
    62   6 C      2.902     0.005    27.916     8.663
    63   6 C      3.003    -0.058    29.429     8.899
    64   6 C      2.861     0.223    23.318     7.915
    65   8 O      0.856    -0.367    21.037     6.149
    66   6 C      3.028    -0.016    28.380     8.738
    67   6 C      2.913    -0.015    28.376     8.735
    68   6 C      2.922    -0.021    28.525     8.758
    69   6 C      2.922    -0.021    28.536     8.760
    70   6 C      2.913    -0.015    28.381     8.736
    71   6 C      3.031    -0.016    28.389     8.740
    72   6 C      2.857     0.226    23.258     7.905
    73   8 O      0.856    -0.381    21.303     6.188
    74   1 H      0.926     0.085     1.925     2.170
    75   1 H      0.926     0.082     1.955     2.186
    76   1 H      0.926     0.068     2.104     2.268
    77   1 H      0.926     0.071     2.071     2.250
    78   1 H      0.926     0.088     1.895     2.153
    79   1 H      0.926     0.059     2.216     2.328
    80   1 H      0.926     0.044     2.390     2.417
    81   1 H      0.926     0.044     2.393     2.419
    82   1 H      0.926     0.049     2.330     2.387
    83   1 H      0.925     0.050     2.314     2.379
    84   1 H      0.925     0.060     2.199     2.319
    85   1 H      0.926     0.059     2.211     2.325
    86   1 H      0.926     0.071     2.072     2.251
    87   1 H      0.926     0.067     2.116     2.275
    88   1 H      0.926     0.055     2.254     2.348
    89   1 H      0.925     0.044     2.397     2.421
    90   1 H      0.926     0.084     1.933     2.174
    91   1 H      0.925     0.062     2.174     2.306
    92   1 H      0.926     0.059     2.211     2.325
    93   1 H      0.926     0.047     2.356     2.400
    94   1 H      0.926     0.047     2.362     2.404
    95   1 H      0.926     0.058     2.228     2.334

 Mol. C6AA /au·bohr⁶  :     182477.733069
 Mol. C8AA /au·bohr⁸  :    5036848.520724
 Mol. α(0) /au        :        685.082557


Wiberg/Mayer (AO) data.
largest (>0.10) Wiberg bond orders for each atom
          total WBO             WBO to atom ...
     1  C   3.975        C    2 1.497    C    8 1.282    H   74 0.960    C    6 0.106
     2  C   3.889        C    1 1.497    C    4 1.240    F    3 0.988
     3  F   1.127        C    2 0.988
     4  C   3.884        C    6 1.495    C    2 1.240    F    5 0.987
     5  F   1.125        C    4 0.987
     6  C   3.977        C    4 1.495    C    7 1.285    H   75 0.961    C    1 0.106
     7  C   3.980        C    6 1.285    C   12 1.276    C    8 1.237
     8  C   3.984        C    1 1.282    C    9 1.282    C    7 1.237
     9  C   3.971        C   10 1.493    C    8 1.282    H   76 0.957
    10  C   3.982        C    9 1.493    C   11 1.202    C   16 1.093
    11  C   3.978        C   12 1.515    C   10 1.202    C   13 1.030
    12  C   3.981        C   11 1.515    C    7 1.276    H   77 0.962
    13  C   3.925        O   14 1.778    C   11 1.030    C   15 1.007
    14  O   2.060        C   13 1.778
    15  C   3.977        C   22 1.672    C   16 1.105    C   13 1.007
    16  C   3.976        C   17 1.517    C   15 1.105    C   10 1.093
    17  C   3.954        C   16 1.517    C   18 1.091    C   20 1.091
    18  C   3.947        N   19 2.775    C   17 1.091
    19  N   2.981        C   18 2.775
    20  C   3.948        N   21 2.774    C   17 1.091
    21  N   2.981        C   20 2.774
    22  C   3.949        C   15 1.672    C   23 1.079    H   78 0.938
    23  C   3.958        N   24 1.475    C   28 1.162    C   22 1.079
    24  N   3.106        C   23 1.475    N   25 1.345
    25  N   3.118        C   26 1.423    N   24 1.345
    26  C   3.968        N   25 1.423    C   27 1.160    C   32 1.140
    27  C   3.968        N   31 1.393    C   28 1.187    C   26 1.160
    28  C   3.965        N   29 1.389    C   27 1.187    C   23 1.162
    29  N   3.080        S   30 1.437    C   28 1.389    N   31 0.158
    30  S   3.216        N   31 1.442    N   29 1.437
    31  N   3.088        S   30 1.442    C   27 1.393    N   29 0.158
    32  C   3.962        C   33 1.545    C   26 1.140    C   38 1.073
    33  C   3.933        C   32 1.545    C   34 1.150    H   79 0.969
    34  C   3.921        C   37 1.480    C   33 1.150    C   35 1.127
    35  C   3.947        N   36 2.774    C   34 1.127
    36  N   2.951        C   35 2.774
    37  C   3.936        C   34 1.480    C   38 1.206    H   80 0.968
    38  C   3.919        C   39 1.424    C   37 1.206    C   32 1.073
    39  C   3.928        C   38 1.424    C   43 1.241    C   40 1.029
    40  C   3.969        C   41 1.522    C   46 1.244    C   39 1.029
    41  C   3.873        C   40 1.522    C   42 1.163    H   81 0.972
    42  C   3.919        C   43 1.454    C   41 1.163    C   44 1.125
    43  C   3.928        C   42 1.454    C   39 1.241    H   82 0.968
    44  C   3.947        N   45 2.776    C   42 1.125
    45  N   2.948        C   44 2.776
    46  C   3.935        C   47 1.560    C   40 1.244    H   83 0.953
    47  C   3.971        C   46 1.560    C   48 1.238    H   84 0.952
    48  C   3.901        C   49 1.414    C   47 1.238    S   53 1.084
    49  C   3.926        C   48 1.414    C   50 1.382    H   85 0.944
    50  C   3.930        C   49 1.382    C   59 1.259    C   51 1.077
    51  C   3.973        C   52 1.563    C   54 1.172    C   50 1.077
    52  C   3.941        C   51 1.563    S   53 1.204    H   86 0.958
    53  S   2.603        C   52 1.204    C   48 1.084
    54  C   3.896        C   55 1.343    C   51 1.172    S   58 1.164
    55  C   3.968        C   54 1.343    C   56 1.241    C   59 1.154
    56  C   3.976        C   57 1.639    C   55 1.241    H   87 0.952
    57  C   3.923        C   56 1.639    S   58 1.168    H   88 0.970
    58  S   2.610        C   57 1.168    C   54 1.164
    59  C   3.902        C   60 1.276    C   50 1.259    C   55 1.154
    60  C   3.972        C   61 1.538    C   59 1.276    H   89 0.956
    61  C   3.876        C   60 1.538    C   62 1.275    H   90 0.947
    62  C   3.956        C   63 1.548    C   61 1.275    H   91 0.957
    63  C   3.887        C   62 1.548    C   72 1.054    C   64 1.044
    64  C   3.929        O   65 1.774    C   63 1.044    C   66 1.008
    65  O   2.047        C   64 1.774
    66  C   3.980        C   67 1.421    C   71 1.314    C   64 1.008
    67  C   3.985        C   68 1.424    C   66 1.421    H   92 0.967
    68  C   3.981        C   69 1.440    C   67 1.424    H   93 0.970
    69  C   3.982        C   68 1.440    C   70 1.425    H   94 0.970
    70  C   3.985        C   69 1.425    C   71 1.419    H   95 0.967
    71  C   3.981        C   70 1.419    C   66 1.314    C   72 1.011
    72  C   3.927        O   73 1.755    C   63 1.054    C   71 1.011
    73  O   2.039        C   72 1.755
    74  H   0.992        C    1 0.960
    75  H   0.993        C    6 0.961
    76  H   0.994        C    9 0.957
    77  H   0.994        C   12 0.962
    78  H   0.987        C   22 0.938
    79  H   0.996        C   33 0.969
    80  H   0.998        C   37 0.968
    81  H   0.997        C   41 0.972
    82  H   0.997        C   43 0.968
    83  H   0.996        C   46 0.953
    84  H   0.996        C   47 0.952
    85  H   0.996        C   49 0.944
    86  H   0.994        C   52 0.958
    87  H   0.995        C   56 0.952
    88  H   0.996        C   57 0.970
    89  H   0.997        C   60 0.956
    90  H   0.993        C   61 0.947
    91  H   0.995        C   62 0.957
    92  H   0.996        C   67 0.967
    93  H   0.997        C   68 0.970
    94  H   0.997        C   69 0.970
    95  H   0.996        C   70 0.967

molecular dipole:
                 x           y           z       tot (Debye)
 q only:       -1.325      -2.558       0.266
   full:       -0.892      -2.743       0.077       7.333
molecular quadrupole (traceless):
                xx          xy          yy          xz          yz          zz
 q only:      -25.205      84.438      50.888      16.498      25.935     -25.683
  q+dip:      -42.348      82.995      48.850      18.075      53.605      -6.502
   full:      -36.207      76.965      39.382      21.833      50.083      -3.175

           -------------------------------------------------
          |                Geometry Summary                 |
           -------------------------------------------------

      molecular mass/u    :     1001.0294000
   center of mass at/Å    :       -4.4396435      -9.2994153      -2.0608823
  moments of inertia/u·Å² :        0.1138977E+05   0.6816054E+05   0.7452353E+05
rotational constants/cm⁻¹ :        0.1480068E-02   0.2473224E-03   0.2262055E-03

 * 89 selected distances

     #   Z        #   Z                                     value/Å
     1   6 C      2   6 C                                 1.3666091
     2   6 C      3   9 F                                 1.3381870
     2   6 C      4   6 C                                 1.4102723
     4   6 C      5   9 F                                 1.3385974
     4   6 C      6   6 C                                 1.3666091
     6   6 C      7   6 C                                 1.4086457
     1   6 C      8   6 C                                 1.4098365
     7   6 C      8   6 C                                 1.4257420
     8   6 C      9   6 C                                 1.4130228
     9   6 C     10   6 C                                 1.3714564
    10   6 C     11   6 C                                 1.4239304
     7   6 C     12   6 C                                 1.4116523
    11   6 C     12   6 C                                 1.3660301
    13   6 C     14   8 O                                 1.2112665
    16   6 C     17   6 C                                 1.3662702
    18   6 C     19   7 N                                 1.1472649
    20   6 C     21   7 N                                 1.1472900
    15   6 C     22   6 C                                 1.3496072
    23   6 C     24   7 N                                 1.3154311
    24   7 N     25   7 N                                 1.2931045
    25   7 N     26   6 C                                 1.3245345
    26   6 C     27   6 C                                 1.4252733
    23   6 C     28   6 C                                 1.4214309
    27   6 C     28   6 C                                 1.4310207
    28   6 C     29   7 N                                 1.3293326
    29   7 N     30  16 S                                 1.6070156
    27   6 C     31   7 N                                 1.3292346
    30  16 S     31   7 N                                 1.6070560
    26   6 C     32   6 C                                 1.4307605
    32   6 C     33   6 C                                 1.3700476
    33   6 C     34   6 C                                 1.4377480
    35   6 C     36   7 N                                 1.1483228
    34   6 C     37   6 C                                 1.3777724
    37   6 C     38   6 C                                 1.4289669
    38   6 C     39   6 C                                 1.3812882
    40   6 C     41   6 C                                 1.3738330
    41   6 C     42   6 C                                 1.4330596
    39   6 C     43   6 C                                 1.4205421
    42   6 C     43   6 C                                 1.3804691
    44   6 C     45   7 N                                 1.1481949
    40   6 C     46   6 C                                 1.4132565
    46   6 C     47   6 C                                 1.3629775
    47   6 C     48   6 C                                 1.4190524
    48   6 C     49   6 C                                 1.3836041
    49   6 C     50   6 C                                 1.3858676
    51   6 C     52   6 C                                 1.3529581
    52   6 C     53  16 S                                 1.7114167
    51   6 C     54   6 C                                 1.4211294
    54   6 C     55   6 C                                 1.4005457
    55   6 C     56   6 C                                 1.4153012
    56   6 C     57   6 C                                 1.3577726
    54   6 C     58  16 S                                 1.7143247
    57   6 C     58  16 S                                 1.7317782 (max)
    50   6 C     59   6 C                                 1.4218935
    55   6 C     59   6 C                                 1.4398993
    59   6 C     60   6 C                                 1.4067800
    60   6 C     61   6 C                                 1.3653334
    61   6 C     62   6 C                                 1.4076878
    62   6 C     63   6 C                                 1.3654526
    64   6 C     65   8 O                                 1.2126764
    66   6 C     67   6 C                                 1.3820240
    67   6 C     68   6 C                                 1.3891212
    68   6 C     69   6 C                                 1.3881787
    69   6 C     70   6 C                                 1.3889255
    66   6 C     71   6 C                                 1.4012676
    70   6 C     71   6 C                                 1.3824545
    72   6 C     73   8 O                                 1.2160143
     1   6 C     74   1 H                                 1.0788142
     6   6 C     75   1 H                                 1.0787462
     9   6 C     76   1 H                                 1.0780003
    12   6 C     77   1 H                                 1.0794393
    22   6 C     78   1 H                                 1.0809704
    33   6 C     79   1 H                                 1.0732581
    37   6 C     80   1 H                                 1.0732596
    41   6 C     81   1 H                                 1.0741179
    43   6 C     82   1 H                                 1.0714910 (min)
    46   6 C     83   1 H                                 1.0827448
    47   6 C     84   1 H                                 1.0816930
    49   6 C     85   1 H                                 1.0802376
    52   6 C     86   1 H                                 1.0785031
    56   6 C     87   1 H                                 1.0741895
    57   6 C     88   1 H                                 1.0723895
    60   6 C     89   1 H                                 1.0836295
    61   6 C     90   1 H                                 1.0765480
    62   6 C     91   1 H                                 1.0856512
    67   6 C     92   1 H                                 1.0792971
    68   6 C     93   1 H                                 1.0800825
    69   6 C     94   1 H                                 1.0801052
    70   6 C     95   1 H                                 1.0793955

 * 8 distinct bonds (by element types)

   Z      Z             #   av. dist./Å        max./Å        min./Å
   1 H    6 C          22     1.0782983     1.0856512     1.0714910
   6 C    6 C          48     1.3969454     1.4398993     1.3496072
   6 C    7 N           8     1.2362007     1.3293326     1.1472649
   7 N    7 N           1     1.2931045     1.2931045     1.2931045
   6 C    8 O           3     1.2133190     1.2160143     1.2112665
   6 C    9 F           2     1.3383922     1.3385974     1.3381870
   6 C   16 S           3     1.7191732     1.7317782     1.7114167
   7 N   16 S           2     1.6070358     1.6070560     1.6070156


optimized geometry written to: xtbopt.xyz


           -------------------------------------------------
          | TOTAL ENERGY             -187.727219899159 Eh   |
          | GRADIENT NORM               0.000666346011 Eh/α |
          | HOMO-LUMO GAP               0.272666522183 eV   |
           -------------------------------------------------

------------------------------------------------------------------------
 * finished run on 2021/07/06 at 11:40:52.171     
------------------------------------------------------------------------
 total:
 * wall-time:     0 d,  0 h,  0 min, 17.318 sec
 *  cpu-time:     0 d,  0 h,  3 min, 27.128 sec
 * ratio c/w:    11.961 speedup
 SCF:
 * wall-time:     0 d,  0 h,  0 min,  0.229 sec
 *  cpu-time:     0 d,  0 h,  0 min,  2.725 sec
 * ratio c/w:    11.906 speedup
 ANC optimizer:
 * wall-time:     0 d,  0 h,  0 min, 16.969 sec
 *  cpu-time:     0 d,  0 h,  3 min, 23.617 sec
 * ratio c/w:    11.999 speedup

