      -----------------------------------------------------------      
     |                   =====================                   |     
     |                           x T B                           |     
     |                   =====================                   |     
     |                         S. Grimme                         |     
     |          Mulliken Center for Theoretical Chemistry        |     
     |                    University of Bonn                     |     
     |                Version 6.2 RC2 (SAW190805)                |     
      -----------------------------------------------------------      

   This program is distributed in the hope that it will be useful,
   but WITHOUT ANY WARRANTY; without even the implied warranty of
   MERCHANTABILITY or FITNESS FOR A PARTICULAR PURPOSE.
   
   FOR NON-COMMERCIAL, ACADEMIA USE ONLY.
   
   Cite this work as:
   * S. Grimme, C. Bannwarth, P. Shushkov, J. Chem. Theory Comput., 2017,
     13, 1989-2009. DOI: 10.1021/acs.jctc.7b00118
   * C. Bannwarth, S. Ehlert and S. Grimme., J. Chem. Theory Comput., 2019,
     15, 1652-1671. DOI: 10.1021/acs.jctc.8b01176
   * P. Pracht, E. Caldeweyher, S. Ehlert, S. Grimme, ChemRxiv, 2019, preprint.
     DOI: 10.26434/chemrxiv.8326202.v1
   
   for DFT-D4:
   * E. Caldeweyher, C. Bannwarth and S. Grimme, J. Chem. Phys., 2017,
     147, 034112. DOI: 10.1063/1.4993215
   * E. Caldeweyher, S. Ehlert, A. Hansen, H. Neugebauer, S. Spicher,
     C. Bannwarth and S. Grimme, J. Chem. Phys., 2019, 150, 154122.
     DOI: 10.1063/1.5090222
   
   for sTDA-xTB:
   * S. Grimme and C. Bannwarth, J. Chem. Phys., 2016, 145, 054103.
     DOI: 10.1063/1.4959605
   
   in the mass-spec context:
   * V. Asgeirsson, C. Bauer and S. Grimme, Chem. Sci., 2017, 8, 4879.
     DOI: 10.1039/c7sc00601b
   
   for metadynamics refer to:
   * S. Grimme, J. Chem. Theory Comput., 2019, 155, 2847-2862
     DOI: 10.1021/acs.jctc.9b00143
   
   with help from (in alphabetical order)
   C. Bannwarth, F. Bohle, G. Brandenburg, E. Caldeweyher, M. Checinski,
   S. Dohm, S. Ehlert, S. Ehrlich, F. März, H. Neugebauer, J. Pisarek,
   P. Pracht, P. Shushkov, and S. Spicher.
   
 * started run on 2021/06/26 at 02:16:11.454     

           -------------------------------------------------
          |                Calculation Setup                |
           -------------------------------------------------

          program call               : /ihome/ghutchison/geoffh/xtb/xtb /ihome/ghutchison/blp62/GA/running_GA/opt_GA/generations/56/45_56_56_56_45_01110.xyz -opt
          hostname                   : smp-n138
          coordinate file            : /ihome/ghutchison/blp62/GA/running_GA/opt_GA/generations/56/45_56_56_56_45_01110.xyz
          omp threads                :                    12
          number of atoms            :                    95
          number of electrons        :                   332
          charge                     :                     0
          spin                       :                   0.0
          first test random number   :      0.09975690742924


########################################################################
# WARNING! Please study the warnings concerning your input carefully
#  - XTBPATH is not set, using XTBHOME instead
#  - the use of '-opt' is discouraged, please use '--opt' next time
########################################################################

           ------------------------------------------------- 
          |                 G F N 2 - x T B                 |
          | Geometry, Frequencies, Noncovalent interactions |
          |            JCTC 2019 parametrisation            |
           ------------------------------------------------- 
             KAB for C  - Si     :                1.0500
             KAB for H  - Pd     :                0.9500
             k(s)              :                1.8500
             k(p)              :                2.2300
             k(d)              :                2.2300
             k(f)              :                2.0000
             kEN (H0ij)        :               -2.0000
             D4 a1             :                0.5200
             D4 a2             :                5.0000
             D4 s6             :                1.0000
             D4 s8             :                2.7000
             D4 s9             :                5.0000
             alphaj            :                2.0000

  Z AO/shell   Hii/eV     exponent
  1     Wed Apr 25 08:07:45 CEST 2018   EN: 2.200 GM2: 0.406  GM3: 0.0800  RAES: 1.40
     1s    -10.707211    1.230000
  6     Wed Apr 25 08:07:45 CEST 2018   EN: 2.550 GM2: 0.538  GM3: 0.1500  RAES: 3.00
     2s    -13.970922    2.096432
     2p    -10.063292    1.800000
  7     Wed Apr 25 08:07:45 CEST 2018   EN: 3.040 GM2: 0.461  GM3:-0.0640  RAES: 1.90
     2s    -16.686243    2.339881
     2p    -12.523956    2.014332
 16     Tue Apr 24 11:44:34 CEST 2018   EN: 2.580 GM2: 0.340  GM3:-0.0502  RAES: 3.10
     3s    -20.029654    1.981333
     3p    -11.377694    2.025643
     3d     -0.420282    1.702555

           ------------------------------------------------- 
          |        Self-Consistent Charge Iterations        |
           ------------------------------------------------- 

          ...................................................
          :                      SETUP                      :
          :.................................................:
          :  # basis functions                 350          :
          :  # atomic orbitals                 343          :
          :  # shells                          173          :
          :  # electrons                       332          :
          :  max. iterations                   250          :
          :  Hamiltonian                  GFN2-xTB          :
          :  restarted?                      false          :
          :  GBSA solvation                  false          :
          :  PC potential                    false          :
          :  electronic temp.          300.0000000     K    :
          :  accuracy                    1.0000000          :
          :  -> integral cutoff          0.2500000E+02      :
          :  -> integral neglect         0.1000000E-07      :
          :  -> SCF convergence          0.1000000E-05 Eh   :
          :  -> wf. convergence          0.1000000E-03 e    :
          :  Broyden damping             0.4000000          :
          ...................................................

 iter      E             dE          RMSdq      gap      omega  full diag
   1   -181.9859671 -0.181986E+03  0.569E+00    1.44       0.0  T
   2   -181.9239969  0.619702E-01  0.393E+00    1.26       1.0  T
   3   -181.7358842  0.188113E+00  0.281E+00    0.82       1.0  T
   4   -182.2191488 -0.483265E+00  0.861E-01    0.97       1.0  T
   5   -182.2735142 -0.543654E-01  0.370E-01    1.00       1.0  T
   6   -182.2808050 -0.729081E-02  0.119E-01    0.97       1.0  T
   7   -182.2812834 -0.478375E-03  0.620E-02    1.00       1.0  T
   8   -182.2815034 -0.219963E-03  0.297E-02    0.99       1.0  T
   9   -182.2815372 -0.338037E-04  0.119E-02    0.99       1.0  T
  10   -182.2815415 -0.436432E-05  0.580E-03    0.99       1.8  T
  11   -182.2815430 -0.148141E-05  0.244E-03    0.99       4.2  T
  12   -182.2815431 -0.631273E-07  0.163E-03    0.99       6.3  T
  13   -182.2815432 -0.964565E-07  0.722E-04    0.99      14.2  T
  14   -182.2815432 -0.182191E-07  0.294E-04    0.99      34.9  T

   *** convergence criteria satisfied after 14 iterations ***

         #    Occupation            Energy/Eh            Energy/eV
      -------------------------------------------------------------
         1        2.0000           -0.7697904             -20.9471
       ...           ...                  ...                  ...
       160        2.0000           -0.4199605             -11.4277
       161        2.0000           -0.4165600             -11.3352
       162        2.0000           -0.4156602             -11.3107
       163        2.0000           -0.4153423             -11.3020
       164        2.0000           -0.4046585             -11.0113
       165        2.0000           -0.3899028             -10.6098
       166        2.0000           -0.3820416             -10.3959 (HOMO)
       167                         -0.3456973              -9.4069 (LUMO)
       168                         -0.3453840              -9.3984
       169                         -0.3094325              -8.4201
       170                         -0.2966581              -8.0725
       171                         -0.2798865              -7.6161
       ...                                ...                  ...
       343                          1.0767977              29.3012
      -------------------------------------------------------------
                  HL-Gap            0.0363443 Eh            0.9890 eV
             Fermi-level           -0.3641267 Eh           -9.9084 eV

 SCC (total)                   0 d,  0 h,  0 min,  0.230 sec
 SCC setup                      ...        0 min,  0.002 sec (  0.933%)
 Dispersion                     ...        0 min,  0.005 sec (  2.205%)
 integral evaluation            ...        0 min,  0.028 sec ( 12.080%)
 zeroth order Hamiltonian       ...        0 min,  0.002 sec (  0.658%)
 iterations                     ...        0 min,  0.170 sec ( 73.975%)
 molecular gradient             ...        0 min,  0.022 sec (  9.625%)
 printout                       ...        0 min,  0.001 sec (  0.480%)

         :::::::::::::::::::::::::::::::::::::::::::::::::::::
         ::                     SUMMARY                     ::
         :::::::::::::::::::::::::::::::::::::::::::::::::::::
         :: total energy            -179.400808840193 Eh    ::
         :: gradient norm              0.329616258593 Eh/a0 ::
         :: HOMO-LUMO gap              0.988978753958 eV    ::
         ::.................................................::
         :: SCC energy              -182.281543203229 Eh    ::
         :: -> isotropic ES            0.082280281103 Eh    ::
         :: -> anisotropic ES          0.018653435089 Eh    ::
         :: -> anisotropic XC          0.207781053871 Eh    ::
         :: -> dispersion             -0.158873711681 Eh    ::
         :: repulsion energy           2.880383875115 Eh    ::
         :: add. restraining           0.000000000000 Eh    ::
         :::::::::::::::::::::::::::::::::::::::::::::::::::::

      ----------------------------------------------------------- 
     |                   =====================                   |
     |                        A N C O P T                        |
     |                   =====================                   |
     |               Approximate Normal Coordinate               |
     |                Rational Function Optimizer                |
      ----------------------------------------------------------- 

          ...................................................
          :                      SETUP                      :
          :.................................................:
          :   optimization level            normal          :
          :   max. optcycles                   285          :
          :   ANC micro-cycles                  20          :
          :   degrees of freedom               279          :
          :.................................................:
          :   RF solver                   davidson          :
          :   input Hessian                  false          :
          :   write xtbopt.log                true          :
          :   linear?                        false          :
          :   energy convergence         0.5000000E-05 Eh   :
          :   grad. convergence          0.1000000E-02 Eh/α :
          :   maximium RF displ.         2.0000000          :
          :   Hlow (freq-cutoff)         0.5000000E-02      :
          :   Hmax (freq-cutoff)         5.0000000          :
          :   S6 in model hess.         20.0000000          :
          ...................................................

generating ANC from model Hessian ...
Using Lindh-Hessian (1995)
 Shifting diagonal of input Hessian by   4.982372174900943E-003
 Lowest  eigenvalues of input Hessian
   -0.000000   -0.000000   -0.000000   -0.000000    0.000000    0.000000
    0.005000    0.005006    0.005040    0.005084    0.005111    0.005199
    0.005306    0.005333    0.005430    0.005502    0.005585    0.005707
 Highest eigenvalues
    2.446254    2.469094    2.516507    2.517935    2.589122    2.589226
 

........................................................................
.............................. CYCLE    1 ..............................
........................................................................
   1   -182.2815432 -0.182282E+03  0.157E-04    0.99       0.0  T
   2   -182.2815432  0.311417E-09  0.142E-04    0.99      72.4  T
   3   -182.2815432 -0.138726E-08  0.747E-05    0.99     137.3  T
     SCC iter.                  ...        0 min,  0.037 sec
     gradient                   ...        0 min,  0.022 sec
 * total energy  :  -179.4008086 Eh     change        0.2045951E-06 Eh
   gradient norm :     0.3296134 Eh/α   predicted     0.0000000E+00 (-100.00%)
   displ. norm   :     0.3813699 α      lambda       -0.8508360E-01
   maximum displ.:     0.1129970 α      in ANC's #264, #121, #137, ...

........................................................................
.............................. CYCLE    2 ..............................
........................................................................
   1   -182.5059392 -0.182506E+03  0.302E-01    0.92       0.0  T
   2   -182.5062263 -0.287099E-03  0.196E-01    0.95       1.0  T
   3   -182.5060117  0.214588E-03  0.136E-01    0.93       1.0  T
   4   -182.5071735 -0.116176E-02  0.357E-02    0.93       1.0  T
   5   -182.5072364 -0.629758E-04  0.179E-02    0.94       1.0  T
   6   -182.5072529 -0.164109E-04  0.692E-03    0.94       1.5  T
   7   -182.5072557 -0.280210E-05  0.283E-03    0.94       3.6  T
   8   -182.5072560 -0.380186E-06  0.131E-03    0.94       7.8  T
     SCC iter.                  ...        0 min,  0.092 sec
     gradient                   ...        0 min,  0.021 sec
 * total energy  :  -179.4534523 Eh     change       -0.5264368E-01 Eh
   gradient norm :     0.0878197 Eh/α   predicted    -0.4872947E-01 (  -7.44%)
   displ. norm   :     0.4986269 α      lambda       -0.1647542E-01
   maximum displ.:     0.1958838 α      in ANC's #23, #39, #42, ...

........................................................................
.............................. CYCLE    3 ..............................
........................................................................
   1   -182.5420168 -0.182542E+03  0.187E-01    0.87       0.0  T
   2   -182.5420598 -0.429791E-04  0.121E-01    0.90       1.0  T
   3   -182.5420090  0.507355E-04  0.770E-02    0.89       1.0  T
   4   -182.5424428 -0.433794E-03  0.227E-02    0.89       1.0  T
   5   -182.5424607 -0.178977E-04  0.138E-02    0.89       1.0  T
   6   -182.5424713 -0.105585E-04  0.434E-03    0.89       2.4  T
   7   -182.5424719 -0.647084E-06  0.196E-03    0.89       5.2  T
   8   -182.5424722 -0.210313E-06  0.889E-04    0.89      11.5  T
     SCC iter.                  ...        0 min,  0.092 sec
     gradient                   ...        0 min,  0.021 sec
 * total energy  :  -179.4653699 Eh     change       -0.1191762E-01 Eh
   gradient norm :     0.0450781 Eh/α   predicted    -0.1028589E-01 ( -13.69%)
   displ. norm   :     0.6090265 α      lambda       -0.8764131E-02
   maximum displ.:     0.2957261 α      in ANC's #23, #19, #39, ...

........................................................................
.............................. CYCLE    4 ..............................
........................................................................
   1   -182.5617261 -0.182562E+03  0.191E-01    0.83       0.0  T
   2   -182.5617706 -0.445403E-04  0.110E-01    0.84       1.0  T
   3   -182.5612908  0.479788E-03  0.800E-02    0.83       1.0  T
   4   -182.5618857 -0.594918E-03  0.162E-02    0.84       1.0  T
   5   -182.5618923 -0.654265E-05  0.105E-02    0.84       1.0  T
   6   -182.5618991 -0.680241E-05  0.348E-03    0.84       3.0  T
   7   -182.5618996 -0.569428E-06  0.152E-03    0.84       6.7  T
   8   -182.5618997 -0.584238E-07  0.889E-04    0.84      11.5  T
     SCC iter.                  ...        0 min,  0.093 sec
     gradient                   ...        0 min,  0.021 sec
 * total energy  :  -179.4711733 Eh     change       -0.5803325E-02 Eh
   gradient norm :     0.0251748 Eh/α   predicted    -0.6007435E-02 (   3.52%)
   displ. norm   :     0.6336645 α      lambda       -0.5482165E-02
   maximum displ.:     0.3177004 α      in ANC's #23, #39, #26, ...

........................................................................
.............................. CYCLE    5 ..............................
........................................................................
   1   -182.5673452 -0.182567E+03  0.229E-01    0.81       0.0  T
   2   -182.5674049 -0.597016E-04  0.125E-01    0.81       1.0  T
   3   -182.5673400  0.648939E-04  0.357E-02    0.81       1.0  T
   4   -182.5674289 -0.888962E-04  0.112E-02    0.81       1.0  T
   5   -182.5674315 -0.257614E-05  0.659E-03    0.81       1.6  T
   6   -182.5674345 -0.299583E-05  0.252E-03    0.81       4.1  T
   7   -182.5674349 -0.388392E-06  0.125E-03    0.81       8.2  T
     SCC iter.                  ...        0 min,  0.082 sec
     gradient                   ...        0 min,  0.021 sec
 * total energy  :  -179.4738323 Eh     change       -0.2659008E-02 Eh
   gradient norm :     0.0344843 Eh/α   predicted    -0.3841714E-02 (  44.48%)
   displ. norm   :     0.5605617 α      lambda       -0.4840802E-02
   maximum displ.:     0.2577973 α      in ANC's #23, #19, #22, ...

........................................................................
.............................. CYCLE    6 ..............................
........................................................................
   1   -182.5819612 -0.182582E+03  0.235E-01    0.79       0.0  T
   2   -182.5820294 -0.682554E-04  0.130E-01    0.79       1.0  T
   3   -182.5819289  0.100542E-03  0.367E-02    0.79       1.0  T
   4   -182.5820647 -0.135798E-03  0.852E-03    0.79       1.2  T
   5   -182.5820658 -0.115124E-05  0.482E-03    0.79       2.1  T
   6   -182.5820670 -0.118135E-05  0.210E-03    0.79       4.9  T
     SCC iter.                  ...        0 min,  0.069 sec
     gradient                   ...        0 min,  0.022 sec
 * total energy  :  -179.4762195 Eh     change       -0.2387188E-02 Eh
   gradient norm :     0.0316373 Eh/α   predicted    -0.3180967E-02 (  33.25%)
   displ. norm   :     0.5235294 α      lambda       -0.3819498E-02
   maximum displ.:     0.2873934 α      in ANC's #23, #19, #30, ...

........................................................................
.............................. CYCLE    7 ..............................
........................................................................
   1   -182.5764901 -0.182576E+03  0.324E-01    0.79       0.0  T
   2   -182.5766113 -0.121196E-03  0.178E-01    0.79       1.0  T
   3   -182.5763876  0.223777E-03  0.521E-02    0.78       1.0  T
   4   -182.5766797 -0.292191E-03  0.955E-03    0.79       1.1  T
   5   -182.5766836 -0.386787E-05  0.540E-03    0.79       1.9  T
   6   -182.5766851 -0.152966E-05  0.232E-03    0.79       4.4  T
     SCC iter.                  ...        0 min,  0.072 sec
     gradient                   ...        0 min,  0.021 sec
 * total energy  :  -179.4772741 Eh     change       -0.1054603E-02 Eh
   gradient norm :     0.0486210 Eh/α   predicted    -0.2433179E-02 ( 130.72%)
   displ. norm   :     0.3276643 α      lambda       -0.3619265E-02
   maximum displ.:     0.1470820 α      in ANC's #23, #25, #43, ...

........................................................................
.............................. CYCLE    8 ..............................
........................................................................
   1   -182.5992016 -0.182599E+03  0.138E-01    0.80       0.0  T
   2   -182.5992313 -0.297236E-04  0.763E-02    0.79       1.0  T
   3   -182.5991966  0.347200E-04  0.229E-02    0.80       1.0  T
   4   -182.5992397 -0.430507E-04  0.766E-03    0.79       1.3  T
   5   -182.5992432 -0.356356E-05  0.359E-03    0.79       2.9  T
   6   -182.5992438 -0.536914E-06  0.174E-03    0.79       5.9  T
     SCC iter.                  ...        0 min,  0.072 sec
     gradient                   ...        0 min,  0.021 sec
 * total energy  :  -179.4790804 Eh     change       -0.1806296E-02 Eh
   gradient norm :     0.0300271 Eh/α   predicted    -0.2003929E-02 (  10.94%)
   displ. norm   :     0.4414996 α      lambda       -0.1953188E-02
   maximum displ.:     0.2102886 α      in ANC's #23, #19, #26, ...

........................................................................
.............................. CYCLE    9 ..............................
........................................................................
   1   -182.5958567 -0.182596E+03  0.197E-01    0.79       0.0  T
   2   -182.5958988 -0.420609E-04  0.109E-01    0.79       1.0  T
   3   -182.5958427  0.561274E-04  0.291E-02    0.79       1.0  T
   4   -182.5959201 -0.774832E-04  0.649E-03    0.79       1.6  T
   5   -182.5959208 -0.711942E-06  0.383E-03    0.79       2.7  T
   6   -182.5959218 -0.954532E-06  0.127E-03    0.79       8.1  T
     SCC iter.                  ...        0 min,  0.072 sec
     gradient                   ...        0 min,  0.021 sec
 * total energy  :  -179.4796210 Eh     change       -0.5406574E-03 Eh
   gradient norm :     0.0254803 Eh/α   predicted    -0.1166956E-02 ( 115.84%)
   displ. norm   :     0.3733931 α      lambda       -0.1822831E-02
   maximum displ.:     0.1798445 α      in ANC's #23, #19, #25, ...

........................................................................
.............................. CYCLE   10 ..............................
........................................................................
   1   -182.5952093 -0.182595E+03  0.174E-01    0.78       0.0  T
   2   -182.5952426 -0.332995E-04  0.962E-02    0.79       1.0  T
   3   -182.5951972  0.454069E-04  0.268E-02    0.78       1.0  T
   4   -182.5952599 -0.627278E-04  0.536E-03    0.79       1.9  T
   5   -182.5952603 -0.394100E-06  0.331E-03    0.79       3.1  T
   6   -182.5952610 -0.644706E-06  0.126E-03    0.79       8.1  T
     SCC iter.                  ...        0 min,  0.071 sec
     gradient                   ...        0 min,  0.021 sec
 * total energy  :  -179.4804631 Eh     change       -0.8420422E-03 Eh
   gradient norm :     0.0191440 Eh/α   predicted    -0.1038487E-02 (  23.33%)
   displ. norm   :     0.2630098 α      lambda       -0.9029566E-03
   maximum displ.:     0.0967690 α      in ANC's #19, #23, #20, ...

........................................................................
.............................. CYCLE   11 ..............................
........................................................................
   1   -182.6020607 -0.182602E+03  0.156E-01    0.79       0.0  T
   2   -182.6020896 -0.289407E-04  0.859E-02    0.79       1.0  T
   3   -182.6020538  0.358357E-04  0.244E-02    0.79       1.0  T
   4   -182.6021038 -0.500649E-04  0.490E-03    0.79       2.1  T
   5   -182.6021045 -0.638091E-06  0.280E-03    0.79       3.7  T
   6   -182.6021049 -0.466572E-06  0.113E-03    0.79       9.1  T
     SCC iter.                  ...        0 min,  0.073 sec
     gradient                   ...        0 min,  0.021 sec
 * total energy  :  -179.4804235 Eh     change        0.3958286E-04 Eh
   gradient norm :     0.0301716 Eh/α   predicted    -0.4827089E-03 (*******%)
   displ. norm   :     0.1883381 α      lambda       -0.1245712E-02
   maximum displ.:     0.0654432 α      in ANC's #23, #43, #26, ...

........................................................................
.............................. CYCLE   12 ..............................
........................................................................
   1   -182.6089148 -0.182609E+03  0.133E-01    0.79       0.0  T
   2   -182.6089366 -0.218496E-04  0.733E-02    0.79       1.0  T
   3   -182.6089172  0.194460E-04  0.190E-02    0.79       1.0  T
   4   -182.6089468 -0.296815E-04  0.379E-03    0.79       2.7  T
   5   -182.6089470 -0.180536E-06  0.215E-03    0.79       4.8  T
   6   -182.6089473 -0.237626E-06  0.952E-04    0.79      10.8  T
     SCC iter.                  ...        0 min,  0.070 sec
     gradient                   ...        0 min,  0.021 sec
 * total energy  :  -179.4807727 Eh     change       -0.3492529E-03 Eh
   gradient norm :     0.0190191 Eh/α   predicted    -0.6449497E-03 (  84.67%)
   displ. norm   :     0.1774333 α      lambda       -0.7720250E-03
   maximum displ.:     0.0778695 α      in ANC's #30, #25, #32, ...

........................................................................
.............................. CYCLE   13 ..............................
........................................................................
   1   -182.6022045 -0.182602E+03  0.139E-01    0.78       0.0  T
   2   -182.6022268 -0.223198E-04  0.770E-02    0.78       1.0  T
   3   -182.6021676  0.592474E-04  0.281E-02    0.78       1.0  T
   4   -182.6022415 -0.738977E-04  0.363E-03    0.78       2.8  T
   5   -182.6022421 -0.617219E-06  0.209E-03    0.78       4.9  T
   6   -182.6022423 -0.200306E-06  0.888E-04    0.78      11.5  T
     SCC iter.                  ...        0 min,  0.074 sec
     gradient                   ...        0 min,  0.021 sec
 * total energy  :  -179.4808570 Eh     change       -0.8428073E-04 Eh
   gradient norm :     0.0153768 Eh/α   predicted    -0.3981665E-03 ( 372.43%)
   displ. norm   :     0.1314165 α      lambda       -0.5917152E-03
   maximum displ.:     0.0459157 α      in ANC's #19, #30, #3, ...

........................................................................
.............................. CYCLE   14 ..............................
........................................................................
   1   -182.6050533 -0.182605E+03  0.969E-02    0.78       0.0  T
   2   -182.6050643 -0.110698E-04  0.534E-02    0.78       1.0  T
   3   -182.6050403  0.240303E-04  0.181E-02    0.78       1.0  T
   4   -182.6050706 -0.302828E-04  0.266E-03    0.78       3.9  T
   5   -182.6050710 -0.368524E-06  0.135E-03    0.78       7.6  T
   6   -182.6050711 -0.930787E-07  0.568E-04    0.78      18.1  T
     SCC iter.                  ...        0 min,  0.072 sec
     gradient                   ...        0 min,  0.021 sec
 * total energy  :  -179.4810814 Eh     change       -0.2244248E-03 Eh
   gradient norm :     0.0122942 Eh/α   predicted    -0.3009676E-03 (  34.11%)
   displ. norm   :     0.1294113 α      lambda       -0.2725562E-03
   maximum displ.:     0.0477214 α      in ANC's #3, #18, #22, ...

........................................................................
.............................. CYCLE   15 ..............................
........................................................................
   1   -182.6062847 -0.182606E+03  0.845E-02    0.78       0.0  T
   2   -182.6062936 -0.889536E-05  0.465E-02    0.78       1.0  T
   3   -182.6062811  0.125217E-04  0.140E-02    0.78       1.0  T
   4   -182.6062981 -0.170757E-04  0.249E-03    0.78       4.1  T
   5   -182.6062983 -0.114941E-06  0.148E-03    0.78       6.9  T
   6   -182.6062984 -0.144505E-06  0.549E-04    0.78      18.7  T
     SCC iter.                  ...        0 min,  0.071 sec
     gradient                   ...        0 min,  0.021 sec
 * total energy  :  -179.4810106 Eh     change        0.7085803E-04 Eh
   gradient norm :     0.0199356 Eh/α   predicted    -0.1385580E-03 (-295.54%)
   displ. norm   :     0.1085800 α      lambda       -0.4461596E-03
   maximum displ.:     0.0435411 α      in ANC's #3, #34, #25, ...

........................................................................
.............................. CYCLE   16 ..............................
........................................................................
   1   -182.6074483 -0.182607E+03  0.747E-02    0.78       0.0  T
   2   -182.6074551 -0.683904E-05  0.411E-02    0.78       1.0  T
   3   -182.6074465  0.867989E-05  0.115E-02    0.78       1.0  T
   4   -182.6074587 -0.122360E-04  0.194E-03    0.78       5.3  T
   5   -182.6074588 -0.707927E-07  0.116E-03    0.78       8.9  T
   6   -182.6074588 -0.814788E-07  0.461E-04    0.78      22.3  T
     SCC iter.                  ...        0 min,  0.072 sec
     gradient                   ...        0 min,  0.021 sec
 * total energy  :  -179.4811913 Eh     change       -0.1807585E-03 Eh
   gradient norm :     0.0085439 Eh/α   predicted    -0.2257115E-03 (  24.87%)
   displ. norm   :     0.1227701 α      lambda       -0.2342522E-03
   maximum displ.:     0.0473764 α      in ANC's #3, #19, #32, ...

........................................................................
.............................. CYCLE   17 ..............................
........................................................................
   1   -182.6043263 -0.182604E+03  0.792E-02    0.78       0.0  T
   2   -182.6043337 -0.741169E-05  0.437E-02    0.78       1.0  T
   3   -182.6043131  0.205723E-04  0.168E-02    0.78       1.0  T
   4   -182.6043385 -0.253725E-04  0.237E-03    0.78       4.3  T
   5   -182.6043387 -0.222182E-06  0.140E-03    0.78       7.3  T
   6   -182.6043388 -0.115254E-06  0.552E-04    0.78      18.6  T
     SCC iter.                  ...        0 min,  0.071 sec
     gradient                   ...        0 min,  0.021 sec
 * total energy  :  -179.4812177 Eh     change       -0.2639445E-04 Eh
   gradient norm :     0.0119838 Eh/α   predicted    -0.1188945E-03 ( 350.45%)
   displ. norm   :     0.1113550 α      lambda       -0.2221885E-03
   maximum displ.:     0.0530673 α      in ANC's #3, #28, #15, ...

........................................................................
.............................. CYCLE   18 ..............................
........................................................................
   1   -182.6045470 -0.182605E+03  0.606E-02    0.78       0.0  T
   2   -182.6045514 -0.435320E-05  0.333E-02    0.78       1.0  T
   3   -182.6045464  0.495344E-05  0.873E-03    0.78       1.2  T
   4   -182.6045533 -0.690482E-05  0.209E-03    0.78       4.9  T
   5   -182.6045534 -0.104975E-06  0.105E-03    0.78       9.7  T
   6   -182.6045535 -0.769388E-07  0.422E-04    0.78      24.3  T
     SCC iter.                  ...        0 min,  0.071 sec
     gradient                   ...        0 min,  0.022 sec
 * total energy  :  -179.4812740 Eh     change       -0.5624090E-04 Eh
   gradient norm :     0.0119003 Eh/α   predicted    -0.1124733E-03 (  99.98%)
   displ. norm   :     0.1738423 α      lambda       -0.3098357E-03
   maximum displ.:     0.0815495 α      in ANC's #3, #18, #31, ...

........................................................................
.............................. CYCLE   19 ..............................
........................................................................
   1   -182.6069153 -0.182607E+03  0.102E-01    0.78       0.0  T
   2   -182.6069268 -0.114898E-04  0.559E-02    0.78       1.0  T
   3   -182.6069016  0.252525E-04  0.189E-02    0.78       1.0  T
   4   -182.6069336 -0.319749E-04  0.310E-03    0.78       3.3  T
   5   -182.6069339 -0.342566E-06  0.168E-03    0.78       6.1  T
   6   -182.6069341 -0.192496E-06  0.570E-04    0.78      18.0  T
     SCC iter.                  ...        0 min,  0.072 sec
     gradient                   ...        0 min,  0.021 sec
 * total energy  :  -179.4812750 Eh     change       -0.1028390E-05 Eh
   gradient norm :     0.0114589 Eh/α   predicted    -0.1596034E-03 (*******%)
   displ. norm   :     0.1007701 α      lambda       -0.2737156E-03
   maximum displ.:     0.0437585 α      in ANC's #3, #32, #9, ...

........................................................................
.............................. CYCLE   20 ..............................
........................................................................
   1   -182.6059551 -0.182606E+03  0.694E-02    0.78       0.0  T
   2   -182.6059605 -0.544989E-05  0.382E-02    0.78       1.0  T
   3   -182.6059511  0.941009E-05  0.117E-02    0.78       1.0  T
   4   -182.6059636 -0.125089E-04  0.183E-03    0.78       5.6  T
   5   -182.6059637 -0.114915E-06  0.100E-03    0.78      10.2  T
   6   -182.6059638 -0.609113E-07  0.396E-04    0.78      25.9  T
     SCC iter.                  ...        0 min,  0.072 sec
     gradient                   ...        0 min,  0.022 sec
 * total energy  :  -179.4813848 Eh     change       -0.1098111E-03 Eh
   gradient norm :     0.0077387 Eh/α   predicted    -0.1382522E-03 (  25.90%)
   displ. norm   :     0.1490561 α      lambda       -0.2729476E-03
   maximum displ.:     0.0711354 α      in ANC's #3, #21, #29, ...
 * RMSD in coord.:     0.4284779 α      energy gain  -0.8057597E-01 Eh

generating ANC from model Hessian ...
Using Lindh-Hessian (1995)
 Shifting diagonal of input Hessian by   4.985969389078859E-003
 Lowest  eigenvalues of input Hessian
   -0.000000   -0.000000    0.000000    0.000000    0.000000    0.000000
    0.005000    0.005008    0.005030    0.005072    0.005110    0.005218
    0.005312    0.005356    0.005381    0.005478    0.005551    0.005680
 Highest eigenvalues
    2.568774    2.574689    2.586042    2.588373    2.661804    2.666003
 

........................................................................
.............................. CYCLE   21 ..............................
........................................................................
   1   -182.6050050 -0.182605E+03  0.928E-02    0.78       0.0  T
   2   -182.6050156 -0.105954E-04  0.511E-02    0.78       1.0  T
   3   -182.6049894  0.262528E-04  0.184E-02    0.78       1.0  T
   4   -182.6050220 -0.326062E-04  0.286E-03    0.78       3.6  T
   5   -182.6050222 -0.233326E-06  0.161E-03    0.78       6.4  T
   6   -182.6050224 -0.155626E-06  0.626E-04    0.78      16.4  T
   7   -182.6050224 -0.214923E-07  0.256E-04    0.78      40.0  T
     SCC iter.                  ...        0 min,  0.083 sec
     gradient                   ...        0 min,  0.023 sec
 * total energy  :  -179.4813319 Eh     change        0.5291365E-04 Eh
   gradient norm :     0.0144325 Eh/α   predicted     0.0000000E+00 (-100.00%)
   displ. norm   :     0.1100578 α      lambda       -0.2527695E-03
   maximum displ.:     0.0689359 α      in ANC's #3, #7, #28, ...

........................................................................
.............................. CYCLE   22 ..............................
........................................................................
   1   -182.6042939 -0.182604E+03  0.801E-02    0.78       0.0  T
   2   -182.6043013 -0.741429E-05  0.440E-02    0.78       1.0  T
   3   -182.6042984  0.296324E-05  0.811E-03    0.78       1.3  T
   4   -182.6043045 -0.617653E-05  0.207E-03    0.78       4.9  T
   5   -182.6043046 -0.699685E-07  0.113E-03    0.78       9.1  T
   6   -182.6043047 -0.631050E-07  0.484E-04    0.78      21.2  T
     SCC iter.                  ...        0 min,  0.072 sec
     gradient                   ...        0 min,  0.021 sec
 * total energy  :  -179.4813102 Eh     change        0.2164475E-04 Eh
   gradient norm :     0.0078944 Eh/α   predicted    -0.1279177E-03 (-690.99%)
   displ. norm   :     0.1247313 α      lambda       -0.4299426E-03
   maximum displ.:     0.0513726 α      in ANC's #9, #7, #17, ...

........................................................................
.............................. CYCLE   23 ..............................
........................................................................
   1   -182.6054840 -0.182605E+03  0.104E-01    0.78       0.0  T
   2   -182.6054957 -0.117036E-04  0.571E-02    0.78       1.0  T
   3   -182.6054962 -0.447084E-06  0.797E-03    0.78       1.3  T
   4   -182.6055008 -0.459944E-05  0.220E-03    0.78       4.7  T
   5   -182.6055008 -0.410413E-07  0.128E-03    0.78       8.0  T
   6   -182.6055009 -0.118796E-06  0.466E-04    0.78      22.0  T
     SCC iter.                  ...        0 min,  0.071 sec
     gradient                   ...        0 min,  0.021 sec
 * total energy  :  -179.4813128 Eh     change       -0.2531518E-05 Eh
   gradient norm :     0.0188965 Eh/α   predicted    -0.2183175E-03 (8523.97%)
   displ. norm   :     0.1092848 α      lambda       -0.4928077E-03
   maximum displ.:     0.0431526 α      in ANC's #21, #40, #28, ...

........................................................................
.............................. CYCLE   24 ..............................
........................................................................
   1   -182.6065077 -0.182607E+03  0.106E-01    0.78       0.0  T
   2   -182.6065191 -0.114111E-04  0.583E-02    0.78       1.0  T
   3   -182.6065049  0.142086E-04  0.144E-02    0.78       1.0  T
   4   -182.6065254 -0.205673E-04  0.190E-03    0.78       5.4  T
   5   -182.6065255 -0.205403E-07  0.131E-03    0.78       7.8  T
   6   -182.6065256 -0.982900E-07  0.482E-04    0.78      21.3  T
     SCC iter.                  ...        0 min,  0.073 sec
     gradient                   ...        0 min,  0.021 sec
 * total energy  :  -179.4814241 Eh     change       -0.1113660E-03 Eh
   gradient norm :     0.0062704 Eh/α   predicted    -0.2493602E-03 ( 123.91%)
   displ. norm   :     0.0806904 α      lambda       -0.2596148E-03
   maximum displ.:     0.0261852 α      in ANC's #3, #28, #26, ...

........................................................................
.............................. CYCLE   25 ..............................
........................................................................
   1   -182.6061672 -0.182606E+03  0.737E-02    0.78       0.0  T
   2   -182.6061730 -0.574402E-05  0.406E-02    0.78       1.0  T
   3   -182.6061639  0.906322E-05  0.112E-02    0.77       1.0  T
   4   -182.6061763 -0.124385E-04  0.130E-03    0.78       7.9  T
   5   -182.6061764 -0.376441E-07  0.839E-04    0.78      12.2  T
   6   -182.6061764 -0.385390E-07  0.349E-04    0.78      29.4  T
     SCC iter.                  ...        0 min,  0.078 sec
     gradient                   ...        0 min,  0.023 sec
 * total energy  :  -179.4815111 Eh     change       -0.8693099E-04 Eh
   gradient norm :     0.0076075 Eh/α   predicted    -0.1306540E-03 (  50.30%)
   displ. norm   :     0.0923158 α      lambda       -0.1443652E-03
   maximum displ.:     0.0421088 α      in ANC's #3, #17, #26, ...

........................................................................
.............................. CYCLE   26 ..............................
........................................................................
   1   -182.6050664 -0.182605E+03  0.620E-02    0.77       0.0  T
   2   -182.6050710 -0.461585E-05  0.341E-02    0.78       1.0  T
   3   -182.6050653  0.569970E-05  0.941E-03    0.77       1.1  T
   4   -182.6050734 -0.812404E-05  0.166E-03    0.77       6.2  T
   5   -182.6050735 -0.588115E-07  0.100E-03    0.78      10.2  T
   6   -182.6050735 -0.698195E-07  0.322E-04    0.77      31.9  T
     SCC iter.                  ...        0 min,  0.070 sec
     gradient                   ...        0 min,  0.021 sec
 * total energy  :  -179.4815132 Eh     change       -0.2134033E-05 Eh
   gradient norm :     0.0042488 Eh/α   predicted    -0.7279955E-04 (3311.36%)
   displ. norm   :     0.0757901 α      lambda       -0.1584708E-03
   maximum displ.:     0.0411420 α      in ANC's #3, #9, #21, ...

........................................................................
.............................. CYCLE   27 ..............................
........................................................................
   1   -182.6058263 -0.182606E+03  0.484E-02    0.78       0.0  T
   2   -182.6058288 -0.242924E-05  0.265E-02    0.78       1.0  T
   3   -182.6058271  0.166628E-05  0.561E-03    0.78       1.8  T
   4   -182.6058299 -0.283171E-05  0.141E-03    0.78       7.3  T
   5   -182.6058299 -0.469802E-08  0.733E-04    0.78      14.0  T
     SCC iter.                  ...        0 min,  0.061 sec
     gradient                   ...        0 min,  0.021 sec
 * total energy  :  -179.4815910 Eh     change       -0.7782402E-04 Eh
   gradient norm :     0.0074022 Eh/α   predicted    -0.7969109E-04 (   2.40%)
   displ. norm   :     0.0762206 α      lambda       -0.6292918E-04
   maximum displ.:     0.0503405 α      in ANC's #3, #9, #10, ...

........................................................................
.............................. CYCLE   28 ..............................
........................................................................
   1   -182.6054619 -0.182605E+03  0.337E-02    0.78       0.0  T
   2   -182.6054631 -0.124277E-05  0.184E-02    0.77       1.0  T
   3   -182.6054631  0.370570E-07  0.289E-03    0.78       3.6  T
   4   -182.6054635 -0.430986E-06  0.144E-03    0.78       7.1  T
     SCC iter.                  ...        0 min,  0.048 sec
     gradient                   ...        0 min,  0.021 sec
 * total energy  :  -179.4816275 Eh     change       -0.3643221E-04 Eh
   gradient norm :     0.0016496 Eh/α   predicted    -0.3164968E-04 ( -13.13%)
   displ. norm   :     0.2079727 α      lambda       -0.7483762E-04
   maximum displ.:     0.1336078 α      in ANC's #3, #9, #10, ...

........................................................................
.............................. CYCLE   29 ..............................
........................................................................
   1   -182.6045974 -0.182605E+03  0.805E-02    0.77       0.0  T
   2   -182.6046039 -0.649964E-05  0.434E-02    0.77       1.0  T
   3   -182.6046015  0.237636E-05  0.875E-03    0.77       1.2  T
   4   -182.6046058 -0.427847E-05  0.418E-03    0.77       2.5  T
   5   -182.6046064 -0.582801E-06  0.136E-03    0.77       7.5  T
   6   -182.6046065 -0.169147E-06  0.437E-04    0.77      23.5  T
   7   -182.6046066 -0.578208E-08  0.250E-04    0.77      41.1  T
     SCC iter.                  ...        0 min,  0.083 sec
     gradient                   ...        0 min,  0.022 sec
 * total energy  :  -179.4816397 Eh     change       -0.1221607E-04 Eh
   gradient norm :     0.0119597 Eh/α   predicted    -0.3813923E-04 ( 212.21%)
   displ. norm   :     0.1299051 α      lambda       -0.1126769E-03
   maximum displ.:     0.0782305 α      in ANC's #3, #9, #4, ...

........................................................................
.............................. CYCLE   30 ..............................
........................................................................
   1   -182.6049945 -0.182605E+03  0.454E-02    0.77       0.0  T
   2   -182.6049965 -0.200844E-05  0.245E-02    0.77       1.0  T
   3   -182.6049935  0.303411E-05  0.719E-03    0.77       1.4  T
   4   -182.6049973 -0.381910E-05  0.248E-03    0.77       4.1  T
   5   -182.6049974 -0.113599E-06  0.109E-03    0.77       9.4  T
   6   -182.6049975 -0.121148E-06  0.267E-04    0.77      38.4  T
     SCC iter.                  ...        0 min,  0.071 sec
     gradient                   ...        0 min,  0.021 sec
 * total energy  :  -179.4817164 Eh     change       -0.7674599E-04 Eh
   gradient norm :     0.0077086 Eh/α   predicted    -0.5729273E-04 ( -25.35%)
   displ. norm   :     0.2095628 α      lambda       -0.1226876E-03
   maximum displ.:     0.1289765 α      in ANC's #3, #9, #4, ...

........................................................................
.............................. CYCLE   31 ..............................
........................................................................
   1   -182.6045355 -0.182605E+03  0.780E-02    0.77       0.0  T
   2   -182.6045414 -0.592000E-05  0.420E-02    0.77       1.0  T
   3   -182.6045365  0.485216E-05  0.100E-02    0.77       1.0  T
   4   -182.6045433 -0.672976E-05  0.405E-03    0.77       2.5  T
   5   -182.6045436 -0.364875E-06  0.174E-03    0.77       5.9  T
   6   -182.6045439 -0.306845E-06  0.497E-04    0.77      20.7  T
     SCC iter.                  ...        0 min,  0.071 sec
     gradient                   ...        0 min,  0.021 sec
 * total energy  :  -179.4817528 Eh     change       -0.3638644E-04 Eh
   gradient norm :     0.0066265 Eh/α   predicted    -0.6403889E-04 (  76.00%)
   displ. norm   :     0.1227475 α      lambda       -0.7716427E-04
   maximum displ.:     0.0786598 α      in ANC's #3, #9, #4, ...

........................................................................
.............................. CYCLE   32 ..............................
........................................................................
   1   -182.6051825 -0.182605E+03  0.418E-02    0.77       0.0  T
   2   -182.6051841 -0.157396E-05  0.225E-02    0.77       1.0  T
   3   -182.6051838  0.258752E-06  0.409E-03    0.77       2.5  T
   4   -182.6051844 -0.555931E-06  0.238E-03    0.77       4.3  T
   5   -182.6051847 -0.261400E-06  0.596E-04    0.77      17.2  T
     SCC iter.                  ...        0 min,  0.060 sec
     gradient                   ...        0 min,  0.021 sec
 * total energy  :  -179.4818035 Eh     change       -0.5065741E-04 Eh
   gradient norm :     0.0044167 Eh/α   predicted    -0.3916380E-04 ( -22.69%)
   displ. norm   :     0.1572543 α      lambda       -0.7381881E-04
   maximum displ.:     0.1008518 α      in ANC's #3, #9, #4, ...

........................................................................
.............................. CYCLE   33 ..............................
........................................................................
   1   -182.6054664 -0.182605E+03  0.534E-02    0.77       0.0  T
   2   -182.6054691 -0.266059E-05  0.287E-02    0.77       1.0  T
   3   -182.6054662  0.286155E-05  0.749E-03    0.77       1.4  T
   4   -182.6054701 -0.382400E-05  0.281E-03    0.77       3.7  T
   5   -182.6054702 -0.180291E-06  0.102E-03    0.77      10.1  T
   6   -182.6054703 -0.101113E-06  0.294E-04    0.77      34.9  T
     SCC iter.                  ...        0 min,  0.070 sec
     gradient                   ...        0 min,  0.021 sec
 * total energy  :  -179.4818483 Eh     change       -0.4483271E-04 Eh
   gradient norm :     0.0030657 Eh/α   predicted    -0.3782286E-04 ( -15.64%)
   displ. norm   :     0.1841912 α      lambda       -0.7546324E-04
   maximum displ.:     0.1182047 α      in ANC's #3, #9, #4, ...

........................................................................
.............................. CYCLE   34 ..............................
........................................................................
   1   -182.6061960 -0.182606E+03  0.545E-02    0.77       0.0  T
   2   -182.6061986 -0.259826E-05  0.290E-02    0.77       1.0  T
   3   -182.6061984  0.176822E-06  0.527E-03    0.77       1.9  T
   4   -182.6061986 -0.186100E-06  0.369E-03    0.77       2.8  T
   5   -182.6061994 -0.787722E-06  0.721E-04    0.77      14.2  T
   6   -182.6061994 -0.483319E-07  0.281E-04    0.77      36.5  T
     SCC iter.                  ...        0 min,  0.071 sec
     gradient                   ...        0 min,  0.023 sec
 * total energy  :  -179.4819110 Eh     change       -0.6269678E-04 Eh
   gradient norm :     0.0038988 Eh/α   predicted    -0.3901289E-04 ( -37.78%)
   displ. norm   :     0.3254107 α      lambda       -0.1173744E-03
   maximum displ.:     0.2070693 α      in ANC's #3, #9, #4, ...

........................................................................
.............................. CYCLE   35 ..............................
........................................................................
   1   -182.6051368 -0.182605E+03  0.101E-01    0.76       0.0  T
   2   -182.6051458 -0.899837E-05  0.539E-02    0.77       1.0  T
   3   -182.6051450  0.798370E-06  0.977E-03    0.76       1.1  T
   4   -182.6051463 -0.133953E-05  0.654E-03    0.77       1.6  T
   5   -182.6051486 -0.228921E-05  0.131E-03    0.77       7.8  T
   6   -182.6051488 -0.163835E-06  0.502E-04    0.77      20.4  T
   7   -182.6051488 -0.608540E-08  0.309E-04    0.77      33.2  T
     SCC iter.                  ...        0 min,  0.082 sec
     gradient                   ...        0 min,  0.023 sec
 * total energy  :  -179.4819990 Eh     change       -0.8804211E-04 Eh
   gradient norm :     0.0025510 Eh/α   predicted    -0.6490300E-04 ( -26.28%)
   displ. norm   :     0.4117045 α      lambda       -0.1250433E-03
   maximum displ.:     0.2625267 α      in ANC's #3, #9, #4, ...

........................................................................
.............................. CYCLE   36 ..............................
........................................................................
   1   -182.6032075 -0.182603E+03  0.126E-01    0.76       0.0  T
   2   -182.6032211 -0.136563E-04  0.667E-02    0.76       1.0  T
   3   -182.6032210  0.131346E-06  0.116E-02    0.76       1.0  T
   4   -182.6032207  0.257405E-06  0.840E-03    0.76       1.2  T
   5   -182.6032252 -0.450630E-05  0.154E-03    0.76       6.7  T
   6   -182.6032254 -0.204888E-06  0.610E-04    0.76      16.8  T
   7   -182.6032254 -0.942225E-08  0.363E-04    0.76      28.3  T
     SCC iter.                  ...        0 min,  0.082 sec
     gradient                   ...        0 min,  0.023 sec
 * total energy  :  -179.4820764 Eh     change       -0.7732058E-04 Eh
   gradient norm :     0.0037853 Eh/α   predicted    -0.7311982E-04 (  -5.43%)
   displ. norm   :     0.3011968 α      lambda       -0.7686772E-04
   maximum displ.:     0.1942908 α      in ANC's #3, #9, #4, ...

........................................................................
.............................. CYCLE   37 ..............................
........................................................................
   1   -182.6030876 -0.182603E+03  0.907E-02    0.76       0.0  T
   2   -182.6030945 -0.689699E-05  0.482E-02    0.76       1.0  T
   3   -182.6030948 -0.308942E-06  0.804E-03    0.76       1.3  T
   4   -182.6030940  0.877710E-06  0.601E-03    0.76       1.7  T
   5   -182.6030965 -0.258076E-05  0.102E-03    0.76      10.1  T
   6   -182.6030966 -0.876719E-07  0.420E-04    0.76      24.4  T
   7   -182.6030966 -0.447054E-08  0.247E-04    0.76      41.6  T
     SCC iter.                  ...        0 min,  0.083 sec
     gradient                   ...        0 min,  0.023 sec
 * total energy  :  -179.4821399 Eh     change       -0.6348796E-04 Eh
   gradient norm :     0.0034588 Eh/α   predicted    -0.4192174E-04 ( -33.97%)
   displ. norm   :     0.3023812 α      lambda       -0.8203159E-04
   maximum displ.:     0.1993603 α      in ANC's #3, #4, #9, ...

........................................................................
.............................. CYCLE   38 ..............................
........................................................................
   1   -182.6046415 -0.182605E+03  0.908E-02    0.76       0.0  T
   2   -182.6046485 -0.702680E-05  0.481E-02    0.76       1.0  T
   3   -182.6046488 -0.320490E-06  0.806E-03    0.76       1.3  T
   4   -182.6046478  0.100915E-05  0.601E-03    0.76       1.7  T
   5   -182.6046505 -0.272173E-05  0.104E-03    0.76       9.9  T
   6   -182.6046506 -0.853975E-07  0.400E-04    0.76      25.6  T
   7   -182.6046506 -0.336428E-08  0.252E-04    0.76      40.7  T
     SCC iter.                  ...        0 min,  0.084 sec
     gradient                   ...        0 min,  0.023 sec
 * total energy  :  -179.4822038 Eh     change       -0.6391728E-04 Eh
   gradient norm :     0.0020564 Eh/α   predicted    -0.4475703E-04 ( -29.98%)
   displ. norm   :     0.3283787 α      lambda       -0.8005132E-04
   maximum displ.:     0.2184761 α      in ANC's #3, #4, #9, ...

........................................................................
.............................. CYCLE   39 ..............................
........................................................................
   1   -182.6056573 -0.182606E+03  0.100E-01    0.76       0.0  T
   2   -182.6056658 -0.852507E-05  0.529E-02    0.76       1.0  T
   3   -182.6056657  0.369841E-07  0.920E-03    0.76       1.1  T
   4   -182.6056651  0.642247E-06  0.673E-03    0.76       1.5  T
   5   -182.6056682 -0.312614E-05  0.131E-03    0.76       7.9  T
   6   -182.6056684 -0.148496E-06  0.439E-04    0.76      23.4  T
   7   -182.6056684 -0.383227E-08  0.276E-04    0.76      37.2  T
     SCC iter.                  ...        0 min,  0.082 sec
     gradient                   ...        0 min,  0.023 sec
 * total energy  :  -179.4822593 Eh     change       -0.5555660E-04 Eh
   gradient norm :     0.0024589 Eh/α   predicted    -0.4434737E-04 ( -20.18%)
   displ. norm   :     0.2924503 α      lambda       -0.6055374E-04
   maximum displ.:     0.1948777 α      in ANC's #3, #4, #9, ...

........................................................................
.............................. CYCLE   40 ..............................
........................................................................
   1   -182.6051162 -0.182605E+03  0.892E-02    0.76       0.0  T
   2   -182.6051228 -0.666435E-05  0.470E-02    0.76       1.0  T
   3   -182.6051234 -0.570727E-06  0.784E-03    0.76       1.3  T
   4   -182.6051214  0.202506E-05  0.612E-03    0.76       1.7  T
   5   -182.6051247 -0.330133E-05  0.794E-04    0.76      12.9  T
   6   -182.6051247 -0.474706E-07  0.354E-04    0.76      29.0  T
   7   -182.6051247 -0.272462E-08  0.208E-04    0.76      49.2  T
     SCC iter.                  ...        0 min,  0.082 sec
     gradient                   ...        0 min,  0.023 sec
 * total energy  :  -179.4823102 Eh     change       -0.5089114E-04 Eh
   gradient norm :     0.0024307 Eh/α   predicted    -0.3287149E-04 ( -35.41%)
   displ. norm   :     0.2938683 α      lambda       -0.5955317E-04
   maximum displ.:     0.1995475 α      in ANC's #3, #4, #9, ...

........................................................................
.............................. CYCLE   41 ..............................
........................................................................
   1   -182.6051715 -0.182605E+03  0.903E-02    0.75       0.0  T
   2   -182.6051784 -0.694734E-05  0.476E-02    0.75       1.0  T
   3   -182.6051789 -0.471400E-06  0.804E-03    0.75       1.3  T
   4   -182.6051777  0.116722E-05  0.598E-03    0.75       1.7  T
   5   -182.6051804 -0.265463E-05  0.849E-04    0.75      12.1  T
   6   -182.6051805 -0.618494E-07  0.346E-04    0.75      29.7  T
   7   -182.6051805 -0.242750E-08  0.214E-04    0.75      47.9  T
     SCC iter.                  ...        0 min,  0.083 sec
     gradient                   ...        0 min,  0.022 sec
 * total energy  :  -179.4823624 Eh     change       -0.5219219E-04 Eh
   gradient norm :     0.0023411 Eh/α   predicted    -0.3235163E-04 ( -38.01%)
   displ. norm   :     0.3925274 α      lambda       -0.7892347E-04
   maximum displ.:     0.2670863 α      in ANC's #3, #4, #1, ...

........................................................................
.............................. CYCLE   42 ..............................
........................................................................
   1   -182.6050091 -0.182605E+03  0.120E-01    0.75       0.0  T
   2   -182.6050211 -0.120128E-04  0.633E-02    0.75       1.0  T
   3   -182.6050218 -0.738689E-06  0.109E-02    0.75       1.0  T
   4   -182.6050197  0.208380E-05  0.804E-03    0.75       1.3  T
   5   -182.6050244 -0.467655E-05  0.110E-03    0.75       9.3  T
   6   -182.6050245 -0.103524E-06  0.457E-04    0.75      22.4  T
   7   -182.6050245 -0.616876E-08  0.271E-04    0.75      37.8  T
     SCC iter.                  ...        0 min,  0.082 sec
     gradient                   ...        0 min,  0.023 sec
 * total energy  :  -179.4824302 Eh     change       -0.6779670E-04 Eh
   gradient norm :     0.0020593 Eh/α   predicted    -0.4554478E-04 ( -32.82%)
   displ. norm   :     0.5194749 α      lambda       -0.1023390E-03
   maximum displ.:     0.3548037 α      in ANC's #3, #4, #1, ...
 * RMSD in coord.:     0.4518492 α      energy gain  -0.1045400E-02 Eh

generating ANC from model Hessian ...
Using Lindh-Hessian (1995)
 Shifting diagonal of input Hessian by   4.989983922922545E-003
 Lowest  eigenvalues of input Hessian
   -0.000000   -0.000000   -0.000000   -0.000000    0.000000    0.000000
    0.005000    0.005010    0.005011    0.005047    0.005087    0.005171
    0.005230    0.005283    0.005351    0.005363    0.005537    0.005554
 Highest eigenvalues
    2.567979    2.568065    2.589022    2.590433    2.665351    2.665899
 

........................................................................
.............................. CYCLE   43 ..............................
........................................................................
   1   -182.6038223 -0.182604E+03  0.161E-01    0.75       0.0  T
   2   -182.6038437 -0.213931E-04  0.850E-02    0.75       1.0  T
   3   -182.6038455 -0.181048E-05  0.142E-02    0.75       1.0  T
   4   -182.6038408  0.468058E-05  0.107E-02    0.75       1.0  T
   5   -182.6038496 -0.879257E-05  0.150E-03    0.75       6.8  T
   6   -182.6038498 -0.204129E-06  0.610E-04    0.75      16.8  T
   7   -182.6038498 -0.117585E-07  0.361E-04    0.75      28.5  T
     SCC iter.                  ...        0 min,  0.081 sec
     gradient                   ...        0 min,  0.023 sec
 * total energy  :  -179.4825074 Eh     change       -0.7721071E-04 Eh
   gradient norm :     0.0029165 Eh/α   predicted     0.0000000E+00 (-100.00%)
   displ. norm   :     0.0780834 α      lambda       -0.7013476E-04
   maximum displ.:     0.0337702 α      in ANC's #10, #6, #23, ...

........................................................................
.............................. CYCLE   44 ..............................
........................................................................
   1   -182.6046782 -0.182605E+03  0.579E-02    0.75       0.0  T
   2   -182.6046817 -0.344406E-05  0.317E-02    0.75       1.0  T
   3   -182.6046817  0.742361E-08  0.433E-03    0.75       2.4  T
   4   -182.6046832 -0.154849E-05  0.130E-03    0.75       7.9  T
   5   -182.6046832 -0.149951E-07  0.616E-04    0.75      16.7  T
   6   -182.6046833 -0.280031E-07  0.237E-04    0.75      43.4  T
     SCC iter.                  ...        0 min,  0.071 sec
     gradient                   ...        0 min,  0.023 sec
 * total energy  :  -179.4824709 Eh     change        0.3649169E-04 Eh
   gradient norm :     0.0040593 Eh/α   predicted    -0.3528163E-04 (-196.68%)
   displ. norm   :     0.0587971 α      lambda       -0.1395356E-03
   maximum displ.:     0.0269186 α      in ANC's #2, #11, #28, ...

........................................................................
.............................. CYCLE   45 ..............................
........................................................................
   1   -182.6059886 -0.182606E+03  0.507E-02    0.75       0.0  T
   2   -182.6059913 -0.275196E-05  0.279E-02    0.75       1.0  T
   3   -182.6059917 -0.378210E-06  0.323E-03    0.75       3.2  T
   4   -182.6059926 -0.833983E-06  0.108E-03    0.75       9.5  T
   5   -182.6059926 -0.174923E-07  0.515E-04    0.75      19.9  T
     SCC iter.                  ...        0 min,  0.060 sec
     gradient                   ...        0 min,  0.022 sec
 * total energy  :  -179.4825101 Eh     change       -0.3920478E-04 Eh
   gradient norm :     0.0033696 Eh/α   predicted    -0.7000928E-04 (  78.57%)
   displ. norm   :     0.0818822 α      lambda       -0.1480588E-03
   maximum displ.:     0.0309195 α      in ANC's #24, #23, #27, ...

........................................................................
.............................. CYCLE   46 ..............................
........................................................................
   1   -182.6058438 -0.182606E+03  0.786E-02    0.75       0.0  T
   2   -182.6058498 -0.601894E-05  0.432E-02    0.75       1.0  T
   3   -182.6058480  0.181107E-05  0.717E-03    0.75       1.4  T
   4   -182.6058528 -0.474240E-05  0.117E-03    0.75       8.8  T
   5   -182.6058528 -0.759437E-08  0.701E-04    0.75      14.6  T
   6   -182.6058528 -0.210889E-07  0.298E-04    0.75      34.4  T
     SCC iter.                  ...        0 min,  0.072 sec
     gradient                   ...        0 min,  0.023 sec
 * total energy  :  -179.4824711 Eh     change        0.3905788E-04 Eh
   gradient norm :     0.0046462 Eh/α   predicted    -0.7452673E-04 (-290.81%)
   displ. norm   :     0.0529157 α      lambda       -0.1578223E-03
   maximum displ.:     0.0201679 α      in ANC's #23, #24, #27, ...

........................................................................
.............................. CYCLE   47 ..............................
........................................................................
   1   -182.6059350 -0.182606E+03  0.503E-02    0.75       0.0  T
   2   -182.6059375 -0.248771E-05  0.276E-02    0.75       1.0  T
   3   -182.6059365  0.973351E-06  0.482E-03    0.75       2.1  T
   4   -182.6059387 -0.221167E-05  0.761E-04    0.75      13.5  T
   5   -182.6059387 -0.189937E-08  0.427E-04    0.75      24.0  T
     SCC iter.                  ...        0 min,  0.060 sec
     gradient                   ...        0 min,  0.021 sec
 * total energy  :  -179.4825525 Eh     change       -0.8143211E-04 Eh
   gradient norm :     0.0010329 Eh/α   predicted    -0.7913345E-04 (  -2.82%)
   displ. norm   :     0.0890444 α      lambda       -0.3305639E-04
   maximum displ.:     0.0334282 α      in ANC's #4, #6, #29, ...

........................................................................
.............................. CYCLE   48 ..............................
........................................................................
   1   -182.6047657 -0.182605E+03  0.625E-02    0.75       0.0  T
   2   -182.6047698 -0.414779E-05  0.343E-02    0.75       1.0  T
   3   -182.6047702 -0.388022E-06  0.446E-03    0.75       2.3  T
   4   -182.6047716 -0.136412E-05  0.176E-03    0.75       5.8  T
   5   -182.6047716 -0.645226E-07  0.750E-04    0.75      13.7  T
   6   -182.6047717 -0.494858E-07  0.273E-04    0.75      37.5  T
     SCC iter.                  ...        0 min,  0.073 sec
     gradient                   ...        0 min,  0.023 sec
 * total energy  :  -179.4824467 Eh     change        0.1057760E-03 Eh
   gradient norm :     0.0055179 Eh/α   predicted    -0.1658929E-04 (-115.68%)
   displ. norm   :     0.0420086 α      lambda       -0.1622171E-03
   maximum displ.:     0.0165286 α      in ANC's #8, #2, #10, ...

........................................................................
.............................. CYCLE   49 ..............................
........................................................................
   1   -182.6053573 -0.182605E+03  0.346E-02    0.75       0.0  T
   2   -182.6053586 -0.130252E-05  0.190E-02    0.75       1.0  T
   3   -182.6053587 -0.155329E-06  0.226E-03    0.75       4.5  T
   4   -182.6053592 -0.432478E-06  0.675E-04    0.75      15.2  T
     SCC iter.                  ...        0 min,  0.048 sec
     gradient                   ...        0 min,  0.021 sec
 * total energy  :  -179.4825583 Eh     change       -0.1115406E-03 Eh
   gradient norm :     0.0021937 Eh/α   predicted    -0.8125222E-04 ( -27.15%)
   displ. norm   :     0.0671979 α      lambda       -0.5454650E-04
   maximum displ.:     0.0346859 α      in ANC's #2, #10, #8, ...

........................................................................
.............................. CYCLE   50 ..............................
........................................................................
   1   -182.6054633 -0.182605E+03  0.331E-02    0.75       0.0  T
   2   -182.6054643 -0.105630E-05  0.180E-02    0.75       1.0  T
   3   -182.6054642  0.172870E-06  0.283E-03    0.75       3.6  T
   4   -182.6054647 -0.546299E-06  0.136E-03    0.75       7.6  T
   5   -182.6054648 -0.753073E-07  0.486E-04    0.75      21.1  T
   6   -182.6054648 -0.180001E-07  0.161E-04    0.75      63.5  T
     SCC iter.                  ...        0 min,  0.075 sec
     gradient                   ...        0 min,  0.024 sec
 * total energy  :  -179.4825875 Eh     change       -0.2920774E-04 Eh
   gradient norm :     0.0011343 Eh/α   predicted    -0.2739677E-04 (  -6.20%)
   displ. norm   :     0.1254970 α      lambda       -0.2826812E-04
   maximum displ.:     0.0637109 α      in ANC's #2, #10, #4, ...

........................................................................
.............................. CYCLE   51 ..............................
........................................................................
   1   -182.6055781 -0.182606E+03  0.499E-02    0.75       0.0  T
   2   -182.6055803 -0.220543E-05  0.269E-02    0.75       1.0  T
   3   -182.6055797  0.628338E-06  0.486E-03    0.75       2.1  T
   4   -182.6055809 -0.124992E-05  0.248E-03    0.75       4.1  T
   5   -182.6055812 -0.247799E-06  0.725E-04    0.75      14.2  T
   6   -182.6055812 -0.504947E-07  0.270E-04    0.75      38.0  T
     SCC iter.                  ...        0 min,  0.070 sec
     gradient                   ...        0 min,  0.023 sec
 * total energy  :  -179.4825921 Eh     change       -0.4620222E-05 Eh
   gradient norm :     0.0024900 Eh/α   predicted    -0.1423656E-04 ( 208.14%)
   displ. norm   :     0.0738752 α      lambda       -0.3498034E-04
   maximum displ.:     0.0373498 α      in ANC's #2, #10, #4, ...

........................................................................
.............................. CYCLE   52 ..............................
........................................................................
   1   -182.6058346 -0.182606E+03  0.266E-02    0.75       0.0  T
   2   -182.6058352 -0.634179E-06  0.142E-02    0.75       1.0  T
   3   -182.6058351  0.115331E-06  0.261E-03    0.75       3.9  T
   4   -182.6058354 -0.237034E-06  0.152E-03    0.75       6.7  T
   5   -182.6058355 -0.103469E-06  0.408E-04    0.75      25.1  T
   6   -182.6058355 -0.162597E-07  0.141E-04    0.75      72.6  T
     SCC iter.                  ...        0 min,  0.069 sec
     gradient                   ...        0 min,  0.023 sec
 * total energy  :  -179.4826220 Eh     change       -0.2985355E-04 Eh
   gradient norm :     0.0019133 Eh/α   predicted    -0.1758698E-04 ( -41.09%)
   displ. norm   :     0.4996040 α      lambda       -0.1010859E-03
   maximum displ.:     0.2585700 α      in ANC's #2, #10, #4, ...

........................................................................
.............................. CYCLE   53 ..............................
........................................................................
   1   -182.6038107 -0.182604E+03  0.162E-01    0.75       0.0  T
   2   -182.6038332 -0.224630E-04  0.861E-02    0.75       1.0  T
   3   -182.6038361 -0.296785E-05  0.134E-02    0.75       1.0  T
   4   -182.6038329  0.320875E-05  0.994E-03    0.74       1.0  T
   5   -182.6038401 -0.714840E-05  0.175E-03    0.75       5.9  T
   6   -182.6038403 -0.221414E-06  0.780E-04    0.75      13.2  T
   7   -182.6038403 -0.143284E-07  0.431E-04    0.75      23.8  T
     SCC iter.                  ...        0 min,  0.083 sec
     gradient                   ...        0 min,  0.023 sec
 * total energy  :  -179.4826735 Eh     change       -0.5159122E-04 Eh
   gradient norm :     0.0044421 Eh/α   predicted    -0.5615236E-04 (   8.84%)
   displ. norm   :     0.2456881 α      lambda       -0.8777162E-04
   maximum displ.:     0.1280739 α      in ANC's #2, #10, #4, ...

........................................................................
.............................. CYCLE   54 ..............................
........................................................................
   1   -182.6029010 -0.182603E+03  0.878E-02    0.74       0.0  T
   2   -182.6029078 -0.679545E-05  0.469E-02    0.74       1.0  T
   3   -182.6029041  0.362760E-05  0.987E-03    0.74       1.0  T
   4   -182.6029093 -0.514450E-05  0.512E-03    0.75       2.0  T
   5   -182.6029104 -0.110255E-05  0.136E-03    0.74       7.5  T
   6   -182.6029106 -0.189976E-06  0.445E-04    0.74      23.0  T
     SCC iter.                  ...        0 min,  0.072 sec
     gradient                   ...        0 min,  0.021 sec
 * total energy  :  -179.4827107 Eh     change       -0.3716563E-04 Eh
   gradient norm :     0.0043639 Eh/α   predicted    -0.4653671E-04 (  25.21%)
   displ. norm   :     0.1192551 α      lambda       -0.6465590E-04
   maximum displ.:     0.0650779 α      in ANC's #2, #10, #4, ...

........................................................................
.............................. CYCLE   55 ..............................
........................................................................
   1   -182.6056653 -0.182606E+03  0.403E-02    0.74       0.0  T
   2   -182.6056667 -0.142769E-05  0.215E-02    0.74       1.0  T
   3   -182.6056656  0.105952E-05  0.505E-03    0.74       2.0  T
   4   -182.6056670 -0.137423E-05  0.244E-03    0.74       4.2  T
   5   -182.6056672 -0.207106E-06  0.724E-04    0.74      14.2  T
     SCC iter.                  ...        0 min,  0.061 sec
     gradient                   ...        0 min,  0.021 sec
 * total energy  :  -179.4827580 Eh     change       -0.4729253E-04 Eh
   gradient norm :     0.0024953 Eh/α   predicted    -0.3279046E-04 ( -30.66%)
   displ. norm   :     0.2708126 α      lambda       -0.6111603E-04
   maximum displ.:     0.1477499 α      in ANC's #2, #4, #10, ...

........................................................................
.............................. CYCLE   56 ..............................
........................................................................
   1   -182.6060203 -0.182606E+03  0.828E-02    0.74       0.0  T
   2   -182.6060260 -0.575190E-05  0.436E-02    0.74       1.0  T
   3   -182.6060266 -0.611198E-06  0.727E-03    0.74       1.4  T
   4   -182.6060250  0.160073E-05  0.561E-03    0.74       1.8  T
   5   -182.6060276 -0.261029E-05  0.705E-04    0.74      14.6  T
   6   -182.6060277 -0.352490E-07  0.350E-04    0.74      29.3  T
   7   -182.6060277 -0.401545E-08  0.200E-04    0.74      51.4  T
     SCC iter.                  ...        0 min,  0.082 sec
     gradient                   ...        0 min,  0.023 sec
 * total energy  :  -179.4827953 Eh     change       -0.3734441E-04 Eh
   gradient norm :     0.0020658 Eh/α   predicted    -0.3279900E-04 ( -12.17%)
   displ. norm   :     0.3346006 α      lambda       -0.5131549E-04
   maximum displ.:     0.1814935 α      in ANC's #2, #4, #10, ...

........................................................................
.............................. CYCLE   57 ..............................
........................................................................
   1   -182.6036376 -0.182604E+03  0.109E-01    0.74       0.0  T
   2   -182.6036474 -0.985028E-05  0.575E-02    0.74       1.0  T
   3   -182.6036491 -0.163711E-05  0.877E-03    0.74       1.2  T
   4   -182.6036461  0.300574E-05  0.685E-03    0.74       1.5  T
   5   -182.6036503 -0.428124E-05  0.889E-04    0.74      11.5  T
   6   -182.6036504 -0.477993E-07  0.470E-04    0.74      21.8  T
   7   -182.6036504 -0.520009E-08  0.263E-04    0.74      39.0  T
     SCC iter.                  ...        0 min,  0.083 sec
     gradient                   ...        0 min,  0.023 sec
 * total energy  :  -179.4828205 Eh     change       -0.2515786E-04 Eh
   gradient norm :     0.0032635 Eh/α   predicted    -0.2853615E-04 (  13.43%)
   displ. norm   :     0.2558419 α      lambda       -0.3952880E-04
   maximum displ.:     0.1410202 α      in ANC's #2, #4, #10, ...

........................................................................
.............................. CYCLE   58 ..............................
........................................................................
   1   -182.6043851 -0.182604E+03  0.793E-02    0.74       0.0  T
   2   -182.6043903 -0.521241E-05  0.416E-02    0.74       1.0  T
   3   -182.6043914 -0.101400E-05  0.655E-03    0.74       1.6  T
   4   -182.6043901  0.129873E-05  0.437E-03    0.74       2.3  T
   5   -182.6043918 -0.171503E-05  0.527E-04    0.74      19.5  T
   6   -182.6043918 -0.137534E-07  0.284E-04    0.74      36.2  T
   7   -182.6043918 -0.182985E-08  0.165E-04    0.74      62.4  T
     SCC iter.                  ...        0 min,  0.083 sec
     gradient                   ...        0 min,  0.023 sec
 * total energy  :  -179.4828533 Eh     change       -0.3281019E-04 Eh
   gradient norm :     0.0019645 Eh/α   predicted    -0.2105946E-04 ( -35.81%)
   displ. norm   :     0.6438047 α      lambda       -0.6357189E-04
   maximum displ.:     0.3720583 α      in ANC's #2, #4, #10, ...

........................................................................
.............................. CYCLE   59 ..............................
........................................................................
   1   -182.6046360 -0.182605E+03  0.204E-01    0.74       0.0  T
   2   -182.6046714 -0.353949E-04  0.108E-01    0.74       1.0  T
   3   -182.6046782 -0.677602E-05  0.167E-02    0.74       1.0  T
   4   -182.6046689  0.928516E-05  0.121E-02    0.74       1.0  T
   5   -182.6046814 -0.124911E-04  0.159E-03    0.74       6.5  T
   6   -182.6046815 -0.166610E-06  0.820E-04    0.74      12.5  T
   7   -182.6046816 -0.251515E-07  0.449E-04    0.74      22.8  T
     SCC iter.                  ...        0 min,  0.082 sec
     gradient                   ...        0 min,  0.023 sec
 * total energy  :  -179.4829022 Eh     change       -0.4888360E-04 Eh
   gradient norm :     0.0037466 Eh/α   predicted    -0.3764267E-04 ( -23.00%)
   displ. norm   :     0.3004521 α      lambda       -0.5297641E-04
   maximum displ.:     0.1802336 α      in ANC's #2, #4, #6, ...

........................................................................
.............................. CYCLE   60 ..............................
........................................................................
   1   -182.6060620 -0.182606E+03  0.946E-02    0.73       0.0  T
   2   -182.6060696 -0.759334E-05  0.499E-02    0.74       1.0  T
   3   -182.6060701 -0.483727E-06  0.838E-03    0.73       1.2  T
   4   -182.6060685  0.159029E-05  0.659E-03    0.74       1.6  T
   5   -182.6060718 -0.334177E-05  0.804E-04    0.74      12.8  T
   6   -182.6060719 -0.460260E-07  0.418E-04    0.74      24.6  T
   7   -182.6060719 -0.903981E-08  0.215E-04    0.74      47.7  T
     SCC iter.                  ...        0 min,  0.082 sec
     gradient                   ...        0 min,  0.022 sec
 * total energy  :  -179.4829180 Eh     change       -0.1584749E-04 Eh
   gradient norm :     0.0050105 Eh/α   predicted    -0.2887968E-04 (  82.24%)
   displ. norm   :     0.1009610 α      lambda       -0.3891491E-04
   maximum displ.:     0.0623523 α      in ANC's #2, #4, #1, ...

........................................................................
.............................. CYCLE   61 ..............................
........................................................................
   1   -182.6063872 -0.182606E+03  0.333E-02    0.74       0.0  T
   2   -182.6063881 -0.986748E-06  0.178E-02    0.74       1.0  T
   3   -182.6063878  0.328023E-06  0.362E-03    0.74       2.8  T
   4   -182.6063883 -0.492530E-06  0.202E-03    0.74       5.1  T
   5   -182.6063885 -0.160184E-06  0.572E-04    0.74      17.9  T
     SCC iter.                  ...        0 min,  0.059 sec
     gradient                   ...        0 min,  0.021 sec
 * total energy  :  -179.4829453 Eh     change       -0.2724447E-04 Eh
   gradient norm :     0.0020999 Eh/α   predicted    -0.1965650E-04 ( -27.85%)
   displ. norm   :     0.1451856 α      lambda       -0.3715832E-04
   maximum displ.:     0.0904654 α      in ANC's #2, #4, #1, ...

........................................................................
.............................. CYCLE   62 ..............................
........................................................................
   1   -182.6073460 -0.182607E+03  0.445E-02    0.74       0.0  T
   2   -182.6073478 -0.178391E-05  0.236E-02    0.74       1.0  T
   3   -182.6073472  0.592849E-06  0.488E-03    0.74       2.1  T
   4   -182.6073481 -0.868479E-06  0.279E-03    0.74       3.7  T
   5   -182.6073484 -0.318130E-06  0.763E-04    0.74      13.4  T
   6   -182.6073484 -0.540346E-07  0.221E-04    0.74      46.4  T
     SCC iter.                  ...        0 min,  0.070 sec
     gradient                   ...        0 min,  0.023 sec
 * total energy  :  -179.4829662 Eh     change       -0.2087388E-04 Eh
   gradient norm :     0.0033990 Eh/α   predicted    -0.1897420E-04 (  -9.10%)
   displ. norm   :     0.1719345 α      lambda       -0.4095760E-04
   maximum displ.:     0.1013817 α      in ANC's #2, #4, #1, ...

........................................................................
.............................. CYCLE   63 ..............................
........................................................................
   1   -182.6078951 -0.182608E+03  0.518E-02    0.74       0.0  T
   2   -182.6078975 -0.238172E-05  0.274E-02    0.74       1.0  T
   3   -182.6078972  0.353147E-06  0.509E-03    0.74       2.0  T
   4   -182.6078977 -0.578272E-06  0.329E-03    0.74       3.1  T
   5   -182.6078983 -0.527535E-06  0.875E-04    0.74      11.7  T
   6   -182.6078983 -0.687698E-07  0.274E-04    0.74      37.5  T
     SCC iter.                  ...        0 min,  0.071 sec
     gradient                   ...        0 min,  0.023 sec
 * total energy  :  -179.4829892 Eh     change       -0.2307579E-04 Eh
   gradient norm :     0.0040678 Eh/α   predicted    -0.2108765E-04 (  -8.62%)
   displ. norm   :     0.2138877 α      lambda       -0.4605018E-04
   maximum displ.:     0.1285159 α      in ANC's #2, #4, #1, ...

........................................................................
.............................. CYCLE   64 ..............................
........................................................................
   1   -182.6063365 -0.182606E+03  0.619E-02    0.73       0.0  T
   2   -182.6063397 -0.318394E-05  0.324E-02    0.73       1.0  T
   3   -182.6063397 -0.240853E-07  0.575E-03    0.73       1.8  T
   4   -182.6063391  0.637746E-06  0.449E-03    0.73       2.3  T
   5   -182.6063405 -0.146642E-05  0.823E-04    0.73      12.5  T
   6   -182.6063406 -0.635341E-07  0.271E-04    0.73      37.8  T
     SCC iter.                  ...        0 min,  0.071 sec
     gradient                   ...        0 min,  0.021 sec
 * total energy  :  -179.4830285 Eh     change       -0.3923859E-04 Eh
   gradient norm :     0.0028384 Eh/α   predicted    -0.2408213E-04 ( -38.63%)
   displ. norm   :     0.4374734 α      lambda       -0.8297085E-04
   maximum displ.:     0.2598562 α      in ANC's #2, #4, #1, ...

[...]
       177                         -0.2476344              -6.7385
       ...                                ...                  ...
       343                          1.1534747              31.3876
      -------------------------------------------------------------
                  HL-Gap            0.0264714 Eh            0.7203 eV
             Fermi-level           -0.3614771 Eh           -9.8363 eV

     #   Z        covCN         q      C6AA      α(0)
     1   6 C      2.954    -0.026    28.642     8.778
     2   6 C      3.063    -0.036    28.834     8.806
     3   6 C      3.262    -0.026    27.425     8.458
     4   6 C      3.092     0.013    27.617     8.613
     5  16 S      2.245     0.038   139.510    19.879
     6   6 C      3.083     0.013    27.632     8.617
     7   6 C      3.258    -0.024    27.432     8.466
     8   6 C      3.050     0.039    27.086     8.535
     9   6 C      2.946     0.020    27.565     8.611
    10   6 C      1.921     0.127    27.982     8.543
    11   7 N      0.911    -0.227    25.960     7.369
    12   6 C      1.920     0.125    28.020     8.549
    13   7 N      0.911    -0.217    25.743     7.338
    14   6 C      3.054    -0.050    29.185     8.860
    15   6 C      3.041     0.015    27.638     8.623
    16  16 S      2.329     0.021   140.200    19.929
    17   6 C      3.022     0.010    27.769     8.644
    18  16 S      2.408    -0.042   142.784    20.111
    19   6 C      3.016     0.010    27.776     8.645
    20   6 C      3.148    -0.010    27.986     8.654
    21   6 C      3.140    -0.011    28.044     8.666
    22   6 C      3.814    -0.045    21.375     6.580
    23   6 C      3.866    -0.001    20.551     6.447
    24   6 C      1.908     0.116    28.250     8.584
    25   7 N      0.911    -0.227    25.963     7.370
    26   6 C      3.867    -0.000    20.544     6.445
    27   6 C      1.909     0.116    28.253     8.584
    28   7 N      0.911    -0.222    25.851     7.354
    29   6 C      3.817    -0.047    21.401     6.584
    30   6 C      3.015     0.010    27.764     8.643
    31  16 S      2.361    -0.056   143.365    20.152
    32   6 C      3.015     0.010    27.764     8.643
    33   6 C      3.148    -0.010    27.986     8.654
    34   6 C      3.148    -0.010    27.986     8.654
    35   6 C      3.816    -0.047    21.404     6.585
    36   6 C      3.866    -0.000    20.542     6.445
    37   6 C      1.908     0.115    28.267     8.586
    38   7 N      0.911    -0.223    25.877     7.357
    39   6 C      3.866    -0.000    20.542     6.445
    40   6 C      1.908     0.115    28.267     8.586
    41   7 N      0.911    -0.223    25.877     7.357
    42   6 C      3.816    -0.047    21.404     6.585
    43   6 C      3.016     0.010    27.775     8.645
    44  16 S      2.407    -0.042   142.783    20.111
    45   6 C      3.022     0.010    27.769     8.644
    46   6 C      3.140    -0.011    28.044     8.666
    47   6 C      3.148    -0.010    27.986     8.654
    48   6 C      3.817    -0.047    21.402     6.584
    49   6 C      3.867    -0.000    20.544     6.445
    50   6 C      1.909     0.116    28.253     8.584
    51   7 N      0.911    -0.222    25.851     7.354
    52   6 C      3.866    -0.001    20.551     6.447
    53   6 C      1.908     0.116    28.250     8.584
    54   7 N      0.911    -0.227    25.963     7.369
    55   6 C      3.814    -0.045    21.375     6.580
    56   6 C      3.041     0.015    27.637     8.623
    57   6 C      3.054    -0.050    29.186     8.860
    58   6 C      3.258    -0.024    27.430     8.465
    59   6 C      3.083     0.013    27.633     8.618
    60  16 S      2.328     0.021   140.201    19.929
    61   6 C      3.092     0.013    27.617     8.613
    62   6 C      3.263    -0.026    27.424     8.458
    63   6 C      3.050     0.039    27.086     8.536
    64   6 C      2.946     0.020    27.565     8.611
    65   6 C      1.920     0.125    28.020     8.549
    66   7 N      0.911    -0.217    25.743     7.338
    67   6 C      1.921     0.127    27.982     8.543
    68   7 N      0.911    -0.227    25.961     7.369
    69   6 C      3.063    -0.036    28.834     8.806
    70   6 C      2.954    -0.026    28.642     8.778
    71  16 S      2.245     0.038   139.510    19.879
    72   1 H      0.926     0.058     2.224     2.332
    73   1 H      0.926     0.060     2.193     2.316
    74   1 H      0.926     0.059     2.215     2.327
    75   1 H      0.924     0.060     2.194     2.317
    76   1 H      0.924     0.055     2.260     2.351
    77   1 H      0.924     0.069     2.099     2.266
    78   1 H      0.924     0.066     2.129     2.282
    79   1 H      0.924     0.058     2.223     2.332
    80   1 H      0.924     0.061     2.190     2.315
    81   1 H      0.924     0.063     2.169     2.303
    82   1 H      0.924     0.057     2.229     2.335
    83   1 H      0.924     0.065     2.141     2.288
    84   1 H      0.924     0.065     2.141     2.288
    85   1 H      0.924     0.057     2.229     2.335
    86   1 H      0.924     0.063     2.169     2.303
    87   1 H      0.924     0.061     2.190     2.314
    88   1 H      0.924     0.058     2.222     2.331
    89   1 H      0.924     0.066     2.128     2.282
    90   1 H      0.924     0.069     2.099     2.265
    91   1 H      0.924     0.055     2.259     2.351
    92   1 H      0.924     0.060     2.194     2.317
    93   1 H      0.926     0.059     2.214     2.327
    94   1 H      0.926     0.060     2.193     2.316
    95   1 H      0.926     0.058     2.224     2.332

 Mol. C6AA /au·bohr⁶  :     198783.495757
 Mol. C8AA /au·bohr⁸  :    5906510.667456
 Mol. α(0) /au        :        709.498512


Wiberg/Mayer (AO) data.
largest (>0.10) Wiberg bond orders for each atom
          total WBO             WBO to atom ...
     1  C   3.906        C    2 1.611    S    5 1.173    H   72 0.970
     2  C   3.982        C    1 1.611    C    3 1.268    H   73 0.959
     3  C   3.956        C    4 1.362    C    2 1.268    C    8 1.106
     4  C   3.940        C    3 1.362    S    5 1.203    C    6 1.155
     5  S   2.652        C    4 1.203    C    1 1.173
     6  C   3.917        C    7 1.350    S   16 1.194    C    4 1.155
     7  C   3.974        C    6 1.350    C   14 1.314    C    8 1.085
     8  C   3.981        C    9 1.509    C    3 1.106    C    7 1.085
     9  C   3.986        C    8 1.509    C   10 1.095    C   12 1.094
    10  C   3.946        N   11 2.779    C    9 1.095
    11  N   2.973        C   10 2.779
    12  C   3.948        N   13 2.784    C    9 1.094
    13  N   2.977        C   12 2.784
    14  C   3.966        C   15 1.464    C    7 1.314    H   74 0.954
    15  C   3.923        C   14 1.464    C   17 1.177    S   16 1.109
    16  S   2.620        C    6 1.194    C   15 1.109
    17  C   3.928        C   21 1.427    C   15 1.177    S   18 1.127
    18  S   2.587        C   17 1.127    C   19 1.118
    19  C   3.924        C   20 1.433    C   30 1.176    S   18 1.118
    20  C   3.968        C   19 1.433    C   21 1.302    C   29 1.013
    21  C   3.968        C   17 1.427    C   20 1.302    C   22 1.013
    22  C   3.994        C   21 1.013    C   23 0.967    H   76 0.961    H   75 0.952
    23  C   3.994        C   24 1.036    C   22 0.967    H   77 0.939    C   26 0.936
    24  C   3.944        N   25 2.856    C   23 1.036
    25  N   3.008        C   24 2.856
    26  C   3.994        C   27 1.035    C   29 0.966    H   78 0.940    C   23 0.936
    27  C   3.945        N   28 2.860    C   26 1.035
    28  N   3.010        C   27 2.860
    29  C   3.993        C   20 1.013    C   26 0.966    H   79 0.959    H   80 0.950
    30  C   3.925        C   34 1.432    C   19 1.176    S   31 1.117
    31  S   2.595        C   30 1.117    C   32 1.117
    32  C   3.925        C   33 1.432    C   43 1.176    S   31 1.117
    33  C   3.968        C   32 1.432    C   34 1.303    C   42 1.014
    34  C   3.968        C   30 1.432    C   33 1.303    C   35 1.014
    35  C   3.993        C   34 1.014    C   36 0.966    H   82 0.959    H   81 0.950
    36  C   3.994        C   37 1.035    C   35 0.966    H   83 0.940    C   39 0.936
    37  C   3.945        N   38 2.859    C   36 1.035
    38  N   3.009        C   37 2.859
    39  C   3.994        C   40 1.035    C   42 0.966    H   84 0.940    C   36 0.936
    40  C   3.945        N   41 2.859    C   39 1.035
    41  N   3.009        C   40 2.859
    42  C   3.993        C   33 1.014    C   39 0.966    H   85 0.959    H   86 0.950
    43  C   3.924        C   47 1.433    C   32 1.176    S   44 1.118
    44  S   2.587        C   45 1.127    C   43 1.118
    45  C   3.928        C   46 1.427    C   56 1.177    S   44 1.127
    46  C   3.968        C   45 1.427    C   47 1.302    C   55 1.013
    47  C   3.968        C   43 1.433    C   46 1.302    C   48 1.013
    48  C   3.993        C   47 1.013    C   49 0.966    H   88 0.959    H   87 0.950
    49  C   3.994        C   50 1.034    C   48 0.966    H   89 0.940    C   52 0.936
    50  C   3.945        N   51 2.860    C   49 1.034
    51  N   3.010        C   50 2.860
    52  C   3.994        C   53 1.036    C   55 0.967    H   90 0.939    C   49 0.936
    53  C   3.944        N   54 2.856    C   52 1.036
    54  N   3.008        C   53 2.856
    55  C   3.994        C   46 1.013    C   52 0.967    H   91 0.960    H   92 0.952
    56  C   3.923        C   57 1.463    C   45 1.177    S   60 1.109
    57  C   3.966        C   56 1.463    C   58 1.314    H   93 0.953
    58  C   3.974        C   59 1.350    C   57 1.314    C   63 1.085
    59  C   3.917        C   58 1.350    S   60 1.194    C   61 1.155
    60  S   2.620        C   59 1.194    C   56 1.109
    61  C   3.940        C   62 1.362    S   71 1.203    C   59 1.155
    62  C   3.956        C   61 1.362    C   69 1.268    C   63 1.106
    63  C   3.981        C   64 1.509    C   62 1.106    C   58 1.085
    64  C   3.986        C   63 1.509    C   67 1.095    C   65 1.094
    65  C   3.948        N   66 2.784    C   64 1.094
    66  N   2.977        C   65 2.784
    67  C   3.946        N   68 2.779    C   64 1.095
    68  N   2.973        C   67 2.779
    69  C   3.982        C   70 1.611    C   62 1.268    H   94 0.959
    70  C   3.906        C   69 1.611    S   71 1.173    H   95 0.970
    71  S   2.652        C   61 1.203    C   70 1.173
    72  H   0.996        C    1 0.970
    73  H   0.996        C    2 0.959
    74  H   0.996        C   14 0.954
    75  H   0.994        C   22 0.952
    76  H   0.996        C   22 0.961
    77  H   0.994        C   23 0.939
    78  H   0.995        C   26 0.940
    79  H   0.996        C   29 0.959
    80  H   0.995        C   29 0.950
    81  H   0.995        C   35 0.950
    82  H   0.996        C   35 0.959
    83  H   0.995        C   36 0.940
    84  H   0.995        C   39 0.940
    85  H   0.996        C   42 0.959
    86  H   0.995        C   42 0.950
    87  H   0.995        C   48 0.950
    88  H   0.996        C   48 0.959
    89  H   0.995        C   49 0.940
    90  H   0.994        C   52 0.939
    91  H   0.996        C   55 0.960
    92  H   0.994        C   55 0.952
    93  H   0.996        C   57 0.953
    94  H   0.996        C   69 0.959
    95  H   0.996        C   70 0.970

molecular dipole:
                 x           y           z       tot (Debye)
 q only:       -1.361       0.187      -2.013
   full:       -1.297       0.180      -1.916       5.899
molecular quadrupole (traceless):
                xx          xy          yy          xz          yz          zz
 q only:       24.384     -19.877     -60.477      12.494     -78.318      36.093
  q+dip:       21.403      -7.596     -57.093      18.725     -82.850      35.690
   full:       21.566      -7.875     -58.975      20.648     -83.092      37.409

           -------------------------------------------------
          |                Geometry Summary                 |
           -------------------------------------------------

      molecular mass/u    :     1037.2706000
   center of mass at/Å    :       -0.3731210       9.8470666      -1.2997221
  moments of inertia/u·Å² :        0.7958362E+04   0.5575496E+05   0.5959643E+05
rotational constants/cm⁻¹ :        0.2118229E-02   0.3023522E-03   0.2828631E-03

 * 91 selected distances

     #   Z        #   Z                                     value/Å
     1   6 C      2   6 C                                 1.3614342
     2   6 C      3   6 C                                 1.4082735
     3   6 C      4   6 C                                 1.3994447
     1   6 C      5  16 S                                 1.7332471
     4   6 C      5  16 S                                 1.7059064
     4   6 C      6   6 C                                 1.4263102
     6   6 C      7   6 C                                 1.3983963
     3   6 C      8   6 C                                 1.4510198
     8   6 C      9   6 C                                 1.3647313
    10   6 C     11   7 N                                 1.1471934
    12   6 C     13   7 N                                 1.1466512
     7   6 C     14   6 C                                 1.3978320
    14   6 C     15   6 C                                 1.3806712
     6   6 C     16  16 S                                 1.7057339
    15   6 C     16  16 S                                 1.7611044 (max)
    15   6 C     17   6 C                                 1.4248522
    17   6 C     18  16 S                                 1.7375112
    18  16 S     19   6 C                                 1.7408382
    19   6 C     20   6 C                                 1.3845531
    17   6 C     21   6 C                                 1.3836153
    20   6 C     21   6 C                                 1.4087871
    21   6 C     22   6 C                                 1.4975081
    22   6 C     23   6 C                                 1.5357514
    24   6 C     25   7 N                                 1.1425895
    27   6 C     28   7 N                                 1.1423055
    20   6 C     29   6 C                                 1.4969896
    26   6 C     29   6 C                                 1.5347632
    19   6 C     30   6 C                                 1.4263173
    30   6 C     31  16 S                                 1.7398141
    31  16 S     32   6 C                                 1.7398737
    32   6 C     33   6 C                                 1.3838865
    30   6 C     34   6 C                                 1.3838743
    33   6 C     34   6 C                                 1.4080340
    34   6 C     35   6 C                                 1.4964946
    35   6 C     36   6 C                                 1.5349248
    37   6 C     38   7 N                                 1.1423591
    40   6 C     41   7 N                                 1.1423599
    33   6 C     42   6 C                                 1.4964778
    39   6 C     42   6 C                                 1.5349245
    32   6 C     43   6 C                                 1.4263119
    43   6 C     44  16 S                                 1.7408697
    44  16 S     45   6 C                                 1.7375432
    45   6 C     46   6 C                                 1.3836660
    43   6 C     47   6 C                                 1.3845830
    46   6 C     47   6 C                                 1.4087581
    47   6 C     48   6 C                                 1.4969974
    48   6 C     49   6 C                                 1.5347511
    50   6 C     51   7 N                                 1.1423056
    53   6 C     54   7 N                                 1.1425804
    46   6 C     55   6 C                                 1.4975150
    52   6 C     55   6 C                                 1.5357271
    45   6 C     56   6 C                                 1.4248342
    56   6 C     57   6 C                                 1.3807067
    57   6 C     58   6 C                                 1.3977648
    58   6 C     59   6 C                                 1.3983949
    56   6 C     60  16 S                                 1.7610794
    59   6 C     60  16 S                                 1.7058126
    59   6 C     61   6 C                                 1.4263343
    61   6 C     62   6 C                                 1.3994721
    62   6 C     63   6 C                                 1.4509841
    63   6 C     64   6 C                                 1.3647431
    65   6 C     66   7 N                                 1.1466604
    67   6 C     68   7 N                                 1.1472211
    62   6 C     69   6 C                                 1.4082702
    69   6 C     70   6 C                                 1.3614256
    61   6 C     71  16 S                                 1.7059152
    70   6 C     71  16 S                                 1.7332549
     1   6 C     72   1 H                                 1.0714943
     2   6 C     73   1 H                                 1.0746377
    14   6 C     74   1 H                                 1.0715422
    22   6 C     75   1 H                                 1.0950375
    22   6 C     76   1 H                                 1.0936262
    23   6 C     77   1 H                                 1.0966795
    26   6 C     78   1 H                                 1.0965537
    29   6 C     79   1 H                                 1.0934967
    29   6 C     80   1 H                                 1.0952733
    35   6 C     81   1 H                                 1.0954762
    35   6 C     82   1 H                                 1.0936542
    36   6 C     83   1 H                                 1.0968069
    39   6 C     84   1 H                                 1.0967969
    42   6 C     85   1 H                                 1.0936405
    42   6 C     86   1 H                                 1.0954739
    48   6 C     87   1 H                                 1.0952671
    48   6 C     88   1 H                                 1.0935008
    49   6 C     89   1 H                                 1.0965464
    52   6 C     90   1 H                                 1.0966741
    55   6 C     91   1 H                                 1.0936158
    55   6 C     92   1 H                                 1.0950385
    57   6 C     93   1 H                                 1.0714997
    69   6 C     94   1 H                                 1.0746389
    70   6 C     95   1 H                                 1.0714879 (min)

 * 4 distinct bonds (by element types)

   Z      Z             #   av. dist./Å        max./Å        min./Å
   1 H    6 C          24     1.0895191     1.0968069     1.0714879
   6 C    6 C          43     1.4325839     1.5357514     1.3614256
   6 C    7 N          10     1.1442226     1.1472211     1.1423055
   6 C   16 S          14     1.7320360     1.7611044     1.7057339


optimized geometry written to: xtbopt.xyz


           -------------------------------------------------
          | TOTAL ENERGY             -179.483311258511 Eh   |
          | GRADIENT NORM               0.000335354663 Eh/α |
          | HOMO-LUMO GAP               0.720324789282 eV   |
           -------------------------------------------------

------------------------------------------------------------------------
 * finished run on 2021/06/26 at 02:16:26.188     
------------------------------------------------------------------------
 total:
 * wall-time:     0 d,  0 h,  0 min, 14.734 sec
 *  cpu-time:     0 d,  0 h,  2 min, 56.198 sec
 * ratio c/w:    11.959 speedup
 SCF:
 * wall-time:     0 d,  0 h,  0 min,  0.231 sec
 *  cpu-time:     0 d,  0 h,  0 min,  2.747 sec
 * ratio c/w:    11.899 speedup
 ANC optimizer:
 * wall-time:     0 d,  0 h,  0 min, 14.436 sec
 *  cpu-time:     0 d,  0 h,  2 min, 52.781 sec
 * ratio c/w:    11.968 speedup

