      -----------------------------------------------------------      
     |                   =====================                   |     
     |                           x T B                           |     
     |                   =====================                   |     
     |                         S. Grimme                         |     
     |          Mulliken Center for Theoretical Chemistry        |     
     |                    University of Bonn                     |     
     |                Version 6.2 RC2 (SAW190805)                |     
      -----------------------------------------------------------      

   This program is distributed in the hope that it will be useful,
   but WITHOUT ANY WARRANTY; without even the implied warranty of
   MERCHANTABILITY or FITNESS FOR A PARTICULAR PURPOSE.
   
   FOR NON-COMMERCIAL, ACADEMIA USE ONLY.
   
   Cite this work as:
   * S. Grimme, C. Bannwarth, P. Shushkov, J. Chem. Theory Comput., 2017,
     13, 1989-2009. DOI: 10.1021/acs.jctc.7b00118
   * C. Bannwarth, S. Ehlert and S. Grimme., J. Chem. Theory Comput., 2019,
     15, 1652-1671. DOI: 10.1021/acs.jctc.8b01176
   * P. Pracht, E. Caldeweyher, S. Ehlert, S. Grimme, ChemRxiv, 2019, preprint.
     DOI: 10.26434/chemrxiv.8326202.v1
   
   for DFT-D4:
   * E. Caldeweyher, C. Bannwarth and S. Grimme, J. Chem. Phys., 2017,
     147, 034112. DOI: 10.1063/1.4993215
   * E. Caldeweyher, S. Ehlert, A. Hansen, H. Neugebauer, S. Spicher,
     C. Bannwarth and S. Grimme, J. Chem. Phys., 2019, 150, 154122.
     DOI: 10.1063/1.5090222
   
   for sTDA-xTB:
   * S. Grimme and C. Bannwarth, J. Chem. Phys., 2016, 145, 054103.
     DOI: 10.1063/1.4959605
   
   in the mass-spec context:
   * V. Asgeirsson, C. Bauer and S. Grimme, Chem. Sci., 2017, 8, 4879.
     DOI: 10.1039/c7sc00601b
   
   for metadynamics refer to:
   * S. Grimme, J. Chem. Theory Comput., 2019, 155, 2847-2862
     DOI: 10.1021/acs.jctc.9b00143
   
   with help from (in alphabetical order)
   C. Bannwarth, F. Bohle, G. Brandenburg, E. Caldeweyher, M. Checinski,
   S. Dohm, S. Ehlert, S. Ehrlich, F. März, H. Neugebauer, J. Pisarek,
   P. Pracht, P. Shushkov, and S. Spicher.
   
 * started run on 2021/06/26 at 07:04:34.356     

           -------------------------------------------------
          |                Calculation Setup                |
           -------------------------------------------------

          program call               : /ihome/ghutchison/geoffh/xtb/xtb /ihome/ghutchison/blp62/GA/running_GA/opt_GA/generations/64/45_60_45_60_45_01010.xyz -opt
          hostname                   : smp-n1
          coordinate file            : /ihome/ghutchison/blp62/GA/running_GA/opt_GA/generations/64/45_60_45_60_45_01010.xyz
          omp threads                :                    12
          number of atoms            :                   120
          number of electrons        :                   398
          charge                     :                     0
          spin                       :                   0.0
          first test random number   :      0.94083253991360


########################################################################
# WARNING! Please study the warnings concerning your input carefully
#  - XTBPATH is not set, using XTBHOME instead
#  - the use of '-opt' is discouraged, please use '--opt' next time
########################################################################

           ------------------------------------------------- 
          |                 G F N 2 - x T B                 |
          | Geometry, Frequencies, Noncovalent interactions |
          |            JCTC 2019 parametrisation            |
           ------------------------------------------------- 
             KAB for C  - Si     :                1.0500
             KAB for H  - Pd     :                0.9500
             k(s)              :                1.8500
             k(p)              :                2.2300
             k(d)              :                2.2300
             k(f)              :                2.0000
             kEN (H0ij)        :               -2.0000
             D4 a1             :                0.5200
             D4 a2             :                5.0000
             D4 s6             :                1.0000
             D4 s8             :                2.7000
             D4 s9             :                5.0000
             alphaj            :                2.0000

  Z AO/shell   Hii/eV     exponent
  1     Wed Apr 25 08:07:45 CEST 2018   EN: 2.200 GM2: 0.406  GM3: 0.0800  RAES: 1.40
     1s    -10.707211    1.230000
  6     Wed Apr 25 08:07:45 CEST 2018   EN: 2.550 GM2: 0.538  GM3: 0.1500  RAES: 3.00
     2s    -13.970922    2.096432
     2p    -10.063292    1.800000
  7     Wed Apr 25 08:07:45 CEST 2018   EN: 3.040 GM2: 0.461  GM3:-0.0640  RAES: 1.90
     2s    -16.686243    2.339881
     2p    -12.523956    2.014332
 16     Tue Apr 24 11:44:34 CEST 2018   EN: 2.580 GM2: 0.340  GM3:-0.0502  RAES: 3.10
     3s    -20.029654    1.981333
     3p    -11.377694    2.025643
     3d     -0.420282    1.702555

           ------------------------------------------------- 
          |        Self-Consistent Charge Iterations        |
           ------------------------------------------------- 

          ...................................................
          :                      SETUP                      :
          :.................................................:
          :  # basis functions                 432          :
          :  # atomic orbitals                 422          :
          :  # shells                          214          :
          :  # electrons                       398          :
          :  max. iterations                   250          :
          :  Hamiltonian                  GFN2-xTB          :
          :  restarted?                      false          :
          :  GBSA solvation                  false          :
          :  PC potential                    false          :
          :  electronic temp.          300.0000000     K    :
          :  accuracy                    1.0000000          :
          :  -> integral cutoff          0.2500000E+02      :
          :  -> integral neglect         0.1000000E-07      :
          :  -> SCF convergence          0.1000000E-05 Eh   :
          :  -> wf. convergence          0.1000000E-03 e    :
          :  Broyden damping             0.4000000          :
          ...................................................

 iter      E             dE          RMSdq      gap      omega  full diag
   1   -216.7219699 -0.216722E+03  0.483E+00    1.46       0.0  T
   2   -216.7188830  0.308689E-02  0.319E+00    1.28       1.0  T
   3   -216.4693367  0.249546E+00  0.229E+00    0.61       1.0  T
   4   -216.9799186 -0.510582E+00  0.471E-01    0.72       1.0  T
   5   -216.9894823 -0.956369E-02  0.218E-01    0.66       1.0  T
   6   -216.9929683 -0.348600E-02  0.935E-02    0.71       1.0  T
   7   -216.9934896 -0.521268E-03  0.368E-02    0.72       1.0  T
   8   -216.9935657 -0.761503E-04  0.174E-02    0.73       1.0  T
   9   -216.9935802 -0.144497E-04  0.916E-03    0.72       1.0  T
  10   -216.9935838 -0.367565E-05  0.418E-03    0.72       2.2  T
  11   -216.9935851 -0.121893E-05  0.199E-03    0.72       4.6  T
  12   -216.9935852 -0.188712E-06  0.117E-03    0.72       7.8  T
  13   -216.9935853 -0.497495E-07  0.558E-04    0.72      16.4  T
  14   -216.9935853 -0.143689E-07  0.270E-04    0.72      33.8  T

   *** convergence criteria satisfied after 14 iterations ***

         #    Occupation            Energy/Eh            Energy/eV
      -------------------------------------------------------------
         1        2.0000           -0.7628933             -20.7594
       ...           ...                  ...                  ...
       193        2.0000           -0.3924343             -10.6787
       194        2.0000           -0.3865592             -10.5188
       195        2.0000           -0.3824272             -10.4064
       196        2.0000           -0.3763369             -10.2406
       197        2.0000           -0.3747743             -10.1981
       198        2.0000           -0.3672624              -9.9937
       199        2.0000           -0.3644505              -9.9172 (HOMO)
       200        0.0000           -0.3378172              -9.1925 (LUMO)
       201        0.0000           -0.3374417              -9.1823
       202        0.0000           -0.3363980              -9.1539
       203                         -0.2878227              -7.8321
       204                         -0.2809826              -7.6459
       ...                                ...                  ...
       422                          1.0894092              29.6443
      -------------------------------------------------------------
                  HL-Gap            0.0266333 Eh            0.7247 eV
             Fermi-level           -0.3514142 Eh           -9.5625 eV

 SCC (total)                   0 d,  0 h,  0 min,  0.271 sec
 SCC setup                      ...        0 min,  0.003 sec (  1.101%)
 Dispersion                     ...        0 min,  0.006 sec (  2.137%)
 integral evaluation            ...        0 min,  0.030 sec ( 11.201%)
 zeroth order Hamiltonian       ...        0 min,  0.002 sec (  0.566%)
 iterations                     ...        0 min,  0.207 sec ( 76.225%)
 molecular gradient             ...        0 min,  0.023 sec (  8.308%)
 printout                       ...        0 min,  0.001 sec (  0.426%)

         :::::::::::::::::::::::::::::::::::::::::::::::::::::
         ::                     SUMMARY                     ::
         :::::::::::::::::::::::::::::::::::::::::::::::::::::
         :: total energy            -213.481283405745 Eh    ::
         :: gradient norm              0.233136957811 Eh/a0 ::
         :: HOMO-LUMO gap              0.724728039094 eV    ::
         ::.................................................::
         :: SCC energy              -216.993585310999 Eh    ::
         :: -> isotropic ES            0.055020669254 Eh    ::
         :: -> anisotropic ES          0.023353209355 Eh    ::
         :: -> anisotropic XC          0.171964469641 Eh    ::
         :: -> dispersion             -0.197693712722 Eh    ::
         :: repulsion energy           3.513095186672 Eh    ::
         :: add. restraining           0.000000000000 Eh    ::
         :::::::::::::::::::::::::::::::::::::::::::::::::::::

      ----------------------------------------------------------- 
     |                   =====================                   |
     |                        A N C O P T                        |
     |                   =====================                   |
     |               Approximate Normal Coordinate               |
     |                Rational Function Optimizer                |
      ----------------------------------------------------------- 

          ...................................................
          :                      SETUP                      :
          :.................................................:
          :   optimization level            normal          :
          :   max. optcycles                   360          :
          :   ANC micro-cycles                  20          :
          :   degrees of freedom               354          :
          :.................................................:
          :   RF solver                   davidson          :
          :   input Hessian                  false          :
          :   write xtbopt.log                true          :
          :   linear?                        false          :
          :   energy convergence         0.5000000E-05 Eh   :
          :   grad. convergence          0.1000000E-02 Eh/α :
          :   maximium RF displ.         2.0000000          :
          :   Hlow (freq-cutoff)         0.5000000E-02      :
          :   Hmax (freq-cutoff)         5.0000000          :
          :   S6 in model hess.         20.0000000          :
          ...................................................

generating ANC from model Hessian ...
Using Lindh-Hessian (1995)
 Shifting diagonal of input Hessian by   6.857932445096113E-003
 Lowest  eigenvalues of input Hessian
    0.005000    0.005901    0.006838   -0.000000   -0.000000    0.000000
    0.000000    0.000000    0.000000    0.006863    0.006875    0.006886
    0.006896    0.006920    0.006924    0.006940    0.006984    0.007013
 Highest eigenvalues
    2.517924    2.519917    2.530892    2.580124    2.591835    2.593096
 

........................................................................
.............................. CYCLE    1 ..............................
........................................................................
   1   -216.9935853 -0.216994E+03  0.116E-04    0.72       0.0  T
   2   -216.9935853  0.139153E-09  0.984E-05    0.72      92.8  T
   3   -216.9935853 -0.848360E-09  0.520E-05    0.72     175.5  T
     SCC iter.                  ...        0 min,  0.047 sec
     gradient                   ...        0 min,  0.022 sec
 * total energy  :  -213.4812832 Eh     change        0.2401659E-06 Eh
   gradient norm :     0.2331360 Eh/α   predicted     0.0000000E+00 (-100.00%)
   displ. norm   :     0.5110757 α      lambda       -0.6739806E-01
   maximum displ.:     0.1107141 α      in ANC's #137, #76, #75, ...

........................................................................
.............................. CYCLE    2 ..............................
........................................................................
   1   -217.0922407 -0.217092E+03  0.296E-01    0.71       0.0  T
   2   -217.0922316  0.911656E-05  0.189E-01    0.75       1.0  T
   3   -217.0913886  0.842987E-03  0.132E-01    0.71       1.0  T
   4   -217.0935277 -0.213911E-02  0.363E-02    0.73       1.0  T
   5   -217.0935966 -0.689114E-04  0.197E-02    0.73       1.0  T
   6   -217.0936190 -0.224374E-04  0.642E-03    0.73       1.4  T
   7   -217.0936220 -0.294859E-05  0.247E-03    0.73       3.7  T
   8   -217.0936225 -0.477462E-06  0.110E-03    0.73       8.3  T
     SCC iter.                  ...        0 min,  0.118 sec
     gradient                   ...        0 min,  0.021 sec
 * total energy  :  -213.5295101 Eh     change       -0.4822693E-01 Eh
   gradient norm :     0.1008135 Eh/α   predicted    -0.4250196E-01 ( -11.87%)
   displ. norm   :     0.5763189 α      lambda       -0.2948609E-01
   maximum displ.:     0.1470403 α      in ANC's #76, #75, #66, ...

........................................................................
.............................. CYCLE    3 ..............................
........................................................................
   1   -217.1223457 -0.217122E+03  0.264E-01    0.70       0.0  T
   2   -217.1224074 -0.617374E-04  0.157E-01    0.72       1.0  T
   3   -217.1214231  0.984302E-03  0.115E-01    0.70       1.0  T
   4   -217.1231632 -0.174004E-02  0.315E-02    0.72       1.0  T
   5   -217.1232169 -0.537805E-04  0.181E-02    0.72       1.0  T
   6   -217.1232385 -0.215818E-04  0.624E-03    0.72       1.5  T
   7   -217.1232405 -0.197113E-05  0.230E-03    0.72       4.0  T
   8   -217.1232409 -0.426984E-06  0.109E-03    0.72       8.3  T
     SCC iter.                  ...        0 min,  0.118 sec
     gradient                   ...        0 min,  0.021 sec
 * total energy  :  -213.5493811 Eh     change       -0.1987105E-01 Eh
   gradient norm :     0.0292891 Eh/α   predicted    -0.1963986E-01 (  -1.16%)
   displ. norm   :     0.6503589 α      lambda       -0.1170298E-01
   maximum displ.:     0.1824182 α      in ANC's #26, #46, #2, ...

........................................................................
.............................. CYCLE    4 ..............................
........................................................................
   1   -217.1417184 -0.217142E+03  0.192E-01    0.71       0.0  T
   2   -217.1417718 -0.534320E-04  0.101E-01    0.72       1.0  T
   3   -217.1414260  0.345790E-03  0.557E-02    0.72       1.0  T
   4   -217.1418215 -0.395475E-03  0.164E-02    0.72       1.0  T
   5   -217.1418258 -0.429436E-05  0.996E-03    0.72       1.0  T
   6   -217.1418338 -0.801664E-05  0.350E-03    0.72       2.6  T
   7   -217.1418348 -0.983007E-06  0.139E-03    0.72       6.6  T
   8   -217.1418348 -0.172536E-07  0.912E-04    0.72      10.0  T
     SCC iter.                  ...        0 min,  0.118 sec
     gradient                   ...        0 min,  0.021 sec
 * total energy  :  -213.5588384 Eh     change       -0.9457237E-02 Eh
   gradient norm :     0.0246490 Eh/α   predicted    -0.8326475E-02 ( -11.96%)
   displ. norm   :     0.7697735 α      lambda       -0.9718281E-02
   maximum displ.:     0.2051540 α      in ANC's #21, #26, #2, ...

........................................................................
.............................. CYCLE    5 ..............................
........................................................................
   1   -217.1558899 -0.217156E+03  0.235E-01    0.73       0.0  T
   2   -217.1559655 -0.755988E-04  0.125E-01    0.73       1.0  T
   3   -217.1558000  0.165524E-03  0.435E-02    0.73       1.0  T
   4   -217.1559921 -0.192155E-03  0.170E-02    0.73       1.0  T
   5   -217.1559991 -0.700650E-05  0.913E-03    0.73       1.0  T
   6   -217.1560069 -0.776370E-05  0.317E-03    0.73       2.9  T
   7   -217.1560077 -0.766259E-06  0.155E-03    0.73       5.9  T
   8   -217.1560077 -0.238672E-07  0.897E-04    0.73      10.2  T
     SCC iter.                  ...        0 min,  0.120 sec
     gradient                   ...        0 min,  0.024 sec
 * total energy  :  -213.5658210 Eh     change       -0.6982589E-02 Eh
   gradient norm :     0.0248901 Eh/α   predicted    -0.7738432E-02 (  10.82%)
   displ. norm   :     0.7908752 α      lambda       -0.9319307E-02
   maximum displ.:     0.2354942 α      in ANC's #26, #2, #21, ...

........................................................................
.............................. CYCLE    6 ..............................
........................................................................
   1   -217.1570439 -0.217157E+03  0.290E-01    0.75       0.0  T
   2   -217.1571533 -0.109390E-03  0.157E-01    0.76       1.0  T
   3   -217.1567582  0.395128E-03  0.591E-02    0.76       1.0  T
   4   -217.1572127 -0.454467E-03  0.182E-02    0.76       1.0  T
   5   -217.1572249 -0.122208E-04  0.955E-03    0.76       1.0  T
   6   -217.1572326 -0.771910E-05  0.333E-03    0.76       2.7  T
   7   -217.1572333 -0.733915E-06  0.169E-03    0.76       5.4  T
   8   -217.1572334 -0.359038E-07  0.986E-04    0.76       9.3  T
     SCC iter.                  ...        0 min,  0.119 sec
     gradient                   ...        0 min,  0.021 sec
 * total energy  :  -213.5708340 Eh     change       -0.5013015E-02 Eh
   gradient norm :     0.0311813 Eh/α   predicted    -0.7574194E-02 (  51.09%)
   displ. norm   :     0.6140109 α      lambda       -0.6066905E-02
   maximum displ.:     0.1914142 α      in ANC's #21, #26, #27, ...

........................................................................
.............................. CYCLE    7 ..............................
........................................................................
   1   -217.1659520 -0.217166E+03  0.220E-01    0.77       0.0  T
   2   -217.1660150 -0.630412E-04  0.117E-01    0.78       1.0  T
   3   -217.1659506  0.644359E-04  0.316E-02    0.78       1.0  T
   4   -217.1660365 -0.858652E-04  0.128E-02    0.78       1.0  T
   5   -217.1660394 -0.293025E-05  0.656E-03    0.78       1.4  T
   6   -217.1660441 -0.473401E-05  0.198E-03    0.78       4.6  T
   7   -217.1660444 -0.238893E-06  0.107E-03    0.78       8.5  T
     SCC iter.                  ...        0 min,  0.104 sec
     gradient                   ...        0 min,  0.021 sec
 * total energy  :  -213.5749649 Eh     change       -0.4130897E-02 Eh
   gradient norm :     0.0299677 Eh/α   predicted    -0.4177090E-02 (   1.12%)
   displ. norm   :     0.6854654 α      lambda       -0.5289907E-02
   maximum displ.:     0.2064272 α      in ANC's #27, #2, #21, ...

........................................................................
.............................. CYCLE    8 ..............................
........................................................................
   1   -217.1695266 -0.217170E+03  0.235E-01    0.80       0.0  T
   2   -217.1695879 -0.612955E-04  0.125E-01    0.81       1.0  T
   3   -217.1694707  0.117258E-03  0.381E-02    0.80       1.0  T
   4   -217.1696093 -0.138670E-03  0.155E-02    0.81       1.0  T
   5   -217.1696172 -0.787590E-05  0.606E-03    0.80       1.5  T
   6   -217.1696207 -0.348787E-05  0.183E-03    0.80       5.0  T
   7   -217.1696209 -0.152508E-06  0.102E-03    0.80       9.0  T
     SCC iter.                  ...        0 min,  0.104 sec
     gradient                   ...        0 min,  0.021 sec
 * total energy  :  -213.5785010 Eh     change       -0.3536077E-02 Eh
   gradient norm :     0.0207630 Eh/α   predicted    -0.3887737E-02 (   9.94%)
   displ. norm   :     0.7119635 α      lambda       -0.4661461E-02
   maximum displ.:     0.2269507 α      in ANC's #27, #21, #26, ...

........................................................................
.............................. CYCLE    9 ..............................
........................................................................
   1   -217.1655178 -0.217166E+03  0.249E-01    0.82       0.0  T
   2   -217.1655883 -0.705060E-04  0.133E-01    0.82       1.0  T
   3   -217.1654799  0.108433E-03  0.364E-02    0.82       1.0  T
   4   -217.1656033 -0.123408E-03  0.168E-02    0.82       1.0  T
   5   -217.1656178 -0.144707E-04  0.691E-03    0.82       1.3  T
   6   -217.1656224 -0.464075E-05  0.227E-03    0.82       4.0  T
   7   -217.1656227 -0.330044E-06  0.118E-03    0.82       7.7  T
     SCC iter.                  ...        0 min,  0.104 sec
     gradient                   ...        0 min,  0.021 sec
 * total energy  :  -213.5814974 Eh     change       -0.2996439E-02 Eh
   gradient norm :     0.0250055 Eh/α   predicted    -0.3512168E-02 (  17.21%)
   displ. norm   :     0.7010937 α      lambda       -0.5084509E-02
   maximum displ.:     0.1836929 α      in ANC's #26, #40, #21, ...

........................................................................
.............................. CYCLE   10 ..............................
........................................................................
   1   -217.1625648 -0.217163E+03  0.257E-01    0.83       0.0  T
   2   -217.1626423 -0.774807E-04  0.137E-01    0.83       1.0  T
   3   -217.1625429  0.994254E-04  0.377E-02    0.84       1.0  T
   4   -217.1626639 -0.121016E-03  0.157E-02    0.83       1.0  T
   5   -217.1626710 -0.707962E-05  0.827E-03    0.84       1.1  T
   6   -217.1626790 -0.796713E-05  0.214E-03    0.84       4.3  T
   7   -217.1626792 -0.264294E-06  0.110E-03    0.84       8.3  T
   8   -217.1626792 -0.103149E-07  0.723E-04    0.84      12.6  T
     SCC iter.                  ...        0 min,  0.118 sec
     gradient                   ...        0 min,  0.021 sec
 * total energy  :  -213.5846631 Eh     change       -0.3165716E-02 Eh
   gradient norm :     0.0365323 Eh/α   predicted    -0.3791851E-02 (  19.78%)
   displ. norm   :     0.6686422 α      lambda       -0.4529175E-02
   maximum displ.:     0.1818121 α      in ANC's #27, #8, #21, ...

........................................................................
.............................. CYCLE   11 ..............................
........................................................................
   1   -217.1685389 -0.217169E+03  0.228E-01    0.86       0.0  T
   2   -217.1686007 -0.618240E-04  0.122E-01    0.86       1.0  T
   3   -217.1685031  0.976616E-04  0.340E-02    0.86       1.0  T
   4   -217.1686184 -0.115348E-03  0.144E-02    0.86       1.0  T
   5   -217.1686270 -0.864011E-05  0.573E-03    0.86       1.6  T
   6   -217.1686303 -0.323256E-05  0.195E-03    0.86       4.7  T
   7   -217.1686305 -0.245652E-06  0.100E-03    0.86       9.1  T
     SCC iter.                  ...        0 min,  0.103 sec
     gradient                   ...        0 min,  0.021 sec
 * total energy  :  -213.5873916 Eh     change       -0.2728465E-02 Eh
   gradient norm :     0.0294820 Eh/α   predicted    -0.3277047E-02 (  20.11%)
   displ. norm   :     0.6834414 α      lambda       -0.4056014E-02
   maximum displ.:     0.1789757 α      in ANC's #26, #1, #27, ...

........................................................................
.............................. CYCLE   12 ..............................
........................................................................
   1   -217.1678636 -0.217168E+03  0.199E-01    0.86       0.0  T
   2   -217.1679030 -0.394210E-04  0.106E-01    0.87       1.0  T
   3   -217.1677591  0.143932E-03  0.380E-02    0.86       1.0  T
   4   -217.1679212 -0.162154E-03  0.139E-02    0.87       1.0  T
   5   -217.1679252 -0.394285E-05  0.668E-03    0.86       1.4  T
   6   -217.1679300 -0.488577E-05  0.179E-03    0.86       5.1  T
   7   -217.1679303 -0.263471E-06  0.876E-04    0.86      10.4  T
     SCC iter.                  ...        0 min,  0.103 sec
     gradient                   ...        0 min,  0.021 sec
 * total energy  :  -213.5907709 Eh     change       -0.3379308E-02 Eh
   gradient norm :     0.0291954 Eh/α   predicted    -0.2975273E-02 ( -11.96%)
   displ. norm   :     0.7507321 α      lambda       -0.4848155E-02
   maximum displ.:     0.2036337 α      in ANC's #8, #18, #28, ...

........................................................................
.............................. CYCLE   13 ..............................
........................................................................
   1   -217.1813834 -0.217181E+03  0.206E-01    0.86       0.0  T
   2   -217.1814288 -0.453212E-04  0.113E-01    0.86       1.0  T
   3   -217.1812866  0.142125E-03  0.388E-02    0.86       1.0  T
   4   -217.1814479 -0.161265E-03  0.134E-02    0.86       1.0  T
   5   -217.1814529 -0.498911E-05  0.601E-03    0.86       1.5  T
   6   -217.1814561 -0.324702E-05  0.231E-03    0.86       3.9  T
   7   -217.1814566 -0.515696E-06  0.891E-04    0.86      10.2  T
     SCC iter.                  ...        0 min,  0.103 sec
     gradient                   ...        0 min,  0.021 sec
 * total energy  :  -213.5944703 Eh     change       -0.3699417E-02 Eh
   gradient norm :     0.0237952 Eh/α   predicted    -0.3790288E-02 (   2.46%)
   displ. norm   :     0.8193796 α      lambda       -0.4634751E-02
   maximum displ.:     0.2253032 α      in ANC's #8, #18, #28, ...

........................................................................
.............................. CYCLE   14 ..............................
........................................................................
   1   -217.1734314 -0.217173E+03  0.206E-01    0.86       0.0  T
   2   -217.1734668 -0.353610E-04  0.114E-01    0.86       1.0  T
   3   -217.1733884  0.783382E-04  0.314E-02    0.86       1.0  T
   4   -217.1734744 -0.860064E-04  0.135E-02    0.86       1.0  T
   5   -217.1734809 -0.647141E-05  0.572E-03    0.86       1.6  T
   6   -217.1734844 -0.343561E-05  0.186E-03    0.86       4.9  T
   7   -217.1734847 -0.310144E-06  0.822E-04    0.86      11.1  T
     SCC iter.                  ...        0 min,  0.104 sec
     gradient                   ...        0 min,  0.021 sec
 * total energy  :  -213.5984615 Eh     change       -0.3991160E-02 Eh
   gradient norm :     0.0328929 Eh/α   predicted    -0.3873228E-02 (  -2.95%)
   displ. norm   :     0.7868365 α      lambda       -0.5139435E-02
   maximum displ.:     0.2443889 α      in ANC's #18, #8, #50, ...

........................................................................
.............................. CYCLE   15 ..............................
........................................................................
   1   -217.1868514 -0.217187E+03  0.198E-01    0.87       0.0  T
   2   -217.1868881 -0.367369E-04  0.108E-01    0.86       1.0  T
   3   -217.1868137  0.743565E-04  0.307E-02    0.87       1.0  T
   4   -217.1868935 -0.797699E-04  0.140E-02    0.86       1.0  T
   5   -217.1869017 -0.821097E-05  0.569E-03    0.87       1.6  T
   6   -217.1869048 -0.305344E-05  0.189E-03    0.87       4.8  T
   7   -217.1869051 -0.329444E-06  0.780E-04    0.87      11.7  T
     SCC iter.                  ...        0 min,  0.103 sec
     gradient                   ...        0 min,  0.021 sec
 * total energy  :  -213.6028709 Eh     change       -0.4409424E-02 Eh
   gradient norm :     0.0288105 Eh/α   predicted    -0.4160670E-02 (  -5.64%)
   displ. norm   :     0.8615318 α      lambda       -0.5525577E-02
   maximum displ.:     0.2177023 α      in ANC's #18, #50, #8, ...

........................................................................
.............................. CYCLE   16 ..............................
........................................................................
   1   -217.1814264 -0.217181E+03  0.224E-01    0.87       0.0  T
   2   -217.1814824 -0.559822E-04  0.124E-01    0.87       1.0  T
   3   -217.1814111  0.712223E-04  0.317E-02    0.87       1.0  T
   4   -217.1814892 -0.780308E-04  0.150E-02    0.87       1.0  T
   5   -217.1815000 -0.108399E-04  0.571E-03    0.87       1.6  T
   6   -217.1815028 -0.278206E-05  0.233E-03    0.87       3.9  T
   7   -217.1815033 -0.543220E-06  0.900E-04    0.87      10.1  T
     SCC iter.                  ...        0 min,  0.105 sec
     gradient                   ...        0 min,  0.024 sec
 * total energy  :  -213.6071924 Eh     change       -0.4321474E-02 Eh
   gradient norm :     0.0318224 Eh/α   predicted    -0.4813438E-02 (  11.38%)
   displ. norm   :     0.7314324 α      lambda       -0.5640713E-02
   maximum displ.:     0.2195961 α      in ANC's #50, #18, #45, ...

........................................................................
.............................. CYCLE   17 ..............................
........................................................................
   1   -217.2008737 -0.217201E+03  0.204E-01    0.87       0.0  T
   2   -217.2009202 -0.465000E-04  0.111E-01    0.86       1.0  T
   3   -217.2007989  0.121325E-03  0.368E-02    0.87       1.0  T
   4   -217.2009361 -0.137254E-03  0.139E-02    0.86       1.0  T
   5   -217.2009432 -0.705259E-05  0.591E-03    0.86       1.5  T
   6   -217.2009458 -0.260350E-05  0.215E-03    0.86       4.2  T
   7   -217.2009462 -0.436568E-06  0.787E-04    0.86      11.6  T
     SCC iter.                  ...        0 min,  0.103 sec
     gradient                   ...        0 min,  0.021 sec
 * total energy  :  -213.6115226 Eh     change       -0.4330189E-02 Eh
   gradient norm :     0.0261323 Eh/α   predicted    -0.4329232E-02 (  -0.02%)
   displ. norm   :     0.8575359 α      lambda       -0.5436126E-02
   maximum displ.:     0.2468148 α      in ANC's #18, #50, #8, ...

........................................................................
.............................. CYCLE   18 ..............................
........................................................................
   1   -217.1977493 -0.217198E+03  0.207E-01    0.86       0.0  T
   2   -217.1977914 -0.420852E-04  0.114E-01    0.86       1.0  T
   3   -217.1977076  0.837975E-04  0.322E-02    0.85       1.0  T
   4   -217.1977994 -0.918008E-04  0.138E-02    0.86       1.0  T
   5   -217.1978075 -0.804583E-05  0.485E-03    0.86       1.9  T
   6   -217.1978093 -0.186080E-05  0.204E-03    0.86       4.5  T
   7   -217.1978098 -0.428099E-06  0.696E-04    0.86      13.1  T
     SCC iter.                  ...        0 min,  0.103 sec
     gradient                   ...        0 min,  0.021 sec
 * total energy  :  -213.6155454 Eh     change       -0.4022819E-02 Eh
   gradient norm :     0.0306979 Eh/α   predicted    -0.4716836E-02 (  17.25%)
   displ. norm   :     0.7119827 α      lambda       -0.6226041E-02
   maximum displ.:     0.1909806 α      in ANC's #18, #50, #33, ...

........................................................................
.............................. CYCLE   19 ..............................
........................................................................
   1   -217.2144550 -0.217214E+03  0.197E-01    0.84       0.0  T
   2   -217.2145179 -0.629122E-04  0.107E-01    0.84       1.0  T
   3   -217.2143263  0.191615E-03  0.461E-02    0.85       1.0  T
   4   -217.2145460 -0.219716E-03  0.139E-02    0.85       1.0  T
   5   -217.2145512 -0.515281E-05  0.648E-03    0.85       1.4  T
   6   -217.2145535 -0.238540E-05  0.305E-03    0.85       3.0  T
   7   -217.2145546 -0.107467E-05  0.756E-04    0.85      12.1  T
     SCC iter.                  ...        0 min,  0.103 sec
     gradient                   ...        0 min,  0.021 sec
 * total energy  :  -213.6186004 Eh     change       -0.3054994E-02 Eh
   gradient norm :     0.0392502 Eh/α   predicted    -0.4691064E-02 (  53.55%)
   displ. norm   :     0.6970342 α      lambda       -0.6632469E-02
   maximum displ.:     0.2089217 α      in ANC's #45, #50, #2, ...

........................................................................
.............................. CYCLE   20 ..............................
........................................................................
   1   -217.1963145 -0.217196E+03  0.169E-01    0.83       0.0  T
   2   -217.1963763 -0.617910E-04  0.944E-02    0.85       1.0  T
   3   -217.1961699  0.206431E-03  0.458E-02    0.84       1.0  T
   4   -217.1964007 -0.230833E-03  0.127E-02    0.85       1.0  T
   5   -217.1964071 -0.632565E-05  0.617E-03    0.85       1.5  T
   6   -217.1964086 -0.153224E-05  0.331E-03    0.85       2.8  T
   7   -217.1964098 -0.119621E-05  0.856E-04    0.85      10.7  T
     SCC iter.                  ...        0 min,  0.103 sec
     gradient                   ...        0 min,  0.021 sec
 * total energy  :  -213.6210230 Eh     change       -0.2422596E-02 Eh
   gradient norm :     0.0441231 Eh/α   predicted    -0.4927452E-02 ( 103.40%)
   displ. norm   :     0.5075951 α      lambda       -0.7044720E-02
   maximum displ.:     0.1398972 α      in ANC's #23, #35, #34, ...
 * RMSD in coord.:     1.0145629 α      energy gain  -0.1397396E+00 Eh

generating ANC from model Hessian ...
Using Lindh-Hessian (1995)
 Shifting diagonal of input Hessian by   6.420377526649368E-003
 Lowest  eigenvalues of input Hessian
    0.005000    0.006382   -0.000000   -0.000000   -0.000000   -0.000000
    0.000000    0.000000    0.006425    0.006449    0.006454    0.006461
    0.006476    0.006491    0.006512    0.006584    0.006624    0.006640
 Highest eigenvalues
    2.586529    2.590941    2.596252    2.661830    2.662464    2.674450
 

........................................................................
.............................. CYCLE   21 ..............................
........................................................................
   1   -217.2107196 -0.217211E+03  0.148E-01    0.86       0.0  T
   2   -217.2107928 -0.731838E-04  0.818E-02    0.85       1.0  T
   3   -217.2106232  0.169639E-03  0.416E-02    0.86       1.0  T
   4   -217.2108145 -0.191282E-03  0.130E-02    0.85       1.0  T
   5   -217.2108262 -0.117449E-04  0.567E-03    0.85       1.6  T
   6   -217.2108274 -0.121759E-05  0.303E-03    0.85       3.0  T
   7   -217.2108282 -0.772046E-06  0.934E-04    0.85       9.8  T
   8   -217.2108283 -0.599112E-07  0.473E-04    0.85      19.3  T
     SCC iter.                  ...        0 min,  0.119 sec
     gradient                   ...        0 min,  0.022 sec
 * total energy  :  -213.6235072 Eh     change       -0.2484191E-02 Eh
   gradient norm :     0.0423084 Eh/α   predicted     0.0000000E+00 (-100.00%)
   displ. norm   :     0.3819905 α      lambda       -0.5344868E-02
   maximum displ.:     0.1139264 α      in ANC's #32, #21, #26, ...

........................................................................
.............................. CYCLE   22 ..............................
........................................................................
   1   -217.2205757 -0.217221E+03  0.107E-01    0.85       0.0  T
   2   -217.2205982 -0.224657E-04  0.588E-02    0.85       1.0  T
   3   -217.2205602  0.380192E-04  0.203E-02    0.85       1.0  T
   4   -217.2206010 -0.407831E-04  0.834E-03    0.85       1.1  T
   5   -217.2206055 -0.452176E-05  0.354E-03    0.85       2.6  T
   6   -217.2206060 -0.545294E-06  0.179E-03    0.85       5.1  T
     SCC iter.                  ...        0 min,  0.089 sec
     gradient                   ...        0 min,  0.021 sec
 * total energy  :  -213.6272390 Eh     change       -0.3731805E-02 Eh
   gradient norm :     0.0146630 Eh/α   predicted    -0.3062387E-02 ( -17.94%)
   displ. norm   :     0.5872766 α      lambda       -0.4388845E-02
   maximum displ.:     0.1843042 α      in ANC's #32, #27, #21, ...

........................................................................
.............................. CYCLE   23 ..............................
........................................................................
   1   -217.2218659 -0.217222E+03  0.235E-01    0.84       0.0  T
   2   -217.2219393 -0.734859E-04  0.130E-01    0.85       1.0  T
   3   -217.2218822  0.571566E-04  0.285E-02    0.84       1.0  T
   4   -217.2219688 -0.865996E-04  0.915E-03    0.84       1.0  T
   5   -217.2219720 -0.317018E-05  0.473E-03    0.85       1.9  T
   6   -217.2219732 -0.122910E-05  0.225E-03    0.84       4.0  T
   7   -217.2219737 -0.490779E-06  0.806E-04    0.84      11.3  T
     SCC iter.                  ...        0 min,  0.102 sec
     gradient                   ...        0 min,  0.021 sec
 * total energy  :  -213.6287054 Eh     change       -0.1466489E-02 Eh
   gradient norm :     0.0319915 Eh/α   predicted    -0.2951270E-02 ( 101.25%)
   displ. norm   :     0.5549967 α      lambda       -0.5582330E-02
   maximum displ.:     0.1872149 α      in ANC's #32, #53, #21, ...

........................................................................
.............................. CYCLE   24 ..............................
........................................................................
   1   -217.2298690 -0.217230E+03  0.189E-01    0.86       0.0  T
   2   -217.2299127 -0.437206E-04  0.105E-01    0.87       1.0  T
   3   -217.2298783  0.344309E-04  0.221E-02    0.85       1.0  T
   4   -217.2299313 -0.530237E-04  0.762E-03    0.86       1.2  T
   5   -217.2299331 -0.185012E-05  0.335E-03    0.86       2.7  T
   6   -217.2299338 -0.688041E-06  0.139E-03    0.86       6.6  T
     SCC iter.                  ...        0 min,  0.089 sec
     gradient                   ...        0 min,  0.021 sec
 * total energy  :  -213.6323664 Eh     change       -0.3660988E-02 Eh
   gradient norm :     0.0300573 Eh/α   predicted    -0.3650920E-02 (  -0.28%)
   displ. norm   :     0.6499447 α      lambda       -0.5554635E-02
   maximum displ.:     0.1995986 α      in ANC's #32, #53, #26, ...

........................................................................
.............................. CYCLE   25 ..............................
........................................................................
   1   -217.2209484 -0.217221E+03  0.246E-01    0.87       0.0  T
   2   -217.2210113 -0.629583E-04  0.137E-01    0.87       1.0  T
   3   -217.2208541  0.157275E-03  0.385E-02    0.86       1.0  T
   4   -217.2210462 -0.192184E-03  0.919E-03    0.87       1.0  T
   5   -217.2210485 -0.222020E-05  0.497E-03    0.87       1.8  T
   6   -217.2210499 -0.139000E-05  0.213E-03    0.87       4.3  T
     SCC iter.                  ...        0 min,  0.089 sec
     gradient                   ...        0 min,  0.021 sec
 * total energy  :  -213.6351980 Eh     change       -0.2831601E-02 Eh
   gradient norm :     0.0274392 Eh/α   predicted    -0.3950536E-02 (  39.52%)
   displ. norm   :     0.6255171 α      lambda       -0.5076581E-02
   maximum displ.:     0.1943191 α      in ANC's #53, #32, #21, ...

........................................................................
.............................. CYCLE   26 ..............................
........................................................................
   1   -217.2217726 -0.217222E+03  0.181E-01    0.87       0.0  T
   2   -217.2218047 -0.320197E-04  0.101E-01    0.87       1.0  T
   3   -217.2217779  0.267723E-04  0.191E-02    0.87       1.0  T
   4   -217.2218140 -0.361033E-04  0.827E-03    0.87       1.1  T
   5   -217.2218174 -0.335967E-05  0.368E-03    0.87       2.5  T
   6   -217.2218183 -0.964807E-06  0.158E-03    0.87       5.8  T
     SCC iter.                  ...        0 min,  0.089 sec
     gradient                   ...        0 min,  0.021 sec
 * total energy  :  -213.6391016 Eh     change       -0.3903534E-02 Eh
   gradient norm :     0.0281205 Eh/α   predicted    -0.3531460E-02 (  -9.53%)
   displ. norm   :     0.6158674 α      lambda       -0.5172451E-02
   maximum displ.:     0.1724531 α      in ANC's #21, #32, #53, ...

........................................................................
.............................. CYCLE   27 ..............................
........................................................................
   1   -217.2337387 -0.217234E+03  0.172E-01    0.87       0.0  T
   2   -217.2337672 -0.285122E-04  0.958E-02    0.87       1.0  T
   3   -217.2337008  0.663996E-04  0.267E-02    0.87       1.0  T
   4   -217.2337788 -0.780480E-04  0.892E-03    0.87       1.0  T
   5   -217.2337813 -0.246651E-05  0.442E-03    0.87       2.1  T
   6   -217.2337831 -0.182241E-05  0.152E-03    0.87       6.0  T
     SCC iter.                  ...        0 min,  0.089 sec
     gradient                   ...        0 min,  0.021 sec
 * total energy  :  -213.6429367 Eh     change       -0.3835152E-02 Eh
   gradient norm :     0.0213389 Eh/α   predicted    -0.3567172E-02 (  -6.99%)
   displ. norm   :     0.8156601 α      lambda       -0.4819093E-02
   maximum displ.:     0.2565204 α      in ANC's #53, #21, #26, ...

........................................................................
.............................. CYCLE   28 ..............................
........................................................................
   1   -217.2305281 -0.217231E+03  0.186E-01    0.86       0.0  T
   2   -217.2305567 -0.285792E-04  0.104E-01    0.87       1.0  T
   3   -217.2305177  0.389526E-04  0.222E-02    0.86       1.0  T
   4   -217.2305581 -0.403939E-04  0.112E-02    0.87       1.0  T
   5   -217.2305659 -0.780046E-05  0.416E-03    0.87       2.2  T
   6   -217.2305672 -0.130240E-05  0.185E-03    0.87       4.9  T
   7   -217.2305676 -0.402471E-06  0.589E-04    0.87      15.5  T
     SCC iter.                  ...        0 min,  0.102 sec
     gradient                   ...        0 min,  0.021 sec
 * total energy  :  -213.6468326 Eh     change       -0.3895926E-02 Eh
   gradient norm :     0.0279943 Eh/α   predicted    -0.4012628E-02 (   3.00%)
   displ. norm   :     0.6695111 α      lambda       -0.5359130E-02
   maximum displ.:     0.1921857 α      in ANC's #21, #26, #1, ...

........................................................................
.............................. CYCLE   29 ..............................
........................................................................
   1   -217.2502855 -0.217250E+03  0.172E-01    0.86       0.0  T
   2   -217.2503203 -0.347425E-04  0.952E-02    0.85       1.0  T
   3   -217.2502064  0.113864E-03  0.332E-02    0.86       1.0  T
   4   -217.2503346 -0.128231E-03  0.107E-02    0.85       1.0  T
   5   -217.2503383 -0.360908E-05  0.548E-03    0.85       1.7  T
   6   -217.2503408 -0.255712E-05  0.203E-03    0.85       4.5  T
     SCC iter.                  ...        0 min,  0.089 sec
     gradient                   ...        0 min,  0.021 sec
 * total energy  :  -213.6505594 Eh     change       -0.3726798E-02 Eh
   gradient norm :     0.0335703 Eh/α   predicted    -0.3880673E-02 (   4.13%)
   displ. norm   :     0.7952288 α      lambda       -0.4705473E-02
   maximum displ.:     0.2650498 α      in ANC's #32, #53, #21, ...

........................................................................
.............................. CYCLE   30 ..............................
........................................................................
   1   -217.2429474 -0.217243E+03  0.192E-01    0.86       0.0  T
   2   -217.2429844 -0.370196E-04  0.108E-01    0.86       1.0  T
   3   -217.2429511  0.332379E-04  0.226E-02    0.85       1.0  T
   4   -217.2429926 -0.414135E-04  0.105E-02    0.86       1.0  T
   5   -217.2429972 -0.464227E-05  0.453E-03    0.86       2.0  T
   6   -217.2429989 -0.172778E-05  0.179E-03    0.86       5.1  T
     SCC iter.                  ...        0 min,  0.089 sec
     gradient                   ...        0 min,  0.021 sec
 * total energy  :  -213.6535568 Eh     change       -0.2997394E-02 Eh
   gradient norm :     0.0321246 Eh/α   predicted    -0.3840596E-02 (  28.13%)
   displ. norm   :     0.5971671 α      lambda       -0.4375747E-02
   maximum displ.:     0.1846572 α      in ANC's #35, #53, #26, ...

........................................................................
.............................. CYCLE   31 ..............................
........................................................................
   1   -217.2510338 -0.217251E+03  0.151E-01    0.86       0.0  T
   2   -217.2510782 -0.444356E-04  0.834E-02    0.86       1.0  T
   3   -217.2510287  0.495252E-04  0.254E-02    0.86       1.0  T
   4   -217.2510864 -0.577111E-04  0.103E-02    0.86       1.0  T
   5   -217.2510918 -0.537200E-05  0.454E-03    0.86       2.0  T
   6   -217.2510924 -0.640735E-06  0.249E-03    0.86       3.7  T
     SCC iter.                  ...        0 min,  0.090 sec
     gradient                   ...        0 min,  0.021 sec
 * total energy  :  -213.6553178 Eh     change       -0.1760978E-02 Eh
   gradient norm :     0.0347824 Eh/α   predicted    -0.2968097E-02 (  68.55%)
   displ. norm   :     0.5233138 α      lambda       -0.4332771E-02
   maximum displ.:     0.1722300 α      in ANC's #32, #13, #26, ...

........................................................................
.............................. CYCLE   32 ..............................
........................................................................
   1   -217.2573017 -0.217257E+03  0.166E-01    0.86       0.0  T
   2   -217.2573416 -0.398858E-04  0.916E-02    0.86       1.0  T
   3   -217.2572935  0.480797E-04  0.243E-02    0.85       1.0  T
   4   -217.2573543 -0.607890E-04  0.852E-03    0.86       1.1  T
   5   -217.2573578 -0.346213E-05  0.393E-03    0.85       2.3  T
   6   -217.2573586 -0.817028E-06  0.177E-03    0.85       5.2  T
     SCC iter.                  ...        0 min,  0.090 sec
     gradient                   ...        0 min,  0.021 sec
 * total energy  :  -213.6575032 Eh     change       -0.2185337E-02 Eh
   gradient norm :     0.0378588 Eh/α   predicted    -0.2759673E-02 (  26.28%)
   displ. norm   :     0.5504965 α      lambda       -0.3203419E-02
   maximum displ.:     0.1628277 α      in ANC's #26, #21, #13, ...

........................................................................
.............................. CYCLE   33 ..............................
........................................................................
   1   -217.2582421 -0.217258E+03  0.207E-01    0.84       0.0  T
   2   -217.2582946 -0.524986E-04  0.114E-01    0.84       1.0  T
   3   -217.2581671  0.127490E-03  0.376E-02    0.85       1.0  T
   4   -217.2583227 -0.155645E-03  0.830E-03    0.84       1.1  T
   5   -217.2583245 -0.179750E-05  0.502E-03    0.84       1.8  T
   6   -217.2583270 -0.249368E-05  0.167E-03    0.84       5.5  T
     SCC iter.                  ...        0 min,  0.090 sec
     gradient                   ...        0 min,  0.021 sec
 * total energy  :  -213.6588700 Eh     change       -0.1366875E-02 Eh
   gradient norm :     0.0229725 Eh/α   predicted    -0.2087110E-02 (  52.69%)
   displ. norm   :     0.4618416 α      lambda       -0.2662470E-02
   maximum displ.:     0.1250440 α      in ANC's #26, #13, #7, ...

........................................................................
.............................. CYCLE   34 ..............................
........................................................................
   1   -217.2672432 -0.217267E+03  0.145E-01    0.84       0.0  T
   2   -217.2672749 -0.316180E-04  0.796E-02    0.84       1.0  T
   3   -217.2672288  0.460968E-04  0.232E-02    0.84       1.0  T
   4   -217.2672865 -0.577043E-04  0.746E-03    0.84       1.2  T
   5   -217.2672882 -0.176722E-05  0.373E-03    0.84       2.4  T
   6   -217.2672893 -0.110573E-05  0.155E-03    0.84       5.9  T
     SCC iter.                  ...        0 min,  0.089 sec
     gradient                   ...        0 min,  0.021 sec
 * total energy  :  -213.6604523 Eh     change       -0.1582237E-02 Eh
   gradient norm :     0.0283733 Eh/α   predicted    -0.1615190E-02 (   2.08%)
   displ. norm   :     0.6024546 α      lambda       -0.2454843E-02
   maximum displ.:     0.1675471 α      in ANC's #26, #13, #7, ...

........................................................................
.............................. CYCLE   35 ..............................
........................................................................
   1   -217.2667077 -0.217267E+03  0.149E-01    0.84       0.0  T
   2   -217.2667331 -0.254393E-04  0.818E-02    0.84       1.0  T
   3   -217.2666739  0.592471E-04  0.267E-02    0.84       1.0  T
   4   -217.2667405 -0.665922E-04  0.962E-03    0.84       1.0  T
   5   -217.2667441 -0.359263E-05  0.429E-03    0.84       2.1  T
   6   -217.2667455 -0.141682E-05  0.182E-03    0.84       5.0  T
     SCC iter.                  ...        0 min,  0.090 sec
     gradient                   ...        0 min,  0.021 sec
 * total energy  :  -213.6619027 Eh     change       -0.1450438E-02 Eh
   gradient norm :     0.0197984 Eh/α   predicted    -0.1672920E-02 (  15.34%)
   displ. norm   :     0.5722918 α      lambda       -0.2466563E-02
   maximum displ.:     0.1747502 α      in ANC's #16, #20, #7, ...

........................................................................
.............................. CYCLE   36 ..............................
........................................................................
   1   -217.2734609 -0.217273E+03  0.157E-01    0.85       0.0  T
   2   -217.2734950 -0.340971E-04  0.854E-02    0.84       1.0  T
   3   -217.2734279  0.670548E-04  0.267E-02    0.84       1.0  T
   4   -217.2735046 -0.767060E-04  0.997E-03    0.84       1.0  T
   5   -217.2735089 -0.431644E-05  0.442E-03    0.84       2.1  T
   6   -217.2735104 -0.146175E-05  0.174E-03    0.84       5.3  T
   7   -217.2735106 -0.214707E-06  0.842E-04    0.84      10.8  T
     SCC iter.                  ...        0 min,  0.108 sec
     gradient                   ...        0 min,  0.025 sec
 * total energy  :  -213.6630716 Eh     change       -0.1168883E-02 Eh
   gradient norm :     0.0350431 Eh/α   predicted    -0.1637217E-02 (  40.07%)
   displ. norm   :     0.6044523 α      lambda       -0.2666143E-02
   maximum displ.:     0.1941857 α      in ANC's #32, #7, #26, ...

........................................................................
.............................. CYCLE   37 ..............................
........................................................................
   1   -217.2590344 -0.217259E+03  0.138E-01    0.83       0.0  T
   2   -217.2590561 -0.216964E-04  0.764E-02    0.83       1.0  T
   3   -217.2589947  0.614158E-04  0.257E-02    0.83       1.0  T
   4   -217.2590642 -0.694723E-04  0.894E-03    0.83       1.0  T
   5   -217.2590663 -0.216196E-05  0.407E-03    0.83       2.2  T
   6   -217.2590679 -0.154402E-05  0.159E-03    0.83       5.7  T
     SCC iter.                  ...        0 min,  0.089 sec
     gradient                   ...        0 min,  0.021 sec
 * total energy  :  -213.6646215 Eh     change       -0.1549900E-02 Eh
   gradient norm :     0.0234470 Eh/α   predicted    -0.1820133E-02 (  17.44%)
   displ. norm   :     0.5382297 α      lambda       -0.2798242E-02
   maximum displ.:     0.2057372 α      in ANC's #16, #7, #1, ...

........................................................................
.............................. CYCLE   38 ..............................
........................................................................
   1   -217.2841085 -0.217284E+03  0.179E-01    0.83       0.0  T
   2   -217.2841613 -0.527849E-04  0.974E-02    0.83       1.0  T
   3   -217.2840553  0.105989E-03  0.348E-02    0.83       1.0  T
   4   -217.2841797 -0.124434E-03  0.109E-02    0.82       1.0  T
   5   -217.2841837 -0.399442E-05  0.560E-03    0.83       1.6  T
   6   -217.2841862 -0.242201E-05  0.221E-03    0.82       4.1  T
     SCC iter.                  ...        0 min,  0.089 sec
     gradient                   ...        0 min,  0.021 sec
 * total energy  :  -213.6648043 Eh     change       -0.1828357E-03 Eh
   gradient norm :     0.0490724 Eh/α   predicted    -0.1804446E-02 ( 886.92%)
   displ. norm   :     0.4093756 α      lambda       -0.3390471E-02
   maximum displ.:     0.1387214 α      in ANC's #32, #7, #16, ...

........................................................................
.............................. CYCLE   39 ..............................
........................................................................
   1   -217.2724637 -0.217272E+03  0.119E-01    0.82       0.0  T
   2   -217.2724883 -0.245946E-04  0.649E-02    0.83       1.0  T
   3   -217.2724639  0.244028E-04  0.180E-02    0.82       1.0  T
   4   -217.2724926 -0.287261E-04  0.803E-03    0.83       1.1  T
   5   -217.2724963 -0.360885E-05  0.321E-03    0.83       2.8  T
   6   -217.2724967 -0.439584E-06  0.151E-03    0.83       6.0  T
     SCC iter.                  ...        0 min,  0.089 sec
     gradient                   ...        0 min,  0.021 sec
 * total energy  :  -213.6668969 Eh     change       -0.2092586E-02 Eh
   gradient norm :     0.0228983 Eh/α   predicted    -0.1979346E-02 (  -5.41%)
   displ. norm   :     0.5451805 α      lambda       -0.2013042E-02
   maximum displ.:     0.2015809 α      in ANC's #7, #16, #20, ...

........................................................................
.............................. CYCLE   40 ..............................
........................................................................
   1   -217.2575137 -0.217258E+03  0.171E-01    0.83       0.0  T
   2   -217.2575514 -0.376424E-04  0.925E-02    0.83       1.0  T
   3   -217.2574276  0.123790E-03  0.367E-02    0.82       1.0  T
   4   -217.2575712 -0.143582E-03  0.103E-02    0.83       1.0  T
   5   -217.2575723 -0.113032E-05  0.545E-03    0.83       1.7  T
   6   -217.2575759 -0.361897E-05  0.158E-03    0.83       5.8  T
     SCC iter.                  ...        0 min,  0.089 sec
     gradient                   ...        0 min,  0.021 sec
 * total energy  :  -213.6676710 Eh     change       -0.7741139E-03 Eh
   gradient norm :     0.0456302 Eh/α   predicted    -0.1305691E-02 (  68.67%)
   displ. norm   :     0.5340430 α      lambda       -0.2640550E-02
   maximum displ.:     0.1884097 α      in ANC's #7, #16, #40, ...

........................................................................
.............................. CYCLE   41 ..............................
........................................................................
   1   -217.2663291 -0.217266E+03  0.180E-01    0.82       0.0  T
   2   -217.2663761 -0.469597E-04  0.963E-02    0.82       1.0  T
   3   -217.2663227  0.533820E-04  0.265E-02    0.82       1.0  T
   4   -217.2663843 -0.615489E-04  0.121E-02    0.82       1.0  T
   5   -217.2663919 -0.758615E-05  0.460E-03    0.82       2.0  T
   6   -217.2663936 -0.176111E-05  0.148E-03    0.82       6.2  T
   7   -217.2663937 -0.117636E-06  0.812E-04    0.82      11.2  T
     SCC iter.                  ...        0 min,  0.104 sec
     gradient                   ...        0 min,  0.021 sec
 * total energy  :  -213.6688574 Eh     change       -0.1186369E-02 Eh
   gradient norm :     0.0346023 Eh/α   predicted    -0.1696828E-02 (  43.03%)
   displ. norm   :     0.4909084 α      lambda       -0.2450311E-02
   maximum displ.:     0.1784342 α      in ANC's #7, #16, #26, ...

........................................................................
.............................. CYCLE   42 ..............................
........................................................................
   1   -217.2692753 -0.217269E+03  0.151E-01    0.80       0.0  T
   2   -217.2693061 -0.307388E-04  0.820E-02    0.80       1.0  T
   3   -217.2692454  0.606547E-04  0.258E-02    0.81       1.0  T
   4   -217.2693138 -0.684080E-04  0.105E-02    0.80       1.0  T
   5   -217.2693175 -0.368182E-05  0.507E-03    0.81       1.8  T
   6   -217.2693201 -0.255544E-05  0.162E-03    0.80       5.6  T
     SCC iter.                  ...        0 min,  0.089 sec
     gradient                   ...        0 min,  0.021 sec
 * total energy  :  -213.6700495 Eh     change       -0.1192060E-02 Eh
   gradient norm :     0.0282243 Eh/α   predicted    -0.1520413E-02 (  27.55%)
   displ. norm   :     0.4453948 α      lambda       -0.2033660E-02
   maximum displ.:     0.1995253 α      in ANC's #7, #16, #19, ...
 * RMSD in coord.:     0.9254321 α      energy gain  -0.4902649E-01 Eh

generating ANC from model Hessian ...
Using Lindh-Hessian (1995)
 Shifting diagonal of input Hessian by   5.004804827316137E-003
 Lowest  eigenvalues of input Hessian
    0.005000   -0.000000   -0.000000   -0.000000    0.000000    0.000000
    0.000000    0.005010    0.005030    0.005037    0.005049    0.005066
    0.005108    0.005136    0.005176    0.005209    0.005243    0.005288
 Highest eigenvalues
    2.585655    2.587021    2.600143    2.659993    2.669090    2.679977
 

........................................................................
.............................. CYCLE   43 ..............................
........................................................................
   1   -217.2816065 -0.217282E+03  0.152E-01    0.80       0.0  T
   2   -217.2816426 -0.361280E-04  0.795E-02    0.80       1.0  T
   3   -217.2816236  0.190087E-04  0.192E-02    0.80       1.0  T
   4   -217.2816427 -0.190632E-04  0.114E-02    0.79       1.0  T
   5   -217.2816505 -0.779646E-05  0.434E-03    0.80       2.1  T
   6   -217.2816518 -0.128621E-05  0.210E-03    0.80       4.4  T
   7   -217.2816523 -0.549570E-06  0.607E-04    0.80      15.0  T
   8   -217.2816523 -0.546723E-08  0.390E-04    0.80      23.4  T
     SCC iter.                  ...        0 min,  0.117 sec
     gradient                   ...        0 min,  0.022 sec
 * total energy  :  -213.6708708 Eh     change       -0.8213615E-03 Eh
   gradient norm :     0.0285087 Eh/α   predicted     0.0000000E+00 (-100.00%)
   displ. norm   :     0.3088254 α      lambda       -0.2052721E-02
   maximum displ.:     0.1157122 α      in ANC's #8, #27, #37, ...

........................................................................
.............................. CYCLE   44 ..............................
........................................................................
   1   -217.2785725 -0.217279E+03  0.858E-02    0.80       0.0  T
   2   -217.2785814 -0.888289E-05  0.478E-02    0.80       1.0  T
   3   -217.2785333  0.481279E-04  0.208E-02    0.80       1.0  T
   4   -217.2785865 -0.532066E-04  0.555E-03    0.80       1.6  T
   5   -217.2785879 -0.137186E-05  0.280E-03    0.80       3.3  T
   6   -217.2785884 -0.534771E-06  0.106E-03    0.80       8.6  T
     SCC iter.                  ...        0 min,  0.089 sec
     gradient                   ...        0 min,  0.021 sec
 * total energy  :  -213.6723149 Eh     change       -0.1444099E-02 Eh
   gradient norm :     0.0091416 Eh/α   predicted    -0.1124248E-02 ( -22.15%)
   displ. norm   :     0.4665695 α      lambda       -0.1921335E-02
   maximum displ.:     0.1394519 α      in ANC's #27, #8, #41, ...

........................................................................
.............................. CYCLE   45 ..............................
........................................................................
   1   -217.2706590 -0.217271E+03  0.204E-01    0.78       0.0  T
   2   -217.2707063 -0.473394E-04  0.113E-01    0.79       1.0  T
   3   -217.2706537  0.525546E-04  0.247E-02    0.79       1.0  T
   4   -217.2707256 -0.718731E-04  0.818E-03    0.79       1.1  T
   5   -217.2707283 -0.268615E-05  0.431E-03    0.79       2.1  T
   6   -217.2707297 -0.138655E-05  0.161E-03    0.79       5.7  T
   7   -217.2707299 -0.196529E-06  0.687E-04    0.79      13.3  T
     SCC iter.                  ...        0 min,  0.103 sec
     gradient                   ...        0 min,  0.021 sec
 * total energy  :  -213.6724316 Eh     change       -0.1166721E-03 Eh
   gradient norm :     0.0288304 Eh/α   predicted    -0.1169796E-02 ( 902.64%)
   displ. norm   :     0.3610121 α      lambda       -0.2893668E-02
   maximum displ.:     0.0922426 α      in ANC's #17, #8, #27, ...

........................................................................
.............................. CYCLE   46 ..............................
........................................................................
   1   -217.2759419 -0.217276E+03  0.181E-01    0.78       0.0  T
   2   -217.2759751 -0.332038E-04  0.100E-01    0.78       1.0  T
   3   -217.2759568  0.183331E-04  0.174E-02    0.78       1.0  T
   4   -217.2759895 -0.327073E-04  0.613E-03    0.78       1.5  T
   5   -217.2759902 -0.774549E-06  0.308E-03    0.78       3.0  T
   6   -217.2759911 -0.871701E-06  0.101E-03    0.78       9.1  T
     SCC iter.                  ...        0 min,  0.089 sec
     gradient                   ...        0 min,  0.021 sec
 * total energy  :  -213.6738056 Eh     change       -0.1373981E-02 Eh
   gradient norm :     0.0229259 Eh/α   predicted    -0.1635405E-02 (  19.03%)
   displ. norm   :     0.3641698 α      lambda       -0.2395786E-02
   maximum displ.:     0.1045151 α      in ANC's #8, #27, #39, ...

........................................................................
.............................. CYCLE   47 ..............................
........................................................................
   1   -217.2779920 -0.217278E+03  0.207E-01    0.77       0.0  T
   2   -217.2780442 -0.522254E-04  0.114E-01    0.77       1.0  T
   3   -217.2778096  0.234581E-03  0.465E-02    0.76       1.0  T
   4   -217.2780870 -0.277365E-03  0.697E-03    0.77       1.3  T
   5   -217.2780880 -0.979365E-06  0.400E-03    0.77       2.3  T
   6   -217.2780892 -0.124680E-05  0.152E-03    0.77       6.0  T
     SCC iter.                  ...        0 min,  0.090 sec
     gradient                   ...        0 min,  0.021 sec
 * total energy  :  -213.6740767 Eh     change       -0.2711652E-03 Eh
   gradient norm :     0.0210589 Eh/α   predicted    -0.1356765E-02 ( 400.35%)
   displ. norm   :     0.3235164 α      lambda       -0.2491709E-02
   maximum displ.:     0.1085417 α      in ANC's #8, #21, #27, ...

........................................................................
.............................. CYCLE   48 ..............................
........................................................................
   1   -217.2817267 -0.217282E+03  0.158E-01    0.76       0.0  T
   2   -217.2817556 -0.289895E-04  0.866E-02    0.76       1.0  T
   3   -217.2816874  0.682766E-04  0.279E-02    0.77       1.0  T
   4   -217.2817728 -0.854245E-04  0.577E-03    0.76       1.6  T
   5   -217.2817730 -0.244456E-06  0.335E-03    0.76       2.7  T
   6   -217.2817744 -0.131866E-05  0.944E-04    0.76       9.7  T
     SCC iter.                  ...        0 min,  0.090 sec
     gradient                   ...        0 min,  0.021 sec
 * total energy  :  -213.6756348 Eh     change       -0.1558062E-02 Eh
   gradient norm :     0.0131864 Eh/α   predicted    -0.1376249E-02 ( -11.67%)
   displ. norm   :     0.5758560 α      lambda       -0.2075600E-02
   maximum displ.:     0.2052489 α      in ANC's #8, #27, #39, ...

........................................................................
.............................. CYCLE   49 ..............................
........................................................................
   1   -217.2732151 -0.217273E+03  0.211E-01    0.74       0.0  T
   2   -217.2732616 -0.464237E-04  0.115E-01    0.74       1.0  T
   3   -217.2732007  0.608548E-04  0.295E-02    0.74       1.0  T
   4   -217.2732811 -0.803660E-04  0.102E-02    0.74       1.0  T
   5   -217.2732830 -0.192021E-05  0.459E-03    0.74       2.0  T
   6   -217.2732858 -0.278808E-05  0.129E-03    0.74       7.1  T
   7   -217.2732859 -0.796974E-07  0.704E-04    0.74      13.0  T
     SCC iter.                  ...        0 min,  0.103 sec
     gradient                   ...        0 min,  0.021 sec
 * total energy  :  -213.6766682 Eh     change       -0.1033371E-02 Eh
   gradient norm :     0.0167521 Eh/α   predicted    -0.1381946E-02 (  33.73%)
   displ. norm   :     0.5331736 α      lambda       -0.1740616E-02
   maximum displ.:     0.2083313 α      in ANC's #8, #27, #14, ...

........................................................................
.............................. CYCLE   50 ..............................
........................................................................
   1   -217.2738921 -0.217274E+03  0.165E-01    0.72       0.0  T
   2   -217.2739168 -0.246839E-04  0.891E-02    0.71       1.0  T
   3   -217.2738844  0.324479E-04  0.216E-02    0.72       1.0  T
   4   -217.2739226 -0.381740E-04  0.101E-02    0.71       1.0  T
   5   -217.2739263 -0.372475E-05  0.406E-03    0.72       2.2  T
   6   -217.2739284 -0.210885E-05  0.109E-03    0.72       8.4  T
   7   -217.2739285 -0.657955E-07  0.603E-04    0.72      15.1  T
     SCC iter.                  ...        0 min,  0.103 sec
     gradient                   ...        0 min,  0.021 sec
 * total energy  :  -213.6779912 Eh     change       -0.1323065E-02 Eh
   gradient norm :     0.0160451 Eh/α   predicted    -0.1117715E-02 ( -15.52%)
   displ. norm   :     0.5933383 α      lambda       -0.1999362E-02
   maximum displ.:     0.2577878 α      in ANC's #8, #14, #27, ...

........................................................................
.............................. CYCLE   51 ..............................
........................................................................
   1   -217.2910395 -0.217291E+03  0.166E-01    0.71       0.0  T
   2   -217.2910693 -0.298839E-04  0.888E-02    0.70       1.0  T
   3   -217.2910332  0.361094E-04  0.232E-02    0.70       1.0  T
   4   -217.2910733 -0.400917E-04  0.114E-02    0.70       1.0  T
   5   -217.2910779 -0.458148E-05  0.483E-03    0.70       1.9  T
   6   -217.2910806 -0.265559E-05  0.175E-03    0.70       5.2  T
   7   -217.2910809 -0.345877E-06  0.643E-04    0.70      14.2  T
     SCC iter.                  ...        0 min,  0.104 sec
     gradient                   ...        0 min,  0.021 sec
 * total energy  :  -213.6791974 Eh     change       -0.1206203E-02 Eh
   gradient norm :     0.0159346 Eh/α   predicted    -0.1351628E-02 (  12.06%)
   displ. norm   :     0.7481813 α      lambda       -0.1916524E-02
   maximum displ.:     0.2892846 α      in ANC's #8, #27, #14, ...

........................................................................
.............................. CYCLE   52 ..............................
........................................................................
   1   -217.2795727 -0.217280E+03  0.193E-01    0.68       0.0  T
   2   -217.2795973 -0.246541E-04  0.106E-01    0.69       1.0  T
   3   -217.2795550  0.422963E-04  0.245E-02    0.68       1.0  T
   4   -217.2795944 -0.393792E-04  0.131E-02    0.69       1.0  T
   5   -217.2796058 -0.114091E-04  0.399E-03    0.68       2.3  T
   6   -217.2796074 -0.161064E-05  0.131E-03    0.68       7.0  T
   7   -217.2796076 -0.142710E-06  0.585E-04    0.68      15.6  T
     SCC iter.                  ...        0 min,  0.104 sec
     gradient                   ...        0 min,  0.021 sec
 * total energy  :  -213.6803499 Eh     change       -0.1152469E-02 Eh
   gradient norm :     0.0229081 Eh/α   predicted    -0.1494675E-02 (  29.69%)
   displ. norm   :     0.5305446 α      lambda       -0.1547577E-02
   maximum displ.:     0.2341865 α      in ANC's #8, #14, #5, ...

........................................................................
.............................. CYCLE   53 ..............................
........................................................................
   1   -217.2770472 -0.217277E+03  0.150E-01    0.68       0.0  T
   2   -217.2770679 -0.206951E-04  0.814E-02    0.68       1.0  T
   3   -217.2770298  0.380892E-04  0.211E-02    0.68       1.0  T
   4   -217.2770722 -0.423187E-04  0.973E-03    0.68       1.0  T
   5   -217.2770765 -0.429119E-05  0.409E-03    0.68       2.2  T
   6   -217.2770782 -0.174254E-05  0.117E-03    0.68       7.8  T
     SCC iter.                  ...        0 min,  0.090 sec
     gradient                   ...        0 min,  0.021 sec
 * total energy  :  -213.6814555 Eh     change       -0.1105557E-02 Eh
   gradient norm :     0.0155941 Eh/α   predicted    -0.9916052E-03 ( -10.31%)
   displ. norm   :     0.6230875 α      lambda       -0.1564113E-02
   maximum displ.:     0.2858988 α      in ANC's #8, #14, #5, ...

........................................................................
.............................. CYCLE   54 ..............................
........................................................................
   1   -217.2856577 -0.217286E+03  0.158E-01    0.67       0.0  T
   2   -217.2856806 -0.228968E-04  0.857E-02    0.67       1.0  T
   3   -217.2856434  0.372125E-04  0.219E-02    0.67       1.0  T
   4   -217.2856798 -0.363633E-04  0.115E-02    0.67       1.0  T
   5   -217.2856880 -0.823973E-05  0.392E-03    0.67       2.3  T
   6   -217.2856894 -0.140577E-05  0.163E-03    0.67       5.6  T
   7   -217.2856897 -0.289657E-06  0.587E-04    0.67      15.5  T
     SCC iter.                  ...        0 min,  0.103 sec
     gradient                   ...        0 min,  0.021 sec
 * total energy  :  -213.6824100 Eh     change       -0.9545613E-03 Eh
   gradient norm :     0.0242632 Eh/α   predicted    -0.1085688E-02 (  13.74%)
   displ. norm   :     0.6578636 α      lambda       -0.1464829E-02
   maximum displ.:     0.3003968 α      in ANC's #8, #14, #5, ...

........................................................................
.............................. CYCLE   55 ..............................
........................................................................
   1   -217.2901830 -0.217290E+03  0.163E-01    0.67       0.0  T
   2   -217.2902038 -0.208220E-04  0.885E-02    0.66       1.0  T
   3   -217.2901812  0.225985E-04  0.196E-02    0.67       1.0  T
   4   -217.2902026 -0.214441E-04  0.114E-02    0.66       1.0  T
   5   -217.2902096 -0.693473E-05  0.406E-03    0.66       2.2  T
   6   -217.2902116 -0.204146E-05  0.121E-03    0.67       7.6  T
   7   -217.2902118 -0.142099E-06  0.554E-04    0.67      16.5  T
     SCC iter.                  ...        0 min,  0.104 sec
     gradient                   ...        0 min,  0.021 sec
 * total energy  :  -213.6835127 Eh     change       -0.1102673E-02 Eh
   gradient norm :     0.0134017 Eh/α   predicted    -0.1049400E-02 (  -4.83%)
   displ. norm   :     0.7455358 α      lambda       -0.1302491E-02
   maximum displ.:     0.3438556 α      in ANC's #8, #14, #5, ...

........................................................................
.............................. CYCLE   56 ..............................
........................................................................
   1   -217.2860924 -0.217286E+03  0.190E-01    0.67       0.0  T
   2   -217.2861228 -0.303710E-04  0.104E-01    0.67       1.0  T
   3   -217.2860805  0.423163E-04  0.244E-02    0.67       1.0  T
   4   -217.2861249 -0.444473E-04  0.126E-02    0.67       1.0  T
   5   -217.2861330 -0.804973E-05  0.499E-03    0.67       1.8  T
   6   -217.2861362 -0.324621E-05  0.132E-03    0.67       6.9  T
   7   -217.2861363 -0.108991E-06  0.686E-04    0.67      13.3  T
   8   -217.2861363 -0.653489E-08  0.448E-04    0.67      20.4  T
     SCC iter.                  ...        0 min,  0.118 sec
     gradient                   ...        0 min,  0.021 sec
 * total energy  :  -213.6843532 Eh     change       -0.8404784E-03 Eh
   gradient norm :     0.0184543 Eh/α   predicted    -0.1013226E-02 (  20.55%)
   displ. norm   :     0.6363871 α      lambda       -0.1107521E-02
   maximum displ.:     0.3037234 α      in ANC's #8, #5, #14, ...

........................................................................
.............................. CYCLE   57 ..............................
........................................................................
   1   -217.2877409 -0.217288E+03  0.153E-01    0.67       0.0  T
   2   -217.2877595 -0.185972E-04  0.827E-02    0.66       1.0  T
   3   -217.2877489  0.106151E-04  0.164E-02    0.67       1.0  T
   4   -217.2877584 -0.949351E-05  0.102E-02    0.66       1.0  T
   5   -217.2877649 -0.654659E-05  0.253E-03    0.66       3.6  T
   6   -217.2877656 -0.709710E-06  0.106E-03    0.66       8.7  T
   7   -217.2877657 -0.113958E-06  0.427E-04    0.66      21.4  T
     SCC iter.                  ...        0 min,  0.103 sec
     gradient                   ...        0 min,  0.022 sec
 * total energy  :  -213.6851518 Eh     change       -0.7986241E-03 Eh
   gradient norm :     0.0135003 Eh/α   predicted    -0.7780327E-03 (  -2.58%)
   displ. norm   :     0.6207037 α      lambda       -0.1222070E-02
   maximum displ.:     0.2901416 α      in ANC's #8, #5, #14, ...

........................................................................
.............................. CYCLE   58 ..............................
........................................................................
   1   -217.3059634 -0.217306E+03  0.147E-01    0.67       0.0  T
   2   -217.3059807 -0.172917E-04  0.805E-02    0.67       1.0  T
   3   -217.3058028  0.177852E-03  0.397E-02    0.67       1.0  T
   4   -217.3059989 -0.196116E-03  0.985E-03    0.67       1.0  T
   5   -217.3060000 -0.103334E-05  0.548E-03    0.67       1.7  T
   6   -217.3060032 -0.321999E-05  0.164E-03    0.67       5.6  T
   7   -217.3060034 -0.201143E-06  0.803E-04    0.67      11.4  T
   8   -217.3060034 -0.173467E-07  0.517E-04    0.67      17.7  T
     SCC iter.                  ...        0 min,  0.128 sec
     gradient                   ...        0 min,  0.021 sec
 * total energy  :  -213.6853147 Eh     change       -0.1629267E-03 Eh
   gradient norm :     0.0265087 Eh/α   predicted    -0.8464495E-03 ( 419.53%)
   displ. norm   :     0.4918201 α      lambda       -0.1561695E-02
   maximum displ.:     0.2182591 α      in ANC's #8, #14, #5, ...

........................................................................
.............................. CYCLE   59 ..............................
........................................................................
   1   -217.2849637 -0.217285E+03  0.126E-01    0.65       0.0  T
   2   -217.2849718 -0.811221E-05  0.696E-02    0.65       1.0  T
   3   -217.2847952  0.176590E-03  0.384E-02    0.65       1.0  T
   4   -217.2849877 -0.192477E-03  0.807E-03    0.65       1.1  T
   5   -217.2849877 -0.667391E-07  0.453E-03    0.65       2.0  T
   6   -217.2849899 -0.219737E-05  0.124E-03    0.65       7.4  T
     SCC iter.                  ...        0 min,  0.089 sec
     gradient                   ...        0 min,  0.021 sec
 * total energy  :  -213.6859036 Eh     change       -0.5889060E-03 Eh
   gradient norm :     0.0197902 Eh/α   predicted    -0.9697280E-03 (  64.67%)
   displ. norm   :     0.3065305 α      lambda       -0.1482809E-02
   maximum displ.:     0.1060599 α      in ANC's #8, #45, #5, ...

........................................................................
.............................. CYCLE   60 ..............................
........................................................................
   1   -217.2888882 -0.217289E+03  0.130E-01    0.67       0.0  T
   2   -217.2889309 -0.427756E-04  0.721E-02    0.68       1.0  T
   3   -217.2888641  0.668772E-04  0.250E-02    0.67       1.0  T
   4   -217.2889404 -0.763933E-04  0.811E-03    0.67       1.1  T
   5   -217.2889466 -0.616525E-05  0.342E-03    0.67       2.7  T
   6   -217.2889472 -0.622127E-06  0.192E-03    0.67       4.7  T
   7   -217.2889475 -0.229712E-06  0.608E-04    0.67      15.0  T
     SCC iter.                  ...        0 min,  0.103 sec
     gradient                   ...        0 min,  0.021 sec
 * total energy  :  -213.6852984 Eh     change        0.6052125E-03 Eh
   gradient norm :     0.0480324 Eh/α   predicted    -0.8110660E-03 (-234.01%)
   displ. norm   :     0.2378399 α      lambda       -0.2390046E-02
   maximum displ.:     0.0836307 α      in ANC's #8, #17, #58, ...

........................................................................
.............................. CYCLE   61 ..............................
........................................................................
   1   -217.2915255 -0.217292E+03  0.965E-02    0.66       0.0  T
   2   -217.2915477 -0.221772E-04  0.537E-02    0.65       1.0  T
   3   -217.2915224  0.252671E-04  0.175E-02    0.66       1.0  T
   4   -217.2915538 -0.314511E-04  0.534E-03    0.66       1.7  T
   5   -217.2915555 -0.161466E-05  0.264E-03    0.66       3.5  T
   6   -217.2915556 -0.187733E-06  0.135E-03    0.66       6.8  T
     SCC iter.                  ...        0 min,  0.089 sec
     gradient                   ...        0 min,  0.021 sec
 * total energy  :  -213.6864456 Eh     change       -0.1147225E-02 Eh
   gradient norm :     0.0105857 Eh/α   predicted    -0.1262627E-02 (  10.06%)
   displ. norm   :     0.4002923 α      lambda       -0.8106732E-03
   maximum displ.:     0.1753297 α      in ANC's #8, #5, #10, ...

........................................................................
.............................. CYCLE   62 ..............................
........................................................................
   1   -217.2998662 -0.217300E+03  0.101E-01    0.66       0.0  T
   2   -217.2998858 -0.195252E-04  0.553E-02    0.66       1.0  T
   3   -217.2998335  0.522268E-04  0.235E-02    0.66       1.0  T
   4   -217.2998914 -0.578756E-04  0.712E-03    0.66       1.3  T
   5   -217.2998940 -0.257791E-05  0.325E-03    0.66       2.8  T
   6   -217.2998944 -0.429796E-06  0.175E-03    0.66       5.2  T
   7   -217.2998948 -0.348409E-06  0.535E-04    0.66      17.1  T
     SCC iter.                  ...        0 min,  0.103 sec
     gradient                   ...        0 min,  0.021 sec
 * total energy  :  -213.6860981 Eh     change        0.3475553E-03 Eh
[...]
    74   6 C      3.092     0.014    27.595     8.610
    75   6 C      3.262    -0.028    27.483     8.468
    76   6 C      3.050     0.038    27.100     8.538
    77   6 C      2.946     0.018    27.608     8.618
    78   6 C      1.921     0.125    28.028     8.550
    79   7 N      0.911    -0.222    25.855     7.354
    80   6 C      1.921     0.126    28.002     8.546
    81   7 N      0.911    -0.227    25.954     7.368
    82   6 C      3.063    -0.037    28.854     8.809
    83   6 C      2.953    -0.026    28.658     8.780
    84  16 S      2.245     0.027   139.972    19.912
    85   1 H      0.926     0.055     2.259     2.351
    86   1 H      0.926     0.058     2.218     2.329
    87   1 H      0.926     0.056     2.252     2.346
    88   1 H      0.926     0.048     2.348     2.396
    89   1 H      0.925     0.041     2.432     2.439
    90   1 H      0.924     0.038     2.477     2.461
    91   1 H      0.925     0.038     2.472     2.459
    92   1 H      0.925     0.034     2.525     2.485
    93   1 H      0.925     0.042     2.426     2.436
    94   1 H      0.925     0.047     2.357     2.401
    95   1 H      0.925     0.041     2.439     2.442
    96   1 H      0.925     0.040     2.453     2.449
    97   1 H      0.925     0.035     2.512     2.478
    98   1 H      0.925     0.035     2.516     2.481
    99   1 H      0.926     0.050     2.318     2.381
   100   1 H      0.926     0.057     2.229     2.334
   101   1 H      0.926     0.046     2.367     2.406
   102   1 H      0.926     0.055     2.260     2.351
   103   1 H      0.926     0.057     2.235     2.338
   104   1 H      0.926     0.047     2.355     2.400
   105   1 H      0.925     0.039     2.463     2.454
   106   1 H      0.924     0.042     2.426     2.436
   107   1 H      0.925     0.033     2.546     2.495
   108   1 H      0.925     0.041     2.437     2.441
   109   1 H      0.925     0.040     2.453     2.449
   110   1 H      0.925     0.045     2.382     2.413
   111   1 H      0.925     0.050     2.320     2.382
   112   1 H      0.925     0.034     2.531     2.488
   113   1 H      0.925     0.037     2.493     2.469
   114   1 H      0.925     0.036     2.501     2.473
   115   1 H      0.926     0.049     2.336     2.390
   116   1 H      0.926     0.056     2.250     2.346
   117   1 H      0.925     0.043     2.406     2.426
   118   1 H      0.926     0.056     2.251     2.346
   119   1 H      0.926     0.058     2.223     2.332
   120   1 H      0.926     0.055     2.264     2.353

 Mol. C6AA /au·bohr⁶  :     312928.654150
 Mol. C8AA /au·bohr⁸  :    9452876.949559
 Mol. α(0) /au        :        903.741537


Wiberg/Mayer (AO) data.
largest (>0.10) Wiberg bond orders for each atom
          total WBO             WBO to atom ...
     1  C   3.915        C    2 1.613    S    5 1.172    H   85 0.970
     2  C   3.983        C    1 1.613    C    3 1.267    H   86 0.959
     3  C   3.971        C    4 1.379    C    2 1.267    C    8 1.096
     4  C   3.940        C    3 1.379    S    5 1.203    C    6 1.140
     5  S   2.653        C    4 1.203    C    1 1.172
     6  C   3.938        C    7 1.378    S   16 1.197    C    4 1.140
     7  C   3.973        C    6 1.378    C   14 1.272    C    8 1.092
     8  C   3.981        C    9 1.511    C    3 1.096    C    7 1.092
     9  C   3.988        C    8 1.511    C   10 1.094    C   12 1.094
    10  C   3.947        N   11 2.782    C    9 1.094
    11  N   2.975        C   10 2.782
    12  C   3.947        N   13 2.782    C    9 1.094
    13  N   2.976        C   12 2.782
    14  C   3.979        C   15 1.557    C    7 1.272    H   87 0.959
    15  C   3.920        C   14 1.557    S   16 1.118    C   17 1.030
    16  S   2.641        C    6 1.197    C   15 1.118
    17  C   3.977        C   18 1.610    C   21 1.159    C   15 1.030    S   19 0.100
    18  C   3.940        C   17 1.610    S   19 1.170    H   88 0.970
    19  S   2.583        C   18 1.170    C   20 1.111    C   17 0.100
    20  C   3.954        C   32 1.324    C   21 1.312    S   19 1.111
    21  C   3.978        C   20 1.312    C   22 1.266    C   17 1.159
    22  C   3.981        C   25 1.482    C   21 1.266    C   23 1.011
    23  C   3.994        C   22 1.011    C   24 1.002    H   90 0.963    H   89 0.958
    24  C   3.993        C   23 1.002    H   92 0.986    H   91 0.984    H   93 0.983
    25  C   3.982        C   22 1.482    C   28 1.269    C   26 1.012
    26  C   3.995        C   25 1.012    C   27 1.002    H   94 0.966    H   95 0.956
    27  C   3.992        C   26 1.002    H   98 0.986    H   97 0.986    H   96 0.979
    28  C   3.976        C   32 1.321    C   25 1.269    C   29 1.147
    29  C   3.979        C   30 1.555    C   28 1.147    C   33 1.116
    30  C   3.906        C   29 1.555    S   31 1.186    H   99 0.967
    31  S   2.587        C   30 1.186    C   32 1.104
    32  C   3.953        C   20 1.324    C   28 1.321    S   31 1.104
    33  C   3.962        C   34 1.697    C   29 1.116    H  100 0.941
    34  C   3.983        C   33 1.697    C   35 1.183    H  101 0.954
    35  C   3.919        C   36 1.470    C   34 1.183    S   39 1.104
    36  C   3.958        C   35 1.470    C   37 1.313    H  102 0.959
    37  C   3.971        C   38 1.350    C   36 1.313    C   42 1.086
    38  C   3.924        C   37 1.350    S   39 1.188    C   40 1.157
    39  S   2.603        C   38 1.188    C   35 1.104
    40  C   3.936        C   41 1.361    S   50 1.192    C   38 1.157
    41  C   3.955        C   40 1.361    C   48 1.271    C   42 1.102
    42  C   3.980        C   43 1.510    C   41 1.102    C   37 1.086
    43  C   3.985        C   42 1.510    C   46 1.095    C   44 1.094
    44  C   3.947        N   45 2.782    C   43 1.094
    45  N   2.976        C   44 2.782
    46  C   3.947        N   47 2.782    C   43 1.095
    47  N   2.975        C   46 2.782
    48  C   3.980        C   49 1.557    C   41 1.271    H  103 0.955
    49  C   3.908        C   48 1.557    S   50 1.108    C   51 1.037
    50  S   2.617        C   40 1.192    C   49 1.108
    51  C   3.977        C   52 1.607    C   55 1.156    C   49 1.037
    52  C   3.938        C   51 1.607    S   53 1.170    H  104 0.970
    53  S   2.580        C   52 1.170    C   54 1.109
    54  C   3.953        C   66 1.325    C   55 1.312    S   53 1.109
    55  C   3.977        C   54 1.312    C   56 1.268    C   51 1.156
    56  C   3.982        C   59 1.480    C   55 1.268    C   57 1.010
    57  C   3.995        C   56 1.010    C   58 1.001    H  106 0.965    H  105 0.961
    58  C   3.993        C   57 1.001    H  107 0.986    H  108 0.983    H  109 0.983
    59  C   3.983        C   56 1.480    C   62 1.270    C   60 1.011
    60  C   3.995        C   59 1.011    C   61 1.002    H  111 0.966    H  110 0.956
    61  C   3.993        C   60 1.002    H  112 0.988    H  114 0.986    H  113 0.982
    62  C   3.975        C   66 1.319    C   59 1.270    C   63 1.147
    63  C   3.980        C   64 1.562    C   62 1.147    C   67 1.107
    64  C   3.909        C   63 1.562    S   65 1.182    H  115 0.968
    65  S   2.583        C   64 1.182    C   66 1.104
    66  C   3.953        C   54 1.325    C   62 1.319    S   65 1.104
    67  C   3.962        C   68 1.701    C   63 1.107    H  116 0.945
    68  C   3.983        C   67 1.701    C   69 1.178    H  117 0.961
    69  C   3.920        C   70 1.464    C   68 1.178    S   73 1.115
    70  C   3.961        C   69 1.464    C   71 1.320    H  118 0.956
    71  C   3.975        C   72 1.349    C   70 1.320    C   76 1.083
    72  C   3.927        C   71 1.349    S   73 1.193    C   74 1.156
    73  S   2.610        C   72 1.193    C   69 1.115
    74  C   3.941        C   75 1.362    S   84 1.202    C   72 1.156
    75  C   3.957        C   74 1.362    C   82 1.265    C   76 1.108
    76  C   3.981        C   77 1.508    C   75 1.108    C   71 1.083
    77  C   3.985        C   76 1.508    C   80 1.095    C   78 1.094
    78  C   3.947        N   79 2.782    C   77 1.094
    79  N   2.976        C   78 2.782
    80  C   3.946        N   81 2.779    C   77 1.095
    81  N   2.973        C   80 2.779
    82  C   3.983        C   83 1.615    C   75 1.265    H  119 0.959
    83  C   3.906        C   82 1.615    S   84 1.167    H  120 0.970
    84  S   2.643        C   74 1.202    C   83 1.167
    85  H   0.996        C    1 0.970
    86  H   0.996        C    2 0.959
    87  H   0.996        C   14 0.959
    88  H   0.997        C   18 0.970
    89  H   0.998        C   23 0.958
    90  H   0.997        C   23 0.963
    91  H   0.998        C   24 0.984
    92  H   0.998        C   24 0.986
    93  H   0.997        C   24 0.983
    94  H   0.997        C   26 0.966
    95  H   0.997        C   26 0.956
    96  H   0.998        C   27 0.979
    97  H   0.999        C   27 0.986
    98  H   0.998        C   27 0.986
    99  H   0.997        C   30 0.967
   100  H   0.997        C   33 0.941
   101  H   0.997        C   34 0.954
   102  H   0.996        C   36 0.959
   103  H   0.996        C   48 0.955
   104  H   0.997        C   52 0.970
   105  H   0.998        C   57 0.961
   106  H   0.997        C   57 0.965
   107  H   0.998        C   58 0.986
   108  H   0.998        C   58 0.983
   109  H   0.998        C   58 0.983
   110  H   0.997        C   60 0.956
   111  H   0.997        C   60 0.966
   112  H   0.999        C   61 0.988
   113  H   0.998        C   61 0.982
   114  H   0.998        C   61 0.986
   115  H   0.997        C   64 0.968
   116  H   0.997        C   67 0.945
   117  H   0.998        C   68 0.961
   118  H   0.996        C   70 0.956
   119  H   0.996        C   82 0.959
   120  H   0.996        C   83 0.970

molecular dipole:
                 x           y           z       tot (Debye)
 q only:        1.936      -1.416       1.216
   full:        2.291      -1.406       1.493       7.815
molecular quadrupole (traceless):
                xx          xy          yy          xz          yz          zz
 q only:        6.993      99.095    -115.661      34.752    -118.879     108.668
  q+dip:        1.479      99.001    -132.596      39.797    -105.766     131.117
   full:        5.945     100.522    -135.056      38.932    -104.257     129.111

           -------------------------------------------------
          |                Geometry Summary                 |
           -------------------------------------------------

      molecular mass/u    :     1257.6726000
   center of mass at/Å    :       -4.1102611       6.5614519      10.4632762
  moments of inertia/u·Å² :        0.2240240E+05   0.1252448E+06   0.1348935E+06
rotational constants/cm⁻¹ :        0.7524924E-03   0.1345975E-03   0.1249700E-03

 * 114 selected distances

     #   Z        #   Z                                     value/Å
     1   6 C      2   6 C                                 1.3612556
     2   6 C      3   6 C                                 1.4086481
     3   6 C      4   6 C                                 1.3961777
     1   6 C      5  16 S                                 1.7330809
     4   6 C      5  16 S                                 1.7057128
     4   6 C      6   6 C                                 1.4299886
     6   6 C      7   6 C                                 1.3952484
     3   6 C      8   6 C                                 1.4543424
     8   6 C      9   6 C                                 1.3643438
    10   6 C     11   7 N                                 1.1467860
    12   6 C     13   7 N                                 1.1468034
     7   6 C     14   6 C                                 1.4063476
    14   6 C     15   6 C                                 1.3685528
     6   6 C     16  16 S                                 1.7053588
    15   6 C     16  16 S                                 1.7566364
    17   6 C     18   6 C                                 1.3595971
    18   6 C     19  16 S                                 1.7178720
    19  16 S     20   6 C                                 1.7349478
    17   6 C     21   6 C                                 1.4417271
    20   6 C     21   6 C                                 1.4021332
    21   6 C     22   6 C                                 1.4166652
    23   6 C     24   6 C                                 1.5297499
    22   6 C     25   6 C                                 1.3893996
    26   6 C     27   6 C                                 1.5302257
    25   6 C     28   6 C                                 1.4212868
    29   6 C     30   6 C                                 1.3669933
    30   6 C     31  16 S                                 1.7122805
    20   6 C     32   6 C                                 1.3845311
    28   6 C     32   6 C                                 1.4040161
    31  16 S     32   6 C                                 1.7353552
    33   6 C     34   6 C                                 1.3463497
    34   6 C     35   6 C                                 1.4251174
    35   6 C     36   6 C                                 1.3801043
    36   6 C     37   6 C                                 1.3984976
    37   6 C     38   6 C                                 1.3992128
    38   6 C     39  16 S                                 1.7062175
    38   6 C     40   6 C                                 1.4248906
    40   6 C     41   6 C                                 1.3979347
    41   6 C     42   6 C                                 1.4519314
    42   6 C     43   6 C                                 1.3643551
    44   6 C     45   7 N                                 1.1468602
    46   6 C     47   7 N                                 1.1467612
    41   6 C     48   6 C                                 1.4056577
    48   6 C     49   6 C                                 1.3672899
    40   6 C     50  16 S                                 1.7075317
    51   6 C     52   6 C                                 1.3598705
    52   6 C     53  16 S                                 1.7176621
    53  16 S     54   6 C                                 1.7354253
    51   6 C     55   6 C                                 1.4422724
    54   6 C     55   6 C                                 1.4026161
    55   6 C     56   6 C                                 1.4164432
    57   6 C     58   6 C                                 1.5302956
    56   6 C     59   6 C                                 1.3890183
    60   6 C     61   6 C                                 1.5299145
    59   6 C     62   6 C                                 1.4199894
    62   6 C     63   6 C                                 1.4494117
    63   6 C     64   6 C                                 1.3659997
    64   6 C     65  16 S                                 1.7136452
    54   6 C     66   6 C                                 1.3843722
    62   6 C     66   6 C                                 1.4041289
    65  16 S     66   6 C                                 1.7354761
    67   6 C     68   6 C                                 1.3461678
    68   6 C     69   6 C                                 1.4274133
    69   6 C     70   6 C                                 1.3810648
    70   6 C     71   6 C                                 1.3971511
    71   6 C     72   6 C                                 1.3993139
    69   6 C     73  16 S                                 1.7568780 (max)
    72   6 C     73  16 S                                 1.7058806
    72   6 C     74   6 C                                 1.4257168
    74   6 C     75   6 C                                 1.3990804
    75   6 C     76   6 C                                 1.4505348
    76   6 C     77   6 C                                 1.3647231
    78   6 C     79   7 N                                 1.1467307
    80   6 C     81   7 N                                 1.1471571
    75   6 C     82   6 C                                 1.4088187
    82   6 C     83   6 C                                 1.3606950
    74   6 C     84  16 S                                 1.7061567
    83   6 C     84  16 S                                 1.7345226
     1   6 C     85   1 H                                 1.0714580
     2   6 C     86   1 H                                 1.0745803
    14   6 C     87   1 H                                 1.0749517
    18   6 C     88   1 H                                 1.0730504
    23   6 C     89   1 H                                 1.0888660
    23   6 C     90   1 H                                 1.0908451
    24   6 C     91   1 H                                 1.0877155
    24   6 C     92   1 H                                 1.0878724
    24   6 C     93   1 H                                 1.0860430
    26   6 C     94   1 H                                 1.0863029
    26   6 C     95   1 H                                 1.0899901
    27   6 C     96   1 H                                 1.0862911
    27   6 C     97   1 H                                 1.0875600
    27   6 C     98   1 H                                 1.0876403
    30   6 C     99   1 H                                 1.0722351
    33   6 C    100   1 H                                 1.0788648
    34   6 C    101   1 H                                 1.0811134
    36   6 C    102   1 H                                 1.0748607
    48   6 C    103   1 H                                 1.0741714
    52   6 C    104   1 H                                 1.0732023
    57   6 C    105   1 H                                 1.0887252
    57   6 C    106   1 H                                 1.0907159
    58   6 C    107   1 H                                 1.0878363
    58   6 C    108   1 H                                 1.0867284
    58   6 C    109   1 H                                 1.0859067
    60   6 C    110   1 H                                 1.0883487
    60   6 C    111   1 H                                 1.0857326
    61   6 C    112   1 H                                 1.0880944
    61   6 C    113   1 H                                 1.0867067
    61   6 C    114   1 H                                 1.0876805
    64   6 C    115   1 H                                 1.0724288
    67   6 C    116   1 H                                 1.0772472
    68   6 C    117   1 H                                 1.0816153
    70   6 C    118   1 H                                 1.0737704
    82   6 C    119   1 H                                 1.0745776
    83   6 C    120   1 H                                 1.0714459 (min)

 * 4 distinct bonds (by element types)

   Z      Z             #   av. dist./Å        max./Å        min./Å
   1 H    6 C          36     1.0820882     1.0908451     1.0714459
   6 C    6 C          54     1.4082886     1.5302956     1.3461678
   6 C    7 N           6     1.1468498     1.1471571     1.1467307
   6 C   16 S          18     1.7233689     1.7568780     1.7053588


optimized geometry written to: xtbopt.xyz


           -------------------------------------------------
          | TOTAL ENERGY             -213.698496661895 Eh   |
          | GRADIENT NORM               0.000785606036 Eh/α |
          | HOMO-LUMO GAP               0.731824804075 eV   |
           -------------------------------------------------

------------------------------------------------------------------------
 * finished run on 2021/06/26 at 07:05:13.397     
------------------------------------------------------------------------
 total:
 * wall-time:     0 d,  0 h,  0 min, 39.041 sec
 *  cpu-time:     0 d,  0 h,  7 min, 48.341 sec
 * ratio c/w:    11.996 speedup
 SCF:
 * wall-time:     0 d,  0 h,  0 min,  0.272 sec
 *  cpu-time:     0 d,  0 h,  0 min,  3.257 sec
 * ratio c/w:    11.960 speedup
 ANC optimizer:
 * wall-time:     0 d,  0 h,  0 min, 38.716 sec
 *  cpu-time:     0 d,  0 h,  7 min, 44.538 sec
 * ratio c/w:    11.998 speedup

