      -----------------------------------------------------------      
     |                   =====================                   |     
     |                           x T B                           |     
     |                   =====================                   |     
     |                         S. Grimme                         |     
     |          Mulliken Center for Theoretical Chemistry        |     
     |                    University of Bonn                     |     
     |                Version 6.2 RC2 (SAW190805)                |     
      -----------------------------------------------------------      

   This program is distributed in the hope that it will be useful,
   but WITHOUT ANY WARRANTY; without even the implied warranty of
   MERCHANTABILITY or FITNESS FOR A PARTICULAR PURPOSE.
   
   FOR NON-COMMERCIAL, ACADEMIA USE ONLY.
   
   Cite this work as:
   * S. Grimme, C. Bannwarth, P. Shushkov, J. Chem. Theory Comput., 2017,
     13, 1989-2009. DOI: 10.1021/acs.jctc.7b00118
   * C. Bannwarth, S. Ehlert and S. Grimme., J. Chem. Theory Comput., 2019,
     15, 1652-1671. DOI: 10.1021/acs.jctc.8b01176
   * P. Pracht, E. Caldeweyher, S. Ehlert, S. Grimme, ChemRxiv, 2019, preprint.
     DOI: 10.26434/chemrxiv.8326202.v1
   
   for DFT-D4:
   * E. Caldeweyher, C. Bannwarth and S. Grimme, J. Chem. Phys., 2017,
     147, 034112. DOI: 10.1063/1.4993215
   * E. Caldeweyher, S. Ehlert, A. Hansen, H. Neugebauer, S. Spicher,
     C. Bannwarth and S. Grimme, J. Chem. Phys., 2019, 150, 154122.
     DOI: 10.1063/1.5090222
   
   for sTDA-xTB:
   * S. Grimme and C. Bannwarth, J. Chem. Phys., 2016, 145, 054103.
     DOI: 10.1063/1.4959605
   
   in the mass-spec context:
   * V. Asgeirsson, C. Bauer and S. Grimme, Chem. Sci., 2017, 8, 4879.
     DOI: 10.1039/c7sc00601b
   
   for metadynamics refer to:
   * S. Grimme, J. Chem. Theory Comput., 2019, 155, 2847-2862
     DOI: 10.1021/acs.jctc.9b00143
   
   with help from (in alphabetical order)
   C. Bannwarth, F. Bohle, G. Brandenburg, E. Caldeweyher, M. Checinski,
   S. Dohm, S. Ehlert, S. Ehrlich, F. März, H. Neugebauer, J. Pisarek,
   P. Pracht, P. Shushkov, and S. Spicher.
   
 * started run on 2021/06/28 at 21:33:37.173     

           -------------------------------------------------
          |                Calculation Setup                |
           -------------------------------------------------

          program call               : /ihome/ghutchison/geoffh/xtb/xtb /ihome/ghutchison/blp62/GA/running_GA/opt_GA/generations/90/45_73_45_9_63_10132.xyz -opt
          hostname                   : smp-n130
          coordinate file            : /ihome/ghutchison/blp62/GA/running_GA/opt_GA/generations/90/45_73_45_9_63_10132.xyz
          omp threads                :                    12
          number of atoms            :                    97
          number of electrons        :                   332
          charge                     :                     0
          spin                       :                   0.0
          first test random number   :      0.84763740936721


########################################################################
# WARNING! Please study the warnings concerning your input carefully
#  - XTBPATH is not set, using XTBHOME instead
#  - the use of '-opt' is discouraged, please use '--opt' next time
########################################################################

           ------------------------------------------------- 
          |                 G F N 2 - x T B                 |
          | Geometry, Frequencies, Noncovalent interactions |
          |            JCTC 2019 parametrisation            |
           ------------------------------------------------- 
             KAB for C  - Si     :                1.0500
             KAB for H  - Pd     :                0.9500
             k(s)              :                1.8500
             k(p)              :                2.2300
             k(d)              :                2.2300
             k(f)              :                2.0000
             kEN (H0ij)        :               -2.0000
             D4 a1             :                0.5200
             D4 a2             :                5.0000
             D4 s6             :                1.0000
             D4 s8             :                2.7000
             D4 s9             :                5.0000
             alphaj            :                2.0000

  Z AO/shell   Hii/eV     exponent
  1     Wed Apr 25 08:07:45 CEST 2018   EN: 2.200 GM2: 0.406  GM3: 0.0800  RAES: 1.40
     1s    -10.707211    1.230000
  6     Wed Apr 25 08:07:45 CEST 2018   EN: 2.550 GM2: 0.538  GM3: 0.1500  RAES: 3.00
     2s    -13.970922    2.096432
     2p    -10.063292    1.800000
  7     Wed Apr 25 08:07:45 CEST 2018   EN: 3.040 GM2: 0.461  GM3:-0.0640  RAES: 1.90
     2s    -16.686243    2.339881
     2p    -12.523956    2.014332
  8     Wed Apr 25 08:07:45 CEST 2018   EN: 3.440 GM2: 0.452  GM3:-0.0517  RAES: 1.80
     2s    -20.229985    2.439742
     2p    -15.503117    2.137023
  9     Mon Apr 23 13:58:50 CEST 2018   EN: 3.980 GM2: 0.532  GM3: 0.1426  RAES: 2.40
     2s    -23.458179    2.416361
     2p    -15.746583    2.308399
 16     Tue Apr 24 11:44:34 CEST 2018   EN: 2.580 GM2: 0.340  GM3:-0.0502  RAES: 3.10
     3s    -20.029654    1.981333
     3p    -11.377694    2.025643
     3d     -0.420282    1.702555

           ------------------------------------------------- 
          |        Self-Consistent Charge Iterations        |
           ------------------------------------------------- 

          ...................................................
          :                      SETUP                      :
          :.................................................:
          :  # basis functions                 328          :
          :  # atomic orbitals                 325          :
          :  # shells                          171          :
          :  # electrons                       332          :
          :  max. iterations                   250          :
          :  Hamiltonian                  GFN2-xTB          :
          :  restarted?                      false          :
          :  GBSA solvation                  false          :
          :  PC potential                    false          :
          :  electronic temp.          300.0000000     K    :
          :  accuracy                    1.0000000          :
          :  -> integral cutoff          0.2500000E+02      :
          :  -> integral neglect         0.1000000E-07      :
          :  -> SCF convergence          0.1000000E-05 Eh   :
          :  -> wf. convergence          0.1000000E-03 e    :
          :  Broyden damping             0.4000000          :
          ...................................................

 iter      E             dE          RMSdq      gap      omega  full diag
   1   -184.2538594 -0.184254E+03  0.525E+00    0.74       0.0  T
   2   -184.3914112 -0.137552E+00  0.353E+00    0.30       1.0  T
   3   -184.3303107  0.611005E-01  0.228E+00    0.33       1.0  T
   4   -184.5444630 -0.214152E+00  0.877E-01    0.08       1.0  T
   5   -184.6120250 -0.675620E-01  0.348E-01    0.40       1.0  T
   6   -184.6104931  0.153186E-02  0.301E-01    0.20       1.0  T
   7   -184.6204780 -0.998490E-02  0.195E-01    0.42       1.0  T
   8   -184.6260490 -0.557094E-02  0.766E-02    0.24       1.0  T
   9   -184.6262600 -0.211005E-03  0.460E-02    0.19       1.0  T
  10   -184.6263978 -0.137837E-03  0.299E-02    0.25       1.0  T
  11   -184.6264857 -0.878540E-04  0.176E-02    0.20       1.0  T
  12   -184.6265413 -0.556685E-04  0.674E-03    0.22       1.5  T
  13   -184.6265459 -0.459257E-05  0.289E-03    0.21       3.5  T
  14   -184.6265466 -0.710735E-06  0.107E-03    0.21       9.5  T
  15   -184.6265467 -0.187255E-07  0.693E-04    0.21      14.7  T
  16   -184.6265467 -0.474291E-07  0.281E-04    0.21      36.1  T

   *** convergence criteria satisfied after 16 iterations ***

         #    Occupation            Energy/Eh            Energy/eV
      -------------------------------------------------------------
         1        2.0000           -0.8467495             -23.0412
       ...           ...                  ...                  ...
       160        2.0000           -0.4016324             -10.9290
       161        2.0000           -0.4006277             -10.9016
       162        2.0000           -0.3961435             -10.7796
       163        2.0000           -0.3862877             -10.5114
       164        2.0000           -0.3844729             -10.4620
       165        1.9987           -0.3624018              -9.8615
       166        1.9688           -0.3593468              -9.7783 (HOMO)
       167        0.0325           -0.3515109              -9.5651 (LUMO)
       168                         -0.3394216              -9.2361
       169                         -0.3253034              -8.8520
       170                         -0.3214231              -8.7464
       171                         -0.3003123              -8.1719
       ...                                ...                  ...
       325                          1.1112193              30.2378
      -------------------------------------------------------------
                  HL-Gap            0.0078359 Eh            0.2132 eV
             Fermi-level           -0.3554096 Eh           -9.6712 eV

 SCC (total)                   0 d,  0 h,  0 min,  0.513 sec
 SCC setup                      ...        0 min,  0.003 sec (  0.506%)
 Dispersion                     ...        0 min,  0.006 sec (  1.173%)
 integral evaluation            ...        0 min,  0.053 sec ( 10.262%)
 zeroth order Hamiltonian       ...        0 min,  0.001 sec (  0.213%)
 iterations                     ...        0 min,  0.416 sec ( 81.052%)
 molecular gradient             ...        0 min,  0.033 sec (  6.514%)
 printout                       ...        0 min,  0.001 sec (  0.259%)

         :::::::::::::::::::::::::::::::::::::::::::::::::::::
         ::                     SUMMARY                     ::
         :::::::::::::::::::::::::::::::::::::::::::::::::::::
         :: total energy            -181.609183624067 Eh    ::
         :: gradient norm              0.188425494583 Eh/a0 ::
         :: HOMO-LUMO gap              0.213226282922 eV    ::
         ::.................................................::
         :: SCC energy              -184.626546711090 Eh    ::
         :: -> isotropic ES            0.104859797361 Eh    ::
         :: -> anisotropic ES          0.011122296019 Eh    ::
         :: -> anisotropic XC          0.133336930378 Eh    ::
         :: -> dispersion             -0.141280636293 Eh    ::
         :: repulsion energy           3.018577250483 Eh    ::
         :: add. restraining           0.000000000000 Eh    ::
         :::::::::::::::::::::::::::::::::::::::::::::::::::::

      ----------------------------------------------------------- 
     |                   =====================                   |
     |                        A N C O P T                        |
     |                   =====================                   |
     |               Approximate Normal Coordinate               |
     |                Rational Function Optimizer                |
      ----------------------------------------------------------- 

          ...................................................
          :                      SETUP                      :
          :.................................................:
          :   optimization level            normal          :
          :   max. optcycles                   291          :
          :   ANC micro-cycles                  20          :
          :   degrees of freedom               285          :
          :.................................................:
          :   RF solver                   davidson          :
          :   input Hessian                  false          :
          :   write xtbopt.log                true          :
          :   linear?                        false          :
          :   energy convergence         0.5000000E-05 Eh   :
          :   grad. convergence          0.1000000E-02 Eh/α :
          :   maximium RF displ.         2.0000000          :
          :   Hlow (freq-cutoff)         0.5000000E-02      :
          :   Hmax (freq-cutoff)         5.0000000          :
          :   S6 in model hess.         20.0000000          :
          ...................................................

generating ANC from model Hessian ...
Using Lindh-Hessian (1995)
 Shifting diagonal of input Hessian by   4.994149804397744E-003
 Lowest  eigenvalues of input Hessian
   -0.000000   -0.000000   -0.000000    0.000000    0.000000    0.000000
    0.005000    0.005005    0.005052    0.005076    0.005100    0.005123
    0.005140    0.005251    0.005403    0.005429    0.005697    0.005824
 Highest eigenvalues
    2.264491    2.279905    2.511769    2.573716    2.580087    2.580169
 

........................................................................
.............................. CYCLE    1 ..............................
........................................................................
   1   -184.6265467 -0.184627E+03  0.153E-04    0.21       0.0  T
   2   -184.6265467  0.135606E-07  0.272E-04    0.21      37.4  T
   3   -184.6265467 -0.130016E-07  0.124E-04    0.21      82.1  T
     SCC iter.                  ...        0 min,  0.377 sec
     gradient                   ...        0 min,  0.064 sec
 * total energy  :  -181.6091836 Eh     change       -0.9518715E-09 Eh
   gradient norm :     0.1884196 Eh/α   predicted     0.0000000E+00 (-100.00%)
   displ. norm   :     0.3861850 α      lambda       -0.4144503E-01
   maximum displ.:     0.1005311 α      in ANC's #170, #57, #50, ...

........................................................................
.............................. CYCLE    2 ..............................
........................................................................
   1   -184.7095865 -0.184710E+03  0.295E-01    0.14       0.0  T
   2   -184.7006167  0.896984E-02  0.310E-01    0.66       1.0  T
   3   -184.7152872 -0.146706E-01  0.134E-01    0.29       1.0  T
   4   -184.7071046  0.818266E-02  0.179E-01    0.12       1.0  T
   5   -184.7146322 -0.752764E-02  0.842E-02    0.34       1.0  T
   6   -184.7155941 -0.961891E-03  0.503E-02    0.31       1.0  T
   7   -184.7158563 -0.262192E-03  0.338E-02    0.27       1.0  T
   8   -184.7160483 -0.192005E-03  0.173E-02    0.23       1.0  T
   9   -184.7160996 -0.513110E-04  0.526E-03    0.21       1.9  T
  10   -184.7161009 -0.126836E-05  0.246E-03    0.21       4.1  T
  11   -184.7161007  0.181485E-06  0.174E-03    0.21       5.8  T
     SCC iter.                  ...        0 min,  0.526 sec
     gradient                   ...        0 min,  0.041 sec
 * total energy  :  -181.6378878 Eh     change       -0.2870419E-01 Eh
   gradient norm :     0.0802728 Eh/α   predicted    -0.2381310E-01 ( -17.04%)
   displ. norm   :     0.4456984 α      lambda       -0.1584126E-01
   maximum displ.:     0.1430417 α      in ANC's #50, #57, #52, ...

........................................................................
.............................. CYCLE    3 ..............................
........................................................................
   1   -184.7322121 -0.184732E+03  0.268E-01    0.14       0.0  T
   2   -184.7200271  0.121849E-01  0.324E-01    0.64       1.0  T
   3   -184.7377053 -0.176781E-01  0.126E-01    0.29       1.0  T
   4   -184.7285227  0.918256E-02  0.192E-01    0.12       1.0  T
   5   -184.7371221 -0.859940E-02  0.834E-02    0.33       1.0  T
   6   -184.7379075 -0.785354E-03  0.552E-02    0.30       1.0  T
   7   -184.7382086 -0.301092E-03  0.392E-02    0.26       1.0  T
   8   -184.7384697 -0.261139E-03  0.214E-02    0.22       1.0  T
   9   -184.7385626 -0.928772E-04  0.554E-03    0.20       1.8  T
  10   -184.7385640 -0.142499E-05  0.288E-03    0.20       3.5  T
  11   -184.7385640  0.170920E-07  0.193E-03    0.20       5.3  T
     SCC iter.                  ...        0 min,  0.506 sec
     gradient                   ...        0 min,  0.024 sec
 * total energy  :  -181.6476239 Eh     change       -0.9736058E-02 Eh
   gradient norm :     0.0294999 Eh/α   predicted    -0.9494045E-02 (  -2.49%)
   displ. norm   :     0.5599558 α      lambda       -0.6700588E-02
   maximum displ.:     0.1947916 α      in ANC's #23, #32, #29, ...

........................................................................
.............................. CYCLE    4 ..............................
........................................................................
   1   -184.7246609 -0.184725E+03  0.359E-01    0.16       0.0  T
   2   -184.7162398  0.842111E-02  0.289E-01    0.41       1.0  T
   3   -184.6047633  0.111476E+00  0.674E-01    0.07       1.0  T
   4   -184.7192843 -0.114521E+00  0.213E-01    0.50       1.0  T
   5   -184.7219165 -0.263218E-02  0.150E-01    0.44       1.0  T
   6   -184.7234539 -0.153739E-02  0.122E-01    0.40       1.0  T
   7   -184.7245997 -0.114588E-02  0.994E-02    0.37       1.0  T
   8   -184.7254274 -0.827649E-03  0.772E-02    0.31       1.0  T
   9   -184.7264321 -0.100467E-02  0.412E-02    0.22       1.0  T
  10   -184.7267831 -0.351006E-03  0.158E-02    0.20       1.0  T
  11   -184.7267941 -0.110613E-04  0.123E-02    0.20       1.0  T
  12   -184.7268120 -0.178633E-04  0.578E-03    0.19       1.8  T
  13   -184.7268122 -0.183106E-06  0.452E-03    0.20       2.2  T
  14   -184.7268154 -0.325593E-05  0.248E-03    0.19       4.1  T
     SCC iter.                  ...        0 min,  0.579 sec
     gradient                   ...        0 min,  0.026 sec
 * total energy  :  -181.6467060 Eh     change        0.9178619E-03 Eh
   gradient norm :     0.0681047 Eh/α   predicted    -0.4400787E-02 (-579.46%)
   displ. norm   :     0.4031323 α      lambda       -0.1196068E-01
   maximum displ.:     0.1635729 α      in ANC's #5, #25, #21, ...

........................................................................
.............................. CYCLE    5 ..............................
........................................................................
   1   -184.7483729 -0.184748E+03  0.296E-01    0.18       0.0  T
   2   -184.7449143  0.345855E-02  0.205E-01    0.29       1.0  T
   3   -184.5277630  0.217151E+00  0.852E-01    0.02       1.0  T
   4   -184.7460059 -0.218243E+00  0.163E-01    0.34       1.0  T
   5   -184.7474662 -0.146035E-02  0.854E-02    0.35       1.0  T
   6   -184.7476451 -0.178851E-03  0.759E-02    0.35       1.0  T
   7   -184.7479388 -0.293698E-03  0.664E-02    0.34       1.0  T
   8   -184.7482466 -0.307821E-03  0.550E-02    0.30       1.0  T
   9   -184.7485388 -0.292199E-03  0.422E-02    0.26       1.0  T
  10   -184.7488852 -0.346373E-03  0.214E-02    0.22       1.0  T
  11   -184.7489946 -0.109475E-03  0.471E-03    0.19       2.2  T
  12   -184.7489615  0.331300E-04  0.117E-02    0.21       1.0  T
  13   -184.7489949 -0.333599E-04  0.254E-03    0.19       4.0  T
  14   -184.7489952 -0.294114E-06  0.144E-03    0.19       7.0  T
  15   -184.7489956 -0.462081E-06  0.458E-04    0.19      22.2  T
     SCC iter.                  ...        0 min,  1.934 sec
     gradient                   ...        0 min,  0.036 sec
 * total energy  :  -181.6518951 Eh     change       -0.5189095E-02 Eh
   gradient norm :     0.0338313 Eh/α   predicted    -0.6952251E-02 (  33.98%)
   displ. norm   :     0.2882834 α      lambda       -0.2186484E-02
   maximum displ.:     0.1082990 α      in ANC's #23, #24, #29, ...

........................................................................
.............................. CYCLE    6 ..............................
........................................................................
   1   -184.7402790 -0.184740E+03  0.130E-01    0.20       0.0  T
   2   -184.7402729  0.612648E-05  0.730E-02    0.19       1.0  T
   3   -184.7388663  0.140657E-02  0.893E-02    0.19       1.0  T
   4   -184.7394672 -0.600863E-03  0.607E-02    0.23       1.0  T
   5   -184.7402950 -0.827788E-03  0.126E-02    0.18       1.0  T
   6   -184.7402900  0.496337E-05  0.122E-02    0.21       1.0  T
   7   -184.7403232 -0.331860E-04  0.385E-03    0.19       2.6  T
   8   -184.7403258 -0.257915E-05  0.127E-03    0.19       8.0  T
   9   -184.7403259 -0.110526E-06  0.700E-04    0.19      14.5  T
     SCC iter.                  ...        0 min,  0.523 sec
     gradient                   ...        0 min,  0.057 sec
 * total energy  :  -181.6531197 Eh     change       -0.1224620E-02 Eh
   gradient norm :     0.0164259 Eh/α   predicted    -0.1184100E-02 (  -3.31%)
   displ. norm   :     0.4721465 α      lambda       -0.2020662E-02
   maximum displ.:     0.2419348 α      in ANC's #23, #29, #25, ...

........................................................................
.............................. CYCLE    7 ..............................
........................................................................
   1   -184.7418994 -0.184742E+03  0.190E-01    0.18       0.0  T
   2   -184.7398822  0.201719E-02  0.142E-01    0.25       1.0  T
   3   -184.6531390  0.867431E-01  0.545E-01    0.05       1.0  T
   4   -184.7403744 -0.872354E-01  0.113E-01    0.33       1.0  T
   5   -184.7412003 -0.825880E-03  0.644E-02    0.33       1.0  T
   6   -184.7413178 -0.117537E-03  0.564E-02    0.30       1.0  T
   7   -184.7415756 -0.257812E-03  0.466E-02    0.27       1.0  T
   8   -184.7418327 -0.257042E-03  0.339E-02    0.24       1.0  T
   9   -184.7420397 -0.207054E-03  0.192E-02    0.22       1.0  T
  10   -184.7421259 -0.861847E-04  0.702E-03    0.20       1.4  T
  11   -184.7421354 -0.951027E-05  0.238E-03    0.19       4.3  T
  12   -184.7421362 -0.783710E-06  0.149E-03    0.19       6.8  T
  13   -184.7421365 -0.252980E-06  0.536E-04    0.19      19.0  T
     SCC iter.                  ...        0 min,  0.939 sec
     gradient                   ...        0 min,  0.044 sec
 * total energy  :  -181.6544231 Eh     change       -0.1303369E-02 Eh
   gradient norm :     0.0241807 Eh/α   predicted    -0.1235559E-02 (  -5.20%)
   displ. norm   :     0.5323317 α      lambda       -0.1940057E-02
   maximum displ.:     0.2248821 α      in ANC's #23, #29, #24, ...

........................................................................
.............................. CYCLE    8 ..............................
........................................................................
   1   -184.7433653 -0.184743E+03  0.202E-01    0.18       0.0  T
   2   -184.7400873  0.327803E-02  0.165E-01    0.27       1.0  T
   3   -184.6729987  0.670886E-01  0.491E-01    0.06       1.0  T
   4   -184.7415602 -0.685615E-01  0.125E-01    0.35       1.0  T
   5   -184.7424584 -0.898177E-03  0.760E-02    0.35       1.0  T
   6   -184.7426222 -0.163874E-03  0.672E-02    0.33       1.0  T
   7   -184.7429537 -0.331496E-03  0.562E-02    0.30       1.0  T
   8   -184.7432804 -0.326627E-03  0.424E-02    0.26       1.0  T
   9   -184.7435834 -0.303078E-03  0.254E-02    0.22       1.0  T
  10   -184.7437400 -0.156605E-03  0.784E-03    0.20       1.3  T
  11   -184.7437503 -0.102500E-04  0.333E-03    0.19       3.0  T
  12   -184.7437473  0.296794E-05  0.443E-03    0.20       2.3  T
  13   -184.7437523 -0.500878E-05  0.114E-03    0.19       8.9  T
     SCC iter.                  ...        0 min,  0.728 sec
     gradient                   ...        0 min,  0.041 sec
 * total energy  :  -181.6556892 Eh     change       -0.1266146E-02 Eh
   gradient norm :     0.0163882 Eh/α   predicted    -0.1244916E-02 (  -1.68%)
   displ. norm   :     0.4762458 α      lambda       -0.1445827E-02
   maximum displ.:     0.2026492 α      in ANC's #23, #24, #14, ...

........................................................................
.............................. CYCLE    9 ..............................
........................................................................
   1   -184.7508144 -0.184751E+03  0.174E-01    0.18       0.0  T
   2   -184.7493450  0.146941E-02  0.125E-01    0.24       1.0  T
   3   -184.6610539  0.882911E-01  0.540E-01    0.06       1.0  T
   4   -184.7490842 -0.880303E-01  0.114E-01    0.32       1.0  T
   5   -184.7502248 -0.114053E-02  0.566E-02    0.29       1.0  T
   6   -184.7503203 -0.955676E-04  0.491E-02    0.28       1.0  T
   7   -184.7505537 -0.233365E-03  0.393E-02    0.25       1.0  T
   8   -184.7507672 -0.213489E-03  0.272E-02    0.23       1.0  T
   9   -184.7509056 -0.138451E-03  0.150E-02    0.21       1.0  T
  10   -184.7509614 -0.557604E-04  0.454E-03    0.20       2.2  T
  11   -184.7509638 -0.241009E-05  0.239E-03    0.19       4.3  T
  12   -184.7509651 -0.134082E-05  0.934E-04    0.19      10.9  T
     SCC iter.                  ...        0 min,  0.396 sec
     gradient                   ...        0 min,  0.040 sec
 * total energy  :  -181.6568097 Eh     change       -0.1120420E-02 Eh
   gradient norm :     0.0159053 Eh/α   predicted    -0.8868786E-03 ( -20.84%)
   displ. norm   :     0.6521014 α      lambda       -0.2066564E-02
   maximum displ.:     0.2347758 α      in ANC's #24, #14, #23, ...

........................................................................
.............................. CYCLE   10 ..............................
........................................................................
   1   -184.7581789 -0.184758E+03  0.236E-01    0.18       0.0  T
   2   -184.7553758  0.280311E-02  0.170E-01    0.28       1.0  T
   3   -184.5613355  0.194040E+00  0.780E-01    0.05       1.0  T
   4   -184.7538100 -0.192474E+00  0.180E-01    0.31       1.0  T
   5   -184.7570765 -0.326651E-02  0.813E-02    0.34       1.0  T
   6   -184.7573353 -0.258741E-03  0.686E-02    0.33       1.0  T
   7   -184.7576461 -0.310838E-03  0.589E-02    0.31       1.0  T
   8   -184.7578742 -0.228091E-03  0.504E-02    0.29       1.0  T
   9   -184.7580507 -0.176507E-03  0.420E-02    0.26       1.0  T
  10   -184.7582211 -0.170379E-03  0.331E-02    0.24       1.0  T
  11   -184.7585065 -0.285455E-03  0.507E-03    0.20       2.0  T
  12   -184.7585084 -0.190302E-05  0.293E-03    0.19       3.5  T
  13   -184.7585090 -0.598801E-06  0.161E-03    0.19       6.3  T
     SCC iter.                  ...        0 min,  0.865 sec
     gradient                   ...        0 min,  0.063 sec
 * total energy  :  -181.6583884 Eh     change       -0.1578706E-02 Eh
   gradient norm :     0.0154509 Eh/α   predicted    -0.1472676E-02 (  -6.72%)
   displ. norm   :     0.7016269 α      lambda       -0.2193800E-02
   maximum displ.:     0.2703457 α      in ANC's #14, #24, #23, ...

........................................................................
.............................. CYCLE   11 ..............................
........................................................................
   1   -184.7520627 -0.184752E+03  0.256E-01    0.17       0.0  T
   2   -184.7498992  0.216350E-02  0.168E-01    0.29       1.0  T
   3   -184.3866559  0.363243E+00  0.104E+00    0.09       1.0  T
   4   -184.7408810 -0.354225E+00  0.248E-01    0.27       1.0  T
   5   -184.7506259 -0.974489E-02  0.882E-02    0.33       1.0  T
   6   -184.7511709 -0.544942E-03  0.685E-02    0.32       1.0  T
   7   -184.7514959 -0.325077E-03  0.589E-02    0.30       1.0  T
   8   -184.7517044 -0.208455E-03  0.525E-02    0.29       1.0  T
   9   -184.7518343 -0.129862E-03  0.464E-02    0.27       1.0  T
  10   -184.7519337 -0.994163E-04  0.415E-02    0.26       1.0  T
  11   -184.7520082 -0.745034E-04  0.376E-02    0.25       1.0  T
  12   -184.7522950 -0.286780E-03  0.166E-02    0.21       1.0  T
  13   -184.7522567  0.382214E-04  0.186E-02    0.17       1.0  T
  14   -184.7523626 -0.105832E-03  0.154E-03    0.19       6.6  T
  15   -184.7523626 -0.635979E-07  0.108E-03    0.19       9.4  T
  16   -184.7523627 -0.110617E-06  0.805E-04    0.19      12.6  T
     SCC iter.                  ...        0 min,  0.918 sec
     gradient                   ...        0 min,  0.048 sec
 * total energy  :  -181.6601044 Eh     change       -0.1716077E-02 Eh
   gradient norm :     0.0166484 Eh/α   predicted    -0.1636882E-02 (  -4.61%)
   displ. norm   :     0.6744488 α      lambda       -0.2663697E-02
   maximum displ.:     0.2871674 α      in ANC's #14, #32, #24, ...

........................................................................
.............................. CYCLE   12 ..............................
........................................................................
   1   -184.7575564 -0.184758E+03  0.235E-01    0.19       0.0  T
   2   -184.7573362  0.220231E-03  0.135E-01    0.19       1.0  T
   3   -184.7482030  0.913314E-02  0.218E-01    0.31       1.0  T
   4   -184.7571299 -0.892688E-02  0.433E-02    0.16       1.0  T
   5   -184.7571090  0.208858E-04  0.453E-02    0.24       1.0  T
   6   -184.7576328 -0.523738E-03  0.129E-02    0.20       1.0  T
   7   -184.7576560 -0.232328E-04  0.454E-03    0.19       2.2  T
   8   -184.7576573 -0.130862E-05  0.260E-03    0.19       3.9  T
   9   -184.7576579 -0.634759E-06  0.109E-03    0.19       9.3  T
     SCC iter.                  ...        0 min,  0.651 sec
     gradient                   ...        0 min,  0.045 sec
 * total energy  :  -181.6615684 Eh     change       -0.1463983E-02 Eh
   gradient norm :     0.0256294 Eh/α   predicted    -0.1937685E-02 (  32.36%)
   displ. norm   :     0.7067136 α      lambda       -0.2849170E-02
   maximum displ.:     0.2828022 α      in ANC's #14, #28, #24, ...

........................................................................
.............................. CYCLE   13 ..............................
........................................................................
   1   -184.7415750 -0.184742E+03  0.244E-01    0.17       0.0  T
   2   -184.7374607  0.411426E-02  0.187E-01    0.31       1.0  T
   3   -184.5113204  0.226140E+00  0.835E-01    0.11       1.0  T
   4   -184.7386389 -0.227318E+00  0.152E-01    0.32       1.0  T
   5   -184.7392589 -0.619986E-03  0.104E-01    0.34       1.0  T
   6   -184.7399791 -0.720222E-03  0.899E-02    0.32       1.0  T
   7   -184.7403313 -0.352250E-03  0.800E-02    0.31       1.0  T
   8   -184.7408884 -0.557093E-03  0.660E-02    0.28       1.0  T
   9   -184.7411499 -0.261474E-03  0.576E-02    0.27       1.0  T
  10   -184.7415169 -0.367022E-03  0.441E-02    0.25       1.0  T
  11   -184.7420561 -0.539180E-03  0.597E-03    0.20       1.7  T
  12   -184.7420517  0.439905E-05  0.575E-03    0.19       1.8  T
  13   -184.7420435  0.823469E-05  0.765E-03    0.20       1.3  T
  14   -184.7420580 -0.145590E-04  0.276E-03    0.19       3.7  T
  15   -184.7420604 -0.234206E-05  0.385E-04    0.19      26.4  T
     SCC iter.                  ...        0 min,  0.638 sec
     gradient                   ...        0 min,  0.055 sec
 * total energy  :  -181.6631385 Eh     change       -0.1570031E-02 Eh
   gradient norm :     0.0302552 Eh/α   predicted    -0.2136089E-02 (  36.05%)
   displ. norm   :     0.4176416 α      lambda       -0.3315430E-02
   maximum displ.:     0.1768791 α      in ANC's #14, #28, #29, ...

........................................................................
.............................. CYCLE   14 ..............................
........................................................................
   1   -184.7533836 -0.184753E+03  0.138E-01    0.19       0.0  T
   2   -184.7531133  0.270322E-03  0.879E-02    0.22       1.0  T
   3   -184.6906131  0.625002E-01  0.432E-01    0.09       1.0  T
   4   -184.7508936 -0.602806E-01  0.107E-01    0.27       1.0  T
   5   -184.7530005 -0.210690E-02  0.451E-02    0.24       1.0  T
   6   -184.7529854  0.151310E-04  0.412E-02    0.23       1.0  T
   7   -184.7532287 -0.243287E-03  0.297E-02    0.22       1.0  T
   8   -184.7533511 -0.122407E-03  0.215E-02    0.22       1.0  T
   9   -184.7534488 -0.976953E-04  0.117E-02    0.20       1.0  T
  10   -184.7534807 -0.318678E-04  0.540E-03    0.20       1.9  T
  11   -184.7534885 -0.783263E-05  0.114E-03    0.19       8.9  T
  12   -184.7534880  0.512054E-06  0.147E-03    0.19       6.9  T
  13   -184.7534885 -0.538943E-06  0.683E-04    0.19      14.9  T
     SCC iter.                  ...        0 min,  1.536 sec
     gradient                   ...        0 min,  0.065 sec
 * total energy  :  -181.6636665 Eh     change       -0.5280270E-03 Eh
   gradient norm :     0.0411259 Eh/α   predicted    -0.1946862E-02 ( 268.71%)
   displ. norm   :     0.4122529 α      lambda       -0.3767210E-02
   maximum displ.:     0.1752425 α      in ANC's #14, #8, #31, ...

........................................................................
.............................. CYCLE   15 ..............................
........................................................................
   1   -184.7491175 -0.184749E+03  0.141E-01    0.18       0.0  T
   2   -184.7448757  0.424180E-02  0.150E-01    0.28       1.0  T
   3   -184.7215052  0.233706E-01  0.305E-01    0.12       1.0  T
   4   -184.7468758 -0.253707E-01  0.112E-01    0.30       1.0  T
   5   -184.7477919 -0.916026E-03  0.771E-02    0.28       1.0  T
   6   -184.7485277 -0.735841E-03  0.582E-02    0.25       1.0  T
   7   -184.7490481 -0.520382E-03  0.393E-02    0.23       1.0  T
   8   -184.7494249 -0.376799E-03  0.164E-02    0.21       1.0  T
   9   -184.7494960 -0.711561E-04  0.330E-03    0.19       3.1  T
  10   -184.7494959  0.927639E-07  0.241E-03    0.20       4.2  T
  11   -184.7494965 -0.591630E-06  0.105E-03    0.19       9.7  T
     SCC iter.                  ...        0 min,  0.464 sec
     gradient                   ...        0 min,  0.044 sec
 * total energy  :  -181.6659154 Eh     change       -0.2248925E-02 Eh
   gradient norm :     0.0252308 Eh/α   predicted    -0.2203733E-02 (  -2.01%)
   displ. norm   :     0.4592396 α      lambda       -0.4329119E-02
   maximum displ.:     0.1824422 α      in ANC's #14, #11, #73, ...

........................................................................
.............................. CYCLE   16 ..............................
........................................................................
   1   -184.7598130 -0.184760E+03  0.182E-01    0.19       0.0  T
   2   -184.7596549  0.158056E-03  0.105E-01    0.21       1.0  T
   3   -184.7028705  0.567844E-01  0.429E-01    0.12       1.0  T
   4   -184.7580099 -0.551394E-01  0.905E-02    0.27       1.0  T
   5   -184.7595424 -0.153252E-02  0.398E-02    0.23       1.0  T
   6   -184.7597649 -0.222436E-03  0.277E-02    0.21       1.0  T
   7   -184.7599258 -0.160964E-03  0.124E-02    0.20       1.0  T
   8   -184.7599583 -0.324489E-04  0.391E-03    0.20       2.6  T
   9   -184.7599579  0.436481E-06  0.307E-03    0.20       3.3  T
  10   -184.7599588 -0.981681E-06  0.189E-03    0.19       5.4  T
     SCC iter.                  ...        0 min,  0.323 sec
     gradient                   ...        0 min,  0.041 sec
 * total energy  :  -181.6635810 Eh     change        0.2334445E-02 Eh
   gradient norm :     0.0676677 Eh/α   predicted    -0.2621075E-02 (-212.28%)
   displ. norm   :     0.3061822 α      lambda       -0.8182329E-02
   maximum displ.:     0.1131555 α      in ANC's #14, #51, #30, ...

........................................................................
.............................. CYCLE   17 ..............................
........................................................................
   1   -184.7538056 -0.184754E+03  0.123E-01    0.18       0.0  T
   2   -184.7513561  0.244948E-02  0.117E-01    0.26       1.0  T
   3   -184.7138179  0.375382E-01  0.357E-01    0.12       1.0  T
   4   -184.7524011 -0.385832E-01  0.880E-02    0.27       1.0  T
   5   -184.7527529 -0.351756E-03  0.662E-02    0.25       1.0  T
   6   -184.7533486 -0.595712E-03  0.476E-02    0.23       1.0  T
   7   -184.7537966 -0.448019E-03  0.274E-02    0.21       1.0  T
   8   -184.7539898 -0.193171E-03  0.815E-03    0.20       1.2  T
   9   -184.7540042 -0.143980E-04  0.281E-03    0.20       3.6  T
  10   -184.7540036  0.582979E-06  0.204E-03    0.19       5.0  T
  11   -184.7540046 -0.991807E-06  0.664E-04    0.19      15.3  T
     SCC iter.                  ...        0 min,  0.891 sec
     gradient                   ...        0 min,  0.072 sec
 * total energy  :  -181.6681324 Eh     change       -0.4551430E-02 Eh
   gradient norm :     0.0201021 Eh/α   predicted    -0.4474707E-02 (  -1.69%)
   displ. norm   :     0.6075107 α      lambda       -0.2403950E-02
   maximum displ.:     0.3073646 α      in ANC's #14, #28, #11, ...

........................................................................
.............................. CYCLE   18 ..............................
........................................................................
   1   -184.7490448 -0.184749E+03  0.223E-01    0.18       0.0  T
   2   -184.7442637  0.478103E-02  0.182E-01    0.29       1.0  T
   3   -184.5279007  0.216363E+00  0.816E-01    0.15       1.0  T
   4   -184.7456405 -0.217740E+00  0.144E-01    0.31       1.0  T
   5   -184.7459675 -0.326947E-03  0.110E-01    0.30       1.0  T
   6   -184.7470778 -0.111032E-02  0.919E-02    0.28       1.0  T
   7   -184.7476779 -0.600098E-03  0.779E-02    0.26       1.0  T
   8   -184.7484184 -0.740531E-03  0.603E-02    0.24       1.0  T
   9   -184.7489017 -0.483287E-03  0.441E-02    0.23       1.0  T
  10   -184.7493428 -0.441073E-03  0.209E-02    0.21       1.0  T
  11   -184.7494377 -0.949492E-04  0.913E-03    0.19       1.1  T
  12   -184.7494589 -0.211428E-04  0.411E-03    0.19       2.5  T
  13   -184.7494635 -0.457846E-05  0.840E-04    0.19      12.1  T
  14   -184.7494636 -0.139382E-06  0.296E-04    0.19      34.3  T
     SCC iter.                  ...        0 min,  0.831 sec
     gradient                   ...        0 min,  0.058 sec
 * total energy  :  -181.6691275 Eh     change       -0.9950673E-03 Eh
   gradient norm :     0.0359270 Eh/α   predicted    -0.1645593E-02 (  65.38%)
   displ. norm   :     0.4954514 α      lambda       -0.2738292E-02
   maximum displ.:     0.2526755 α      in ANC's #14, #8, #10, ...

........................................................................
.............................. CYCLE   19 ..............................
........................................................................
   1   -184.7512258 -0.184751E+03  0.159E-01    0.19       0.0  T
   2   -184.7474356  0.379020E-02  0.148E-01    0.26       1.0  T
   3   -184.6619178  0.855178E-01  0.524E-01    0.13       1.0  T
   4   -184.7484351 -0.865173E-01  0.116E-01    0.29       1.0  T
   5   -184.7490151 -0.579995E-03  0.911E-02    0.27       1.0  T
   6   -184.7500488 -0.103375E-02  0.701E-02    0.25       1.0  T
   7   -184.7506768 -0.628003E-03  0.517E-02    0.23       1.0  T
   8   -184.7511582 -0.481409E-03  0.334E-02    0.22       1.0  T
   9   -184.7514198 -0.261603E-03  0.149E-02    0.20       1.0  T
  10   -184.7514785 -0.586974E-04  0.393E-03    0.20       2.6  T
  11   -184.7514778  0.751913E-06  0.303E-03    0.19       3.4  T
  12   -184.7514802 -0.237142E-05  0.134E-03    0.19       7.6  T
     SCC iter.                  ...        0 min,  0.955 sec
     gradient                   ...        0 min,  0.044 sec
 * total energy  :  -181.6710388 Eh     change       -0.1911381E-02 Eh
   gradient norm :     0.0236956 Eh/α   predicted    -0.1705235E-02 ( -10.79%)
   displ. norm   :     0.5120278 α      lambda       -0.3170158E-02
   maximum displ.:     0.2303489 α      in ANC's #14, #10, #11, ...

........................................................................
.............................. CYCLE   20 ..............................
........................................................................
   1   -184.7636525 -0.184764E+03  0.221E-01    0.19       0.0  T
   2   -184.7622635  0.138892E-02  0.140E-01    0.23       1.0  T
   3   -184.4843392  0.277924E+00  0.908E-01    0.18       1.0  T
   4   -184.7619499 -0.277611E+00  0.106E-01    0.25       1.0  T
   5   -184.7625057 -0.555730E-03  0.667E-02    0.24       1.0  T
   6   -184.7631837 -0.678012E-03  0.476E-02    0.23       1.0  T
   7   -184.7634911 -0.307403E-03  0.332E-02    0.22       1.0  T
   8   -184.7636892 -0.198160E-03  0.214E-02    0.21       1.0  T
   9   -184.7637857 -0.964798E-04  0.105E-02    0.20       1.0  T
  10   -184.7638091 -0.233604E-04  0.270E-03    0.20       3.8  T
  11   -184.7638060  0.304358E-05  0.338E-03    0.19       3.0  T
  12   -184.7638088 -0.280849E-05  0.169E-03    0.19       6.0  T
     SCC iter.                  ...        0 min,  0.482 sec
     gradient                   ...        0 min,  0.071 sec
 * total energy  :  -181.6712525 Eh     change       -0.2136680E-03 Eh
   gradient norm :     0.0508648 Eh/α   predicted    -0.2000651E-02 ( 836.34%)
   displ. norm   :     0.4477220 α      lambda       -0.4272128E-02
   maximum displ.:     0.2394649 α      in ANC's #14, #28, #8, ...
 * RMSD in coord.:     0.7459849 α      energy gain  -0.6206889E-01 Eh

generating ANC from model Hessian ...
Using Lindh-Hessian (1995)
 Shifting diagonal of input Hessian by   4.988299068748633E-003
 Lowest  eigenvalues of input Hessian
   -0.000000    0.000000    0.000000    0.000000    0.000000    0.000000
    0.005000    0.005013    0.005052    0.005070    0.005104    0.005145
    0.005242    0.005361    0.005524    0.005668    0.005783    0.005852
 Highest eigenvalues
    2.277470    2.278868    2.598968    2.639787    2.640554    2.651093
 

........................................................................
.............................. CYCLE   21 ..............................
........................................................................
   1   -184.7629004 -0.184763E+03  0.168E-01    0.19       0.0  T
   2   -184.7598949  0.300551E-02  0.139E-01    0.25       1.0  T
   3   -184.6185283  0.141367E+00  0.662E-01    0.14       1.0  T
   4   -184.7604561 -0.141928E+00  0.113E-01    0.27       1.0  T
   5   -184.7609869 -0.530719E-03  0.836E-02    0.26       1.0  T
   6   -184.7619197 -0.932840E-03  0.636E-02    0.24       1.0  T
   7   -184.7624150 -0.495300E-03  0.475E-02    0.23       1.0  T
   8   -184.7628216 -0.406559E-03  0.310E-02    0.21       1.0  T
   9   -184.7630388 -0.217264E-03  0.148E-02    0.20       1.0  T
  10   -184.7630978 -0.589914E-04  0.283E-03    0.20       3.6  T
  11   -184.7630959  0.187851E-05  0.284E-03    0.19       3.6  T
  12   -184.7630980 -0.205579E-05  0.128E-03    0.19       8.0  T
  13   -184.7630984 -0.446075E-06  0.234E-04    0.19      43.4  T
  14   -184.7630984 -0.410830E-08  0.143E-04    0.19      71.1  T
     SCC iter.                  ...        0 min,  0.381 sec
     gradient                   ...        0 min,  0.044 sec
 * total energy  :  -181.6734964 Eh     change       -0.2243875E-02 Eh
   gradient norm :     0.0236960 Eh/α   predicted     0.0000000E+00 (-100.00%)
   displ. norm   :     0.3074233 α      lambda       -0.1568728E-02
   maximum displ.:     0.1837999 α      in ANC's #14, #31, #7, ...

........................................................................
.............................. CYCLE   22 ..............................
........................................................................
   1   -184.7638564 -0.184764E+03  0.125E-01    0.19       0.0  T
   2   -184.7638372  0.191836E-04  0.704E-02    0.20       1.0  T
   3   -184.7516276  0.122096E-01  0.197E-01    0.14       1.0  T
   4   -184.7634196 -0.117919E-01  0.418E-02    0.21       1.0  T
   5   -184.7638562 -0.436596E-03  0.117E-02    0.20       1.0  T
   6   -184.7638800 -0.238116E-04  0.598E-03    0.20       1.7  T
   7   -184.7638847 -0.466639E-05  0.234E-03    0.20       4.3  T
   8   -184.7638851 -0.479439E-06  0.112E-03    0.19       9.1  T
     SCC iter.                  ...        0 min,  0.553 sec
     gradient                   ...        0 min,  0.045 sec
 * total energy  :  -181.6744943 Eh     change       -0.9979493E-03 Eh
   gradient norm :     0.0089823 Eh/α   predicted    -0.8584937E-03 ( -13.97%)
   displ. norm   :     0.4143499 α      lambda       -0.1723959E-02
   maximum displ.:     0.2054601 α      in ANC's #14, #31, #37, ...

........................................................................
.............................. CYCLE   23 ..............................
........................................................................
   1   -184.7642670 -0.184764E+03  0.190E-01    0.19       0.0  T
   2   -184.7630880  0.117899E-02  0.124E-01    0.23       1.0  T
   3   -184.5242088  0.238879E+00  0.842E-01    0.17       1.0  T
   4   -184.7629218 -0.238713E+00  0.929E-02    0.25       1.0  T
   5   -184.7635243 -0.602463E-03  0.538E-02    0.23       1.0  T
   6   -184.7639550 -0.430762E-03  0.388E-02    0.22       1.0  T
   7   -184.7641267 -0.171625E-03  0.293E-02    0.22       1.0  T
   8   -184.7642946 -0.167899E-03  0.184E-02    0.21       1.0  T
   9   -184.7643591 -0.645642E-04  0.993E-03    0.20       1.0  T
  10   -184.7643795 -0.203856E-04  0.398E-03    0.20       2.6  T
  11   -184.7643810 -0.150901E-05  0.176E-03    0.20       5.8  T
  12   -184.7643814 -0.395995E-06  0.130E-03    0.20       7.8  T
     SCC iter.                  ...        0 min,  0.521 sec
     gradient                   ...        0 min,  0.045 sec
 * total energy  :  -181.6748303 Eh     change       -0.3359518E-03 Eh
   gradient norm :     0.0262881 Eh/α   predicted    -0.1009970E-02 ( 200.63%)
   displ. norm   :     0.2989468 α      lambda       -0.1639004E-02
   maximum displ.:     0.1476370 α      in ANC's #14, #31, #37, ...

........................................................................
.............................. CYCLE   24 ..............................
........................................................................
   1   -184.7628672 -0.184763E+03  0.165E-01    0.20       0.0  T
   2   -184.7624307  0.436432E-03  0.995E-02    0.22       1.0  T
   3   -184.6062135  0.156217E+00  0.685E-01    0.15       1.0  T
   4   -184.7621870 -0.155974E+00  0.613E-02    0.23       1.0  T
   5   -184.7625401 -0.353091E-03  0.360E-02    0.22       1.0  T
   6   -184.7627850 -0.244925E-03  0.227E-02    0.21       1.0  T
   7   -184.7628758 -0.907638E-04  0.137E-02    0.21       1.0  T
   8   -184.7629183 -0.425188E-04  0.706E-03    0.20       1.4  T
   9   -184.7629289 -0.105765E-04  0.264E-03    0.20       3.8  T
  10   -184.7629295 -0.639393E-06  0.132E-03    0.20       7.7  T
  11   -184.7629296 -0.129949E-07  0.923E-04    0.20      11.0  T
     SCC iter.                  ...        0 min,  1.141 sec
     gradient                   ...        0 min,  0.045 sec
 * total energy  :  -181.6753876 Eh     change       -0.5572908E-03 Eh
   gradient norm :     0.0209814 Eh/α   predicted    -0.8927430E-03 (  60.19%)
   displ. norm   :     0.2673631 α      lambda       -0.1812550E-02
   maximum displ.:     0.1466444 α      in ANC's #14, #7, #10, ...

........................................................................
.............................. CYCLE   25 ..............................
........................................................................
   1   -184.7609474 -0.184761E+03  0.159E-01    0.19       0.0  T
   2   -184.7586327  0.231473E-02  0.127E-01    0.24       1.0  T
   3   -184.6305232  0.128110E+00  0.628E-01    0.14       1.0  T
   4   -184.7588270 -0.128304E+00  0.105E-01    0.27       1.0  T
   5   -184.7594570 -0.629997E-03  0.735E-02    0.25       1.0  T
   6   -184.7602071 -0.750095E-03  0.549E-02    0.23       1.0  T
   7   -184.7606184 -0.411349E-03  0.399E-02    0.22       1.0  T
   8   -184.7608867 -0.268233E-03  0.270E-02    0.22       1.0  T
   9   -184.7610430 -0.156334E-03  0.140E-02    0.21       1.0  T
  10   -184.7610947 -0.517076E-04  0.337E-03    0.20       3.0  T
  11   -184.7610954 -0.684115E-06  0.198E-03    0.20       5.1  T
  12   -184.7610960 -0.619157E-06  0.136E-03    0.20       7.5  T
     SCC iter.                  ...        0 min,  0.348 sec
     gradient                   ...        0 min,  0.063 sec
 * total energy  :  -181.6760120 Eh     change       -0.6243988E-03 Eh
   gradient norm :     0.0159826 Eh/α   predicted    -0.9710578E-03 (  55.52%)
   displ. norm   :     0.2540880 α      lambda       -0.9295412E-03
   maximum displ.:     0.1527356 α      in ANC's #14, #7, #16, ...

........................................................................
.............................. CYCLE   26 ..............................
........................................................................
   1   -184.7638518 -0.184764E+03  0.994E-02    0.20       0.0  T
   2   -184.7628601  0.991646E-03  0.819E-02    0.23       1.0  T
   3   -184.7205359  0.423242E-01  0.366E-01    0.14       1.0  T
   4   -184.7628397 -0.423038E-01  0.637E-02    0.24       1.0  T
   5   -184.7633821 -0.542397E-03  0.412E-02    0.22       1.0  T
   6   -184.7636881 -0.306046E-03  0.268E-02    0.21       1.0  T
   7   -184.7638161 -0.127923E-03  0.169E-02    0.21       1.0  T
   8   -184.7638848 -0.687748E-04  0.808E-03    0.20       1.3  T
   9   -184.7639012 -0.163740E-04  0.226E-03    0.20       4.5  T
  10   -184.7639020 -0.819490E-06  0.891E-04    0.20      11.4  T
  11   -184.7639021 -0.443537E-07  0.383E-04    0.20      26.5  T
     SCC iter.                  ...        0 min,  0.931 sec
     gradient                   ...        0 min,  0.049 sec
 * total energy  :  -181.6766171 Eh     change       -0.6051365E-03 Eh
   gradient norm :     0.0079234 Eh/α   predicted    -0.4947767E-03 ( -18.24%)
   displ. norm   :     0.4382781 α      lambda       -0.9536965E-03
   maximum displ.:     0.2726455 α      in ANC's #14, #7, #31, ...

........................................................................
.............................. CYCLE   27 ..............................
........................................................................
   1   -184.7644071 -0.184764E+03  0.170E-01    0.20       0.0  T
   2   -184.7614806  0.292642E-02  0.141E-01    0.25       1.0  T
   3   -184.6322224  0.129258E+00  0.633E-01    0.15       1.0  T
   4   -184.7619716 -0.129749E+00  0.114E-01    0.28       1.0  T
   5   -184.7626851 -0.713435E-03  0.793E-02    0.26       1.0  T
   6   -184.7635164 -0.831391E-03  0.602E-02    0.24       1.0  T
   7   -184.7639635 -0.447060E-03  0.454E-02    0.23       1.0  T
   8   -184.7642941 -0.330572E-03  0.317E-02    0.22       1.0  T
   9   -184.7644769 -0.182840E-03  0.191E-02    0.21       1.0  T
  10   -184.7645661 -0.891711E-04  0.684E-03    0.21       1.5  T
  11   -184.7645751 -0.902555E-05  0.239E-03    0.20       4.3  T
  12   -184.7645760 -0.863545E-06  0.173E-03    0.20       5.9  T
  13   -184.7645768 -0.791053E-06  0.536E-04    0.20      18.9  T
     SCC iter.                  ...        0 min,  0.800 sec
     gradient                   ...        0 min,  0.059 sec
 * total energy  :  -181.6770371 Eh     change       -0.4199499E-03 Eh
   gradient norm :     0.0122346 Eh/α   predicted    -0.5684456E-03 (  35.36%)
   displ. norm   :     0.3928070 α      lambda       -0.8234989E-03
   maximum displ.:     0.2517824 α      in ANC's #14, #7, #16, ...

........................................................................
.............................. CYCLE   28 ..............................
........................................................................
   1   -184.7665716 -0.184767E+03  0.132E-01    0.20       0.0  T
   2   -184.7638411  0.273048E-02  0.125E-01    0.25       1.0  T
   3   -184.7154650  0.483761E-01  0.400E-01    0.15       1.0  T
   4   -184.7643245 -0.488595E-01  0.100E-01    0.27       1.0  T
   5   -184.7652842 -0.959718E-03  0.688E-02    0.25       1.0  T
   6   -184.7660550 -0.770734E-03  0.473E-02    0.23       1.0  T
   7   -184.7664415 -0.386483E-03  0.303E-02    0.22       1.0  T
   8   -184.7666347 -0.193201E-03  0.169E-02    0.21       1.0  T
   9   -184.7667056 -0.709073E-04  0.548E-03    0.21       1.9  T
  10   -184.7667116 -0.605044E-05  0.158E-03    0.20       6.4  T
  11   -184.7667116  0.400152E-07  0.829E-04    0.20      12.2  T
  12   -184.7667118 -0.183039E-06  0.323E-04    0.20      31.4  T
     SCC iter.                  ...        0 min,  0.571 sec
     gradient                   ...        0 min,  0.044 sec
 * total energy  :  -181.6775949 Eh     change       -0.5578220E-03 Eh
   gradient norm :     0.0112532 Eh/α   predicted    -0.4752822E-03 ( -14.80%)
   displ. norm   :     0.5032716 α      lambda       -0.9558801E-03
   maximum displ.:     0.3136052 α      in ANC's #14, #7, #10, ...

........................................................................
.............................. CYCLE   29 ..............................
........................................................................
   1   -184.7641743 -0.184764E+03  0.186E-01    0.20       0.0  T
   2   -184.7622701  0.190421E-02  0.133E-01    0.24       1.0  T
   3   -184.5776961  0.184574E+00  0.748E-01    0.17       1.0  T
   4   -184.7622776 -0.184582E+00  0.107E-01    0.27       1.0  T
   5   -184.7630157 -0.738029E-03  0.657E-02    0.25       1.0  T
   6   -184.7636827 -0.667053E-03  0.469E-02    0.23       1.0  T
   7   -184.7640102 -0.327466E-03  0.321E-02    0.22       1.0  T
   8   -184.7642047 -0.194558E-03  0.200E-02    0.22       1.0  T
   9   -184.7642855 -0.807160E-04  0.944E-03    0.21       1.1  T
  10   -184.7643032 -0.177939E-04  0.266E-03    0.21       3.8  T
  11   -184.7643020  0.127046E-05  0.235E-03    0.20       4.3  T
  12   -184.7643032 -0.126498E-05  0.128E-03    0.21       7.9  T
     SCC iter.                  ...        0 min,  0.419 sec
     gradient                   ...        0 min,  0.049 sec
 * total energy  :  -181.6779645 Eh     change       -0.3695755E-03 Eh
   gradient norm :     0.0127976 Eh/α   predicted    -0.5989934E-03 (  62.08%)
   displ. norm   :     0.3815973 α      lambda       -0.8377475E-03
   maximum displ.:     0.2385810 α      in ANC's #14, #7, #9, ...

........................................................................
.............................. CYCLE   30 ..............................
........................................................................
   1   -184.7653012 -0.184765E+03  0.131E-01    0.20       0.0  T
   2   -184.7625359  0.276523E-02  0.125E-01    0.25       1.0  T
   3   -184.7158806  0.466554E-01  0.395E-01    0.15       1.0  T
   4   -184.7632128 -0.473322E-01  0.961E-02    0.27       1.0  T
   5   -184.7641581 -0.945322E-03  0.654E-02    0.25       1.0  T
   6   -184.7648756 -0.717452E-03  0.442E-02    0.23       1.0  T
   7   -184.7652300 -0.354456E-03  0.271E-02    0.22       1.0  T
   8   -184.7653931 -0.163109E-03  0.139E-02    0.21       1.0  T
   9   -184.7654387 -0.455581E-04  0.434E-03    0.21       2.3  T
  10   -184.7654416 -0.289666E-05  0.154E-03    0.21       6.6  T
  11   -184.7654416  0.489550E-08  0.795E-04    0.21      12.8  T
     SCC iter.                  ...        0 min,  0.941 sec
     gradient                   ...        0 min,  0.037 sec
 * total energy  :  -181.6785378 Eh     change       -0.5733521E-03 Eh
   gradient norm :     0.0106990 Eh/α   predicted    -0.4798734E-03 ( -16.30%)
   displ. norm   :     0.4701002 α      lambda       -0.6963457E-03
   maximum displ.:     0.2961640 α      in ANC's #14, #7, #9, ...

........................................................................
.............................. CYCLE   31 ..............................
........................................................................
   1   -184.7680542 -0.184768E+03  0.139E-01    0.21       0.0  T
   2   -184.7672272  0.826998E-03  0.958E-02    0.23       1.0  T
   3   -184.6599113  0.107316E+00  0.572E-01    0.16       1.0  T
   4   -184.7671131 -0.107202E+00  0.726E-02    0.25       1.0  T
   5   -184.7676185 -0.505447E-03  0.411E-02    0.23       1.0  T
   6   -184.7679048 -0.286269E-03  0.272E-02    0.22       1.0  T
   7   -184.7680447 -0.139955E-03  0.159E-02    0.22       1.0  T
   8   -184.7681006 -0.558139E-04  0.818E-03    0.21       1.2  T
   9   -184.7681126 -0.120050E-04  0.305E-03    0.21       3.3  T
  10   -184.7681133 -0.740448E-06  0.167E-03    0.21       6.1  T
  11   -184.7681133  0.927682E-08  0.942E-04    0.21      10.8  T
     SCC iter.                  ...        0 min,  0.636 sec
     gradient                   ...        0 min,  0.048 sec
 * total energy  :  -181.6790481 Eh     change       -0.5102959E-03 Eh
   gradient norm :     0.0091253 Eh/α   predicted    -0.4251244E-03 ( -16.69%)
   displ. norm   :     0.6291122 α      lambda       -0.7117516E-03
   maximum displ.:     0.3943714 α      in ANC's #14, #7, #2, ...

........................................................................
.............................. CYCLE   32 ..............................
........................................................................
   1   -184.7643985 -0.184764E+03  0.176E-01    0.21       0.0  T
   2   -184.7623890  0.200945E-02  0.131E-01    0.25       1.0  T
   3   -184.6168553  0.145534E+00  0.668E-01    0.17       1.0  T
   4   -184.7624880 -0.145633E+00  0.108E-01    0.27       1.0  T
   5   -184.7633660 -0.878057E-03  0.630E-02    0.25       1.0  T
   6   -184.7639752 -0.609235E-03  0.444E-02    0.24       1.0  T
   7   -184.7642929 -0.317667E-03  0.291E-02    0.23       1.0  T
   8   -184.7644661 -0.173190E-03  0.166E-02    0.22       1.0  T
   9   -184.7645176 -0.514688E-04  0.723E-03    0.21       1.4  T
  10   -184.7645247 -0.715653E-05  0.293E-03    0.21       3.5  T
  11   -184.7645243  0.449188E-06  0.192E-03    0.21       5.3  T
  12   -184.7645251 -0.839672E-06  0.101E-03    0.21      10.1  T
     SCC iter.                  ...        0 min,  0.766 sec
     gradient                   ...        0 min,  0.028 sec
 * total energy  :  -181.6796364 Eh     change       -0.5882778E-03 Eh
   gradient norm :     0.0078338 Eh/α   predicted    -0.4967277E-03 ( -15.56%)
   displ. norm   :     0.6999560 α      lambda       -0.9197820E-03
   maximum displ.:     0.4213382 α      in ANC's #14, #7, #2, ...

........................................................................
.............................. CYCLE   33 ..............................
........................................................................
   1   -184.7696070 -0.184770E+03  0.186E-01    0.21       0.0  T
   2   -184.7696025  0.452805E-05  0.104E-01    0.21       1.0  T
   3   -184.7603738  0.922869E-02  0.174E-01    0.17       1.0  T
   4   -184.7686074 -0.823361E-02  0.651E-02    0.24       1.0  T
   5   -184.7696110 -0.100364E-02  0.163E-02    0.22       1.0  T
   6   -184.7696537 -0.426424E-04  0.816E-03    0.21       1.2  T
   7   -184.7696592 -0.551482E-05  0.357E-03    0.21       2.8  T
   8   -184.7696607 -0.147330E-05  0.149E-03    0.21       6.8  T
   9   -184.7696608 -0.797108E-07  0.916E-04    0.21      11.1  T
     SCC iter.                  ...        0 min,  0.434 sec
     gradient                   ...        0 min,  0.032 sec
 * total energy  :  -181.6803363 Eh     change       -0.6998753E-03 Eh
   gradient norm :     0.0109472 Eh/α   predicted    -0.6852136E-03 (  -2.09%)
   displ. norm   :     0.7140110 α      lambda       -0.8090179E-03
   maximum displ.:     0.4331265 α      in ANC's #14, #7, #2, ...

........................................................................
.............................. CYCLE   34 ..............................
........................................................................
   1   -184.7659166 -0.184766E+03  0.192E-01    0.21       0.0  T
   2   -184.7648457  0.107095E-02  0.124E-01    0.24       1.0  T
   3   -184.5980788  0.166767E+00  0.711E-01    0.18       1.0  T
   4   -184.7644670 -0.166388E+00  0.100E-01    0.26       1.0  T
   5   -184.7654408 -0.973800E-03  0.457E-02    0.24       1.0  T
   6   -184.7657763 -0.335506E-03  0.303E-02    0.23       1.0  T
   7   -184.7659528 -0.176471E-03  0.165E-02    0.22       1.0  T
   8   -184.7660076 -0.548140E-04  0.853E-03    0.22       1.2  T
   9   -184.7660144 -0.682692E-05  0.384E-03    0.21       2.6  T
  10   -184.7660150 -0.568702E-06  0.228E-03    0.21       4.4  T
  11   -184.7660152 -0.204275E-06  0.125E-03    0.21       8.1  T
     SCC iter.                  ...        0 min,  0.658 sec
     gradient                   ...        0 min,  0.057 sec
 * total energy  :  -181.6809803 Eh     change       -0.6440742E-03 Eh
   gradient norm :     0.0083652 Eh/α   predicted    -0.6107380E-03 (  -5.18%)
   displ. norm   :     0.6785967 α      lambda       -0.6572701E-03
   maximum displ.:     0.3780758 α      in ANC's #14, #7, #2, ...

........................................................................
.............................. CYCLE   35 ..............................
........................................................................
   1   -184.7652784 -0.184765E+03  0.173E-01    0.21       0.0  T
   2   -184.7643976  0.880799E-03  0.112E-01    0.23       1.0  T
   3   -184.6183370  0.146061E+00  0.665E-01    0.17       1.0  T
   4   -184.7641732 -0.145836E+00  0.850E-02    0.26       1.0  T
   5   -184.7648110 -0.637801E-03  0.436E-02    0.24       1.0  T
   6   -184.7651371 -0.326088E-03  0.285E-02    0.23       1.0  T
   7   -184.7652864 -0.149332E-03  0.166E-02    0.22       1.0  T
   8   -184.7653439 -0.575258E-04  0.858E-03    0.22       1.2  T
   9   -184.7653536 -0.962392E-05  0.358E-03    0.21       2.8  T
  10   -184.7653541 -0.525380E-06  0.215E-03    0.21       4.7  T
  11   -184.7653542 -0.826371E-07  0.121E-03    0.21       8.4  T
     SCC iter.                  ...        0 min,  1.030 sec
     gradient                   ...        0 min,  0.043 sec
 * total energy  :  -181.6815104 Eh     change       -0.5300112E-03 Eh
   gradient norm :     0.0072480 Eh/α   predicted    -0.4799696E-03 (  -9.44%)
   displ. norm   :     0.7897119 α      lambda       -0.6191708E-03
   maximum displ.:     0.4482313 α      in ANC's #14, #7, #2, ...

........................................................................
.............................. CYCLE   36 ..............................
........................................................................
   1   -184.7550411 -0.184755E+03  0.211E-01    0.21       0.0  T
   2   -184.7471644  0.787667E-02  0.211E-01    0.30       1.0  T
   3   -184.6727484  0.744160E-01  0.516E-01    0.17       1.0  T
   4   -184.7500203 -0.772718E-01  0.166E-01    0.33       1.0  T
   5   -184.7519250 -0.190475E-02  0.112E-01    0.29       1.0  T
   6   -184.7536597 -0.173471E-02  0.826E-02    0.27       1.0  T
   7   -184.7546189 -0.959222E-03  0.580E-02    0.25       1.0  T
   8   -184.7551966 -0.577607E-03  0.373E-02    0.24       1.0  T
   9   -184.7554826 -0.286074E-03  0.172E-02    0.23       1.0  T
  10   -184.7555395 -0.568380E-04  0.615E-03    0.22       1.7  T
  11   -184.7555433 -0.378732E-05  0.243E-03    0.22       4.2  T
  12   -184.7555447 -0.141535E-05  0.107E-03    0.22       9.5  T
  13   -184.7555449 -0.189819E-06  0.334E-04    0.22      30.4  T
     SCC iter.                  ...        0 min,  0.923 sec
     gradient                   ...        0 min,  0.040 sec
 * total energy  :  -181.6818799 Eh     change       -0.3695617E-03 Eh
   gradient norm :     0.0113637 Eh/α   predicted    -0.5026577E-03 (  36.01%)
   displ. norm   :     0.4896243 α      lambda       -0.8039863E-03
   maximum displ.:     0.2532531 α      in ANC's #7, #14, #2, ...

........................................................................
.............................. CYCLE   37 ..............................
........................................................................
   1   -184.7720504 -0.184772E+03  0.119E-01    0.21       0.0  T
   2   -184.7720507 -0.391384E-06  0.676E-02    0.22       1.0  T
   3   -184.7699891  0.206161E-02  0.823E-02    0.19       1.0  T
   4   -184.7704300 -0.440829E-03  0.794E-02    0.24       1.0  T
   5   -184.7720511 -0.162116E-02  0.131E-02    0.22       1.0  T
   6   -184.7720764 -0.252884E-04  0.638E-03    0.22       1.6  T
   7   -184.7720810 -0.460363E-05  0.358E-03    0.22       2.8  T
   8   -184.7720833 -0.224607E-05  0.149E-03    0.22       6.8  T
   9   -184.7720836 -0.304958E-06  0.619E-04    0.22      16.4  T
     SCC iter.                  ...        0 min,  0.608 sec
     gradient                   ...        0 min,  0.037 sec
 * total energy  :  -181.6821935 Eh     change       -0.3136095E-03 Eh
   gradient norm :     0.0125613 Eh/α   predicted    -0.4983628E-03 (  58.91%)
   displ. norm   :     0.4853189 α      lambda       -0.6291805E-03
   maximum displ.:     0.2514531 α      in ANC's #7, #14, #2, ...

........................................................................
.............................. CYCLE   38 ..............................
........................................................................
   1   -184.7668684 -0.184767E+03  0.133E-01    0.21       0.0  T
   2   -184.7612997  0.556864E-02  0.164E-01    0.28       1.0  T
   3   -184.7488341  0.124656E-01  0.253E-01    0.18       1.0  T
   4   -184.7641040 -0.152698E-01  0.111E-01    0.29       1.0  T
   5   -184.7659075 -0.180350E-02  0.652E-02    0.25       1.0  T
   6   -184.7667410 -0.833536E-03  0.391E-02    0.24       1.0  T
   7   -184.7670566 -0.315629E-03  0.201E-02    0.23       1.0  T
   8   -184.7671507 -0.941054E-04  0.826E-03    0.22       1.2  T
   9   -184.7671620 -0.112842E-04  0.285E-03    0.22       3.6  T
  10   -184.7671621 -0.136890E-06  0.182E-03    0.22       5.6  T
  11   -184.7671626 -0.452375E-06  0.508E-04    0.22      20.0  T
     SCC iter.                  ...        0 min,  0.414 sec
     gradient                   ...        0 min,  0.037 sec
 * total energy  :  -181.6825676 Eh     change       -0.3740459E-03 Eh
   gradient norm :     0.0085679 Eh/α   predicted    -0.3886848E-03 (   3.91%)
   displ. norm   :     0.5936747 α      lambda       -0.3523389E-03
   maximum displ.:     0.3160218 α      in ANC's #7, #14, #2, ...

........................................................................
.............................. CYCLE   39 ..............................
........................................................................
   1   -184.7590081 -0.184759E+03  0.149E-01    0.21       0.0  T
   2   -184.7534247  0.558337E-02  0.167E-01    0.28       1.0  T
   3   -184.7281692  0.252555E-01  0.326E-01    0.18       1.0  T
   4   -184.7559022 -0.277330E-01  0.121E-01    0.30       1.0  T
   5   -184.7576909 -0.178869E-02  0.740E-02    0.26       1.0  T
   6   -184.7586590 -0.968121E-03  0.480E-02    0.25       1.0  T
   7   -184.7590691 -0.410101E-03  0.291E-02    0.24       1.0  T
   8   -184.7592424 -0.173279E-03  0.154E-02    0.23       1.0  T
   9   -184.7592923 -0.499778E-04  0.504E-03    0.22       2.0  T
  10   -184.7592945 -0.220798E-05  0.268E-03    0.22       3.8  T
  11   -184.7592956 -0.105179E-05  0.717E-04    0.22      14.2  T
     SCC iter.                  ...        0 min,  0.278 sec
     gradient                   ...        0 min,  0.032 sec
 * total energy  :  -181.6827989 Eh     change       -0.2313467E-03 Eh
   gradient norm :     0.0084100 Eh/α   predicted    -0.2382672E-03 (   2.99%)
   displ. norm   :     0.4111151 α      lambda       -0.3444795E-03
   maximum displ.:     0.2263996 α      in ANC's #7, #2, #14, ...

........................................................................
.............................. CYCLE   40 ..............................
........................................................................
   1   -184.7621037 -0.184762E+03  0.936E-02    0.22       0.0  T
   2   -184.7602172  0.188645E-02  0.975E-02    0.25       1.0  T
   3   -184.7474815  0.127358E-01  0.225E-01    0.18       1.0  T
   4   -184.7611994 -0.137180E-01  0.624E-02    0.26       1.0  T
   5   -184.7619044 -0.704958E-03  0.310E-02    0.24       1.0  T
   6   -184.7621111 -0.206750E-03  0.168E-02    0.23       1.0  T
   7   -184.7621735 -0.623739E-04  0.720E-03    0.22       1.4  T
   8   -184.7621830 -0.952672E-05  0.339E-03    0.22       3.0  T
   9   -184.7621841 -0.102974E-05  0.134E-03    0.22       7.6  T
  10   -184.7621842 -0.126759E-06  0.788E-04    0.22      12.9  T
     SCC iter.                  ...        0 min,  0.409 sec
     gradient                   ...        0 min,  0.039 sec
 * total energy  :  -181.6830606 Eh     change       -0.2617185E-03 Eh
   gradient norm :     0.0080229 Eh/α   predicted    -0.2013500E-03 ( -23.07%)
   displ. norm   :     0.5588852 α      lambda       -0.4569911E-03
   maximum displ.:     0.3122546 α      in ANC's #7, #2, #5, ...

........................................................................
.............................. CYCLE   41 ..............................
........................................................................
   1   -184.7696500 -0.184770E+03  0.126E-01    0.22       0.0  T
   2   -184.7675446  0.210540E-02  0.112E-01    0.25       1.0  T
   3   -184.7316359  0.359087E-01  0.355E-01    0.18       1.0  T
   4   -184.7682820 -0.366461E-01  0.865E-02    0.27       1.0  T
   5   -184.7692014 -0.919385E-03  0.444E-02    0.25       1.0  T
   6   -184.7695478 -0.346389E-03  0.279E-02    0.24       1.0  T
   7   -184.7697048 -0.156997E-03  0.143E-02    0.23       1.0  T
   8   -184.7697440 -0.392709E-04  0.674E-03    0.23       1.5  T
   9   -184.7697494 -0.534323E-05  0.263E-03    0.22       3.9  T
  10   -184.7697498 -0.405089E-06  0.132E-03    0.22       7.7  T
  11   -184.7697499 -0.148611E-06  0.426E-04    0.22      23.8  T
     SCC iter.                  ...        0 min,  0.312 sec
     gradient                   ...        0 min,  0.024 sec
 * total energy  :  -181.6833264 Eh     change       -0.2657869E-03 Eh
   gradient norm :     0.0090484 Eh/α   predicted    -0.2998679E-03 (  12.82%)
   displ. norm   :     0.6142198 α      lambda       -0.3807816E-03
   maximum displ.:     0.3473903 α      in ANC's #7, #14, #2, ...

........................................................................
.............................. CYCLE   42 ..............................
........................................................................
   1   -184.7682641 -0.184768E+03  0.145E-01    0.22       0.0  T
   2   -184.7642779  0.398615E-02  0.146E-01    0.27       1.0  T
   3   -184.7308665  0.334114E-01  0.357E-01    0.18       1.0  T
   4   -184.7659818 -0.351154E-01  0.111E-01    0.29       1.0  T
   5   -184.7674285 -0.144662E-02  0.604E-02    0.26       1.0  T
   6   -184.7680831 -0.654679E-03  0.380E-02    0.25       1.0  T
   7   -184.7683670 -0.283873E-03  0.200E-02    0.24       1.0  T
   8   -184.7684452 -0.781429E-04  0.943E-03    0.23       1.1  T
   9   -184.7684568 -0.116619E-04  0.367E-03    0.23       2.8  T
  10   -184.7684576 -0.813050E-06  0.177E-03    0.23       5.7  T
  11   -184.7684579 -0.254957E-06  0.579E-04    0.23      17.5  T
     SCC iter.                  ...        0 min,  1.420 sec
     gradient                   ...        0 min,  0.091 sec
 * total energy  :  -181.6835541 Eh     change       -0.2277167E-03 Eh
   gradient norm :     0.0084371 Eh/α   predicted    -0.2622229E-03 (  15.15%)
   displ. norm   :     0.5142959 α      lambda       -0.3139321E-03
   maximum displ.:     0.2950719 α      in ANC's #7, #2, #5, ...
 * RMSD in coord.:     1.0019863 α      energy gain  -0.1230162E-01 Eh

generating ANC from model Hessian ...
Using Lindh-Hessian (1995)
 Shifting diagonal of input Hessian by   5.011747055244013E-003
 Lowest  eigenvalues of input Hessian
    0.005000   -0.000000   -0.000000   -0.000000    0.000000    0.000000
    0.000000    0.005026    0.005064    0.005076    0.005117    0.005149
    0.005200    0.005339    0.005480    0.005618    0.005723    0.005804
 Highest eigenvalues
    2.274942    2.276722    2.607591    2.645997    2.646987    2.649281
 

........................................................................
.............................. CYCLE   43 ..............................
........................................................................
   1   -184.7683000 -0.184768E+03  0.118E-01    0.22       0.0  T
   2   -184.7664111  0.188885E-02  0.105E-01    0.25       1.0  T
   3   -184.7349535  0.314577E-01  0.335E-01    0.18       1.0  T
   4   -184.7671784 -0.322249E-01  0.751E-02    0.27       1.0  T
   5   -184.7679576 -0.779204E-03  0.390E-02    0.25       1.0  T
   6   -184.7682548 -0.297200E-03  0.229E-02    0.24       1.0  T
   7   -184.7683655 -0.110714E-03  0.104E-02    0.23       1.0  T
   8   -184.7683846 -0.190487E-04  0.467E-03    0.23       2.2  T
   9   -184.7683859 -0.128573E-05  0.209E-03    0.23       4.9  T
  10   -184.7683862 -0.308303E-06  0.862E-04    0.23      11.8  T
  11   -184.7683862 -0.674508E-07  0.322E-04    0.23      31.5  T
     SCC iter.                  ...        0 min,  1.041 sec
     gradient                   ...        0 min,  0.042 sec
 * total energy  :  -181.6837235 Eh     change       -0.1693903E-03 Eh
   gradient norm :     0.0104625 Eh/α   predicted     0.0000000E+00 (-100.00%)
   displ. norm   :     0.0992079 α      lambda       -0.1926345E-03
   maximum displ.:     0.0417492 α      in ANC's #10, #7, #1, ...

........................................................................
.............................. CYCLE   44 ..............................
........................................................................
   1   -184.7706590 -0.184771E+03  0.405E-02    0.23       0.0  T
   2   -184.7702271  0.431913E-03  0.450E-02    0.22       1.0  T
   3   -184.7691818  0.104529E-02  0.762E-02    0.25       1.0  T
   4   -184.7706405 -0.145877E-02  0.122E-02    0.23       1.0  T
   5   -184.7706737 -0.331216E-04  0.243E-03    0.23       4.2  T
   6   -184.7706732  0.404782E-06  0.231E-03    0.23       4.4  T
   7   -184.7706740 -0.715351E-06  0.113E-03    0.23       9.0  T
     SCC iter.                  ...        0 min,  0.298 sec
     gradient                   ...        0 min,  0.037 sec
 * total energy  :  -181.6838426 Eh     change       -0.1191219E-03 Eh
   gradient norm :     0.0045366 Eh/α   predicted    -0.9730160E-04 ( -18.32%)
   displ. norm   :     0.1383183 α      lambda       -0.2123555E-03
   maximum displ.:     0.0631014 α      in ANC's #7, #16, #10, ...

........................................................................
.............................. CYCLE   45 ..............................
........................................................................
   1   -184.7737296 -0.184774E+03  0.819E-02    0.23       0.0  T
   2   -184.7728214  0.908226E-03  0.722E-02    0.21       1.0  T
   3   -184.7669139  0.590744E-02  0.166E-01    0.29       1.0  T
   4   -184.7732412 -0.632734E-02  0.440E-02    0.25       1.0  T
   5   -184.7737296 -0.488360E-03  0.126E-02    0.23       1.0  T
   6   -184.7737550 -0.253586E-04  0.729E-03    0.23       1.4  T
   7   -184.7737664 -0.114808E-04  0.218E-03    0.23       4.6  T
   8   -184.7737662  0.268621E-06  0.164E-03    0.23       6.2  T
   9   -184.7737668 -0.572704E-06  0.592E-04    0.23      17.2  T
     SCC iter.                  ...        0 min,  0.412 sec
     gradient                   ...        0 min,  0.043 sec
 * total energy  :  -181.6837162 Eh     change        0.1264438E-03 Eh
   gradient norm :     0.0101403 Eh/α   predicted    -0.1082148E-03 (-185.58%)
   displ. norm   :     0.0754712 α      lambda       -0.4053496E-03
   maximum displ.:     0.0332425 α      in ANC's #9, #18, #1, ...

........................................................................
.............................. CYCLE   46 ..............................
........................................................................
   1   -184.7732044 -0.184773E+03  0.648E-02    0.22       0.0  T
   2   -184.7732072 -0.280804E-05  0.359E-02    0.23       1.0  T
   3   -184.7728405  0.366694E-03  0.356E-02    0.22       1.0  T
   4   -184.7731666 -0.326065E-03  0.139E-02    0.23       1.0  T
   5   -184.7732117 -0.451134E-04  0.192E-03    0.23       5.3  T
   6   -184.7732118 -0.102034E-06  0.137E-03    0.22       7.4  T
   7   -184.7732119 -0.139678E-06  0.779E-04    0.23      13.0  T
     SCC iter.                  ...        0 min,  0.666 sec
     gradient                   ...        0 min,  0.040 sec
 * total energy  :  -181.6838832 Eh     change       -0.1670312E-03 Eh
   gradient norm :     0.0049240 Eh/α   predicted    -0.2038291E-03 (  22.03%)
   displ. norm   :     0.1224095 α      lambda       -0.2932121E-03
   maximum displ.:     0.0533827 α      in ANC's #25, #19, #39, ...

........................................................................
.............................. CYCLE   47 ..............................
........................................................................
   1   -184.7693407 -0.184769E+03  0.103E-01    0.23       0.0  T
   2   -184.7692976  0.430974E-04  0.583E-02    0.22       1.0  T
   3   -184.7633699  0.592763E-02  0.152E-01    0.28       1.0  T
   4   -184.7693446 -0.597469E-02  0.102E-02    0.23       1.0  T
   5   -184.7693609 -0.162332E-04  0.271E-03    0.22       3.8  T
   6   -184.7693612 -0.304649E-06  0.214E-03    0.23       4.7  T
   7   -184.7693615 -0.326516E-06  0.127E-03    0.22       8.0  T
     SCC iter.                  ...        0 min,  0.270 sec
     gradient                   ...        0 min,  0.041 sec
 * total energy  :  -181.6837426 Eh     change        0.1406751E-03 Eh
   gradient norm :     0.0094249 Eh/α   predicted    -0.1488031E-03 (-205.78%)
   displ. norm   :     0.0984625 α      lambda       -0.4368624E-03
   maximum displ.:     0.0404598 α      in ANC's #16, #25, #7, ...

........................................................................
.............................. CYCLE   48 ..............................
........................................................................
   1   -184.7726878 -0.184773E+03  0.716E-02    0.23       0.0  T
   2   -184.7726730  0.148081E-04  0.402E-02    0.22       1.0  T
   3   -184.7699865  0.268654E-02  0.101E-01    0.26       1.0  T
   4   -184.7726895 -0.270299E-02  0.761E-03    0.23       1.3  T
   5   -184.7726971 -0.761791E-05  0.299E-03    0.22       3.4  T
   6   -184.7726982 -0.105014E-05  0.144E-03    0.22       7.0  T
   7   -184.7726983 -0.140336E-06  0.732E-04    0.22      13.9  T
     SCC iter.                  ...        0 min,  0.735 sec
     gradient                   ...        0 min,  0.063 sec
 * total energy  :  -181.6839709 Eh     change       -0.2283753E-03 Eh
   gradient norm :     0.0024754 Eh/α   predicted    -0.2205506E-03 (  -3.43%)
   displ. norm   :     0.0876168 α      lambda       -0.4998405E-04
   maximum displ.:     0.0430761 α      in ANC's #7, #10, #3, ...

........................................................................
.............................. CYCLE   49 ..............................
........................................................................
   1   -184.7722600 -0.184772E+03  0.322E-02    0.22       0.0  T
   2   -184.7721925  0.675906E-04  0.238E-02    0.22       1.0  T
   3   -184.7705546  0.163786E-02  0.800E-02    0.25       1.0  T
   4   -184.7722572 -0.170259E-02  0.538E-03    0.23       1.9  T
   5   -184.7722635 -0.630053E-05  0.124E-03    0.22       8.2  T
[...]
     3   9 F      0.787    -0.195    11.184     3.950
     4   6 C      2.775     0.159    24.548     8.115
     5   9 F      0.787    -0.196    11.193     3.952
     6   6 C      2.919    -0.055    29.369     8.887
     7   6 C      2.990     0.014    27.689     8.632
     8   6 C      2.988     0.016    27.649     8.625
     9   6 C      2.916    -0.031    28.776     8.796
    10   6 C      3.022     0.007    27.843     8.655
    11   6 C      3.036    -0.018    28.421     8.744
    12   6 C      2.913    -0.018    28.461     8.748
    13   6 C      2.862     0.226    23.254     7.904
    14   8 O      0.856    -0.371    21.119     6.161
    15   6 C      3.003    -0.039    28.956     8.827
    16   6 C      3.016     0.028    27.364     8.581
    17   6 C      2.947     0.001    28.002     8.679
    18   6 C      1.941     0.122    28.093     8.559
    19   7 N      0.911    -0.245    26.395     7.430
    20   6 C      1.943     0.122    28.081     8.558
    21   7 N      0.911    -0.240    26.277     7.414
    22   6 C      2.897    -0.006    28.164     8.701
    23   6 C      3.055     0.003    27.915     8.665
    24   6 C      3.007    -0.017    28.416     8.744
    25   6 C      3.080     0.014    27.626     8.617
    26   6 C      1.900     0.114    28.293     8.591
    27   7 N      0.911    -0.241    26.293     7.416
    28   6 C      3.000    -0.041    29.000     8.834
    29   6 C      3.073     0.015    27.612     8.616
    30   6 C      3.072     0.023    27.424     8.586
    31   6 C      3.061     0.006    27.828     8.651
    32   6 C      2.999    -0.050    29.224     8.868
    33   6 C      3.091     0.027    27.301     8.564
    34   6 C      2.991    -0.051    29.258     8.873
    35   6 C      1.900     0.115    28.271     8.587
    36   7 N      0.911    -0.231    26.046     7.381
    37   6 C      2.899    -0.026    28.652     8.777
    38   6 C      2.899    -0.045    29.107     8.846
    39   6 C      3.094     0.059    26.578     8.449
    40   7 N      2.765    -0.105    23.299     7.169
    41   6 C      3.200     0.039    26.593     8.404
    42   6 C      2.994    -0.081    30.005     8.985
    43   6 C      3.098     0.059    26.569     8.447
    44   7 N      2.762    -0.102    23.232     7.159
    45   6 C      3.207     0.038    26.555     8.392
    46   6 C      2.989    -0.076    29.895     8.969
    47   6 C      2.897    -0.049    29.207     8.861
    48   6 C      2.904    -0.034    28.838     8.805
    49   6 C      2.960     0.002    27.990     8.678
    50   6 C      2.925    -0.037    28.924     8.820
    51   6 C      2.925    -0.040    28.983     8.829
    52   6 C      3.014    -0.006    28.156     8.704
    53   6 C      3.327     0.072    24.239     7.821
    54   6 C      3.336     0.073    24.026     7.761
    55   7 N      1.853    -0.268    27.812     7.816
    56  16 S      2.644     0.330   128.311    19.065
    57   7 N      1.854    -0.276    28.002     7.843
    58   6 C      2.948     0.028    27.387     8.583
    59   6 C      2.940    -0.039    28.977     8.829
    60   6 C      3.074    -0.003    28.031     8.681
    61   6 C      3.095    -0.002    27.964     8.667
    62   6 C      2.889     0.000    28.021     8.679
    63  16 S      2.105    -0.013   141.591    20.027
    64   6 C      3.089     0.003    27.844     8.649
    65   6 C      3.265    -0.012    27.047     8.394
    66   6 C      3.061    -0.043    29.000     8.831
    67   6 C      2.950    -0.016    28.403     8.741
    68  16 S      2.229    -0.029   142.242    20.073
    69   6 C      3.031    -0.005    28.112     8.697
    70   6 C      2.889    -0.025    28.628     8.772
    71   6 C      2.838    -0.088    30.201     9.006
    72   1 H      0.926     0.081     1.972     2.196
    73   1 H      0.926     0.078     2.004     2.214
    74   1 H      0.926     0.063     2.160     2.298
    75   1 H      0.926     0.067     2.121     2.277
    76   1 H      0.925     0.064     2.152     2.294
    77   1 H      0.926     0.070     2.085     2.258
    78   1 H      0.926     0.039     2.459     2.452
    79   1 H      0.926     0.032     2.553     2.499
    80   1 H      0.926     0.034     2.527     2.486
    81   1 H      0.926     0.055     2.262     2.352
    82   1 H      0.925     0.046     2.365     2.405
    83   1 H      0.860     0.171     1.265     1.762
    84   1 H      0.926     0.046     2.364     2.404
    85   1 H      0.860     0.172     1.259     1.758
    86   1 H      0.926     0.047     2.360     2.402
    87   1 H      0.926     0.080     1.976     2.198
    88   1 H      0.925     0.033     2.542     2.493
    89   1 H      0.926     0.043     2.413     2.429
    90   1 H      0.926     0.053     2.282     2.362
    91   1 H      0.926     0.088     1.896     2.153
    92   1 H      0.926     0.063     2.160     2.298
    93   1 H      0.926     0.043     2.414     2.429
    94   1 H      0.926     0.047     2.356     2.400
    95   1 H      0.925     0.041     2.439     2.442
    96   1 H      0.926     0.049     2.336     2.390
    97   1 H      0.926     0.040     2.445     2.445

 Mol. C6AA /au·bohr⁶  :     181445.610284
 Mol. C8AA /au·bohr⁸  :    4995398.070500
 Mol. α(0) /au        :        685.240706


Wiberg/Mayer (AO) data.
largest (>0.10) Wiberg bond orders for each atom
          total WBO             WBO to atom ...
     1  C   3.975        C    2 1.497    C    8 1.284    H   72 0.961    C    6 0.107
     2  C   3.887        C    1 1.497    C    4 1.245    F    3 0.981
     3  F   1.117        C    2 0.981
     4  C   3.883        C    6 1.495    C    2 1.245    F    5 0.980
     5  F   1.115        C    4 0.980
     6  C   3.978        C    4 1.495    C    7 1.287    H   73 0.962    C    1 0.107
     7  C   3.980        C    6 1.287    C   12 1.270    C    8 1.242
     8  C   3.985        C    1 1.284    C    9 1.277    C    7 1.242
     9  C   3.971        C   10 1.501    C    8 1.277    H   74 0.957
    10  C   3.981        C    9 1.501    C   11 1.208    C   16 1.085
    11  C   3.977        C   12 1.526    C   10 1.208    C   13 1.013
    12  C   3.979        C   11 1.526    C    7 1.270    H   75 0.963
    13  C   3.928        O   14 1.761    C   15 1.039    C   11 1.013
    14  O   2.047        C   13 1.761
    15  C   3.961        C   22 1.518    C   16 1.146    C   13 1.039
    16  C   3.973        C   17 1.478    C   15 1.146    C   10 1.085
    17  C   3.936        C   16 1.478    C   18 1.099    C   20 1.098
    18  C   3.945        N   19 2.752    C   17 1.099
    19  N   2.963        C   18 2.752
    20  C   3.945        N   21 2.761    C   17 1.098
    21  N   2.968        C   20 2.761
    22  C   3.956        C   15 1.518    C   23 1.252    H   76 0.939
    23  C   3.957        C   24 1.461    C   22 1.252    C   29 1.070
    24  C   3.866        C   23 1.461    C   25 1.190    H   77 0.966
    25  C   3.904        C   28 1.428    C   24 1.190    C   26 1.128
    26  C   3.945        N   27 2.769    C   25 1.128
    27  N   2.944        C   26 2.769
    28  C   3.929        C   25 1.428    C   29 1.248    H   78 0.968
    29  C   3.895        C   30 1.382    C   28 1.248    C   23 1.070
    30  C   3.920        C   29 1.382    C   34 1.316    C   31 1.019
    31  C   3.948        C   32 1.482    C   37 1.280    C   30 1.019
    32  C   3.896        C   31 1.482    C   33 1.212    H   79 0.971
    33  C   3.889        C   34 1.382    C   32 1.212    C   35 1.127
    34  C   3.934        C   33 1.382    C   30 1.316    H   80 0.968
    35  C   3.946        N   36 2.772    C   33 1.127
    36  N   2.939        C   35 2.772
    37  C   3.948        C   38 1.519    C   31 1.280    H   81 0.956
    38  C   3.943        C   37 1.519    C   39 1.267    H   82 0.960
    39  C   3.893        C   46 1.313    C   38 1.267    N   40 1.157
    40  N   3.520        C   41 1.184    C   39 1.157    H   83 0.942
    41  C   3.901        C   42 1.384    N   40 1.184    C   45 1.171
    42  C   3.922        C   41 1.384    C   43 1.337    H   84 0.972
    43  C   3.873        C   42 1.337    C   47 1.228    N   44 1.167
    44  N   3.526        C   45 1.179    C   43 1.167    H   85 0.939
    45  C   3.914        C   46 1.398    N   44 1.179    C   41 1.171
    46  C   3.902        C   45 1.398    C   39 1.313    H   86 0.970
    47  C   3.942        C   48 1.594    C   43 1.228    H   87 0.947
    48  C   3.911        C   47 1.594    C   49 1.206    H   88 0.960
    49  C   3.942        C   50 1.375    C   48 1.206    C   54 1.177
    50  C   3.942        C   51 1.423    C   49 1.375    H   89 0.967
    51  C   3.946        C   50 1.423    C   52 1.385    H   90 0.955
    52  C   3.944        C   51 1.385    C   53 1.180    C   58 1.170
    53  C   3.968        N   57 1.399    C   52 1.180    C   54 1.172
    54  C   3.964        N   55 1.405    C   49 1.177    C   53 1.172
    55  N   3.082        S   56 1.414    C   54 1.405    N   57 0.155
    56  S   3.159        N   55 1.414    N   57 1.409
    57  N   3.086        S   56 1.409    C   53 1.399    N   55 0.155
    58  C   3.921        C   59 1.484    C   52 1.170    S   63 1.055
    59  C   3.946        C   58 1.484    C   60 1.322    H   91 0.924
    60  C   3.959        C   69 1.352    C   59 1.322    C   61 1.054
    61  C   3.983        C   62 1.582    C   64 1.176    C   60 1.054
    62  C   3.950        C   61 1.582    S   63 1.193    H   92 0.958
    63  S   2.599        C   62 1.193    C   58 1.055
    64  C   3.898        C   65 1.341    C   61 1.176    S   68 1.153
    65  C   3.977        C   64 1.341    C   66 1.233    C   69 1.172
    66  C   3.976        C   67 1.644    C   65 1.233    H   93 0.962
    67  C   3.924        C   66 1.644    S   68 1.163    H   94 0.971
    68  S   2.598        C   67 1.163    C   64 1.153
    69  C   3.905        C   60 1.352    C   65 1.172    C   70 1.144
    70  C   3.989        C   71 1.841    C   69 1.144    H   95 0.960
    71  C   3.912        C   70 1.841    H   97 0.979    H   96 0.971
    72  H   0.993        C    1 0.961
    73  H   0.994        C    6 0.962
    74  H   0.995        C    9 0.957
    75  H   0.994        C   12 0.963
    76  H   0.994        C   22 0.939
    77  H   0.994        C   24 0.966
    78  H   0.998        C   28 0.968
    79  H   0.998        C   32 0.971
    80  H   0.998        C   34 0.968
    81  H   0.996        C   37 0.956
    82  H   0.997        C   38 0.960
    83  H   0.971        N   40 0.942
    84  H   0.997        C   42 0.972
    85  H   0.970        N   44 0.939
    86  H   0.997        C   46 0.970
    87  H   0.993        C   47 0.947
    88  H   0.998        C   48 0.960
    89  H   0.996        C   50 0.967
    90  H   0.996        C   51 0.955
    91  H   0.991        C   59 0.924
    92  H   0.995        C   62 0.958
    93  H   0.998        C   66 0.962
    94  H   0.997        C   67 0.971
    95  H   0.995        C   70 0.960
    96  H   0.997        C   71 0.971
    97  H   0.997        C   71 0.979

molecular dipole:
                 x           y           z       tot (Debye)
 q only:       -4.970      -8.269      -0.565
   full:       -4.772      -8.432      -0.543      24.666
molecular quadrupole (traceless):
                xx          xy          yy          xz          yz          zz
 q only:      -26.027     319.993     222.900      16.761       9.881    -196.873
  q+dip:      -27.737     343.778     233.941      23.877      13.572    -206.204
   full:      -27.778     340.976     224.860      15.048      15.860    -197.082

           -------------------------------------------------
          |                Geometry Summary                 |
           -------------------------------------------------

      molecular mass/u    :      973.0622000
   center of mass at/Å    :       -7.4388715     -11.2479536       0.0442575
  moments of inertia/u·Å² :        0.7090141E+04   0.1054303E+06   0.1102055E+06
rotational constants/cm⁻¹ :        0.2377616E-02   0.1598937E-03   0.1529654E-03

 * 92 selected distances

     #   Z        #   Z                                     value/Å
     1   6 C      2   6 C                                 1.3664091
     2   6 C      4   6 C                                 1.4088070
     4   6 C      6   6 C                                 1.3665396
     6   6 C      7   6 C                                 1.4082780
     1   6 C      8   6 C                                 1.4095372
     7   6 C      8   6 C                                 1.4247723
     8   6 C      9   6 C                                 1.4138217
     9   6 C     10   6 C                                 1.3699942
    10   6 C     11   6 C                                 1.4214794
     7   6 C     12   6 C                                 1.4127895
    11   6 C     12   6 C                                 1.3642295
    13   6 C     14   8 O                                 1.2125456
    16   6 C     17   6 C                                 1.3724920
    18   6 C     19   7 N                                 1.1491050
    20   6 C     21   7 N                                 1.1483440
    15   6 C     22   6 C                                 1.3699741
    22   6 C     23   6 C                                 1.4110187
    23   6 C     24   6 C                                 1.3823718
    24   6 C     25   6 C                                 1.4275125
    26   6 C     27   7 N                                 1.1488139
    25   6 C     28   6 C                                 1.3854499
    28   6 C     29   6 C                                 1.4193382
    29   6 C     30   6 C                                 1.3881237
    31   6 C     32   6 C                                 1.3791211
    32   6 C     33   6 C                                 1.4222666
    30   6 C     34   6 C                                 1.4063737
    33   6 C     34   6 C                                 1.3917224
    35   6 C     36   7 N                                 1.1484613
    31   6 C     37   6 C                                 1.4063238
    37   6 C     38   6 C                                 1.3688794
    38   6 C     39   6 C                                 1.4054053
    39   6 C     40   7 N                                 1.3819393
    40   7 N     41   6 C                                 1.3574732
    41   6 C     42   6 C                                 1.3840696
    42   6 C     43   6 C                                 1.4075590
    43   6 C     44   7 N                                 1.3793870
    41   6 C     45   6 C                                 1.4268529
    44   7 N     45   6 C                                 1.3589687
    39   6 C     46   6 C                                 1.4121435
    45   6 C     46   6 C                                 1.3822946
    43   6 C     47   6 C                                 1.4126291
    47   6 C     48   6 C                                 1.3592857
    48   6 C     49   6 C                                 1.4251881
    49   6 C     50   6 C                                 1.3944531
    50   6 C     51   6 C                                 1.3845266
    51   6 C     52   6 C                                 1.3944011
    52   6 C     53   6 C                                 1.4261949
    49   6 C     54   6 C                                 1.4234891
    53   6 C     54   6 C                                 1.4439526
    54   6 C     55   7 N                                 1.3303442
    55   7 N     56  16 S                                 1.6071258
    53   6 C     57   7 N                                 1.3320575
    56  16 S     57   7 N                                 1.6083004
    58   6 C     59   6 C                                 1.3728271
    59   6 C     60   6 C                                 1.3950912
    61   6 C     62   6 C                                 1.3493905
    62   6 C     63  16 S                                 1.7127765
    61   6 C     64   6 C                                 1.4199896
    64   6 C     65   6 C                                 1.3982797
    65   6 C     66   6 C                                 1.4143903
    66   6 C     67   6 C                                 1.3571532
    64   6 C     68  16 S                                 1.7174886
    67   6 C     68  16 S                                 1.7346388 (max)
    60   6 C     69   6 C                                 1.4033243
    65   6 C     69   6 C                                 1.4334589
    70   6 C     71   6 C                                 1.3334296
     1   6 C     72   1 H                                 1.0788560
     6   6 C     73   1 H                                 1.0787932
     9   6 C     74   1 H                                 1.0779341
    12   6 C     75   1 H                                 1.0794794
    22   6 C     76   1 H                                 1.0832126
    24   6 C     77   1 H                                 1.0718240
    28   6 C     78   1 H                                 1.0738203
    32   6 C     79   1 H                                 1.0732716
    34   6 C     80   1 H                                 1.0731662
    37   6 C     81   1 H                                 1.0792164
    38   6 C     82   1 H                                 1.0817795
    40   7 N     83   1 H                                 1.0055481
    42   6 C     84   1 H                                 1.0711373
    44   7 N     85   1 H                                 1.0045951 (min)
    46   6 C     86   1 H                                 1.0708140
    47   6 C     87   1 H                                 1.0795746
    48   6 C     88   1 H                                 1.0834862
    50   6 C     89   1 H                                 1.0804446
    51   6 C     90   1 H                                 1.0796478
    59   6 C     91   1 H                                 1.0787537
    62   6 C     92   1 H                                 1.0788760
    66   6 C     93   1 H                                 1.0749538
    67   6 C     94   1 H                                 1.0725547
    70   6 C     95   1 H                                 1.0840568
    71   6 C     96   1 H                                 1.0751501
    71   6 C     97   1 H                                 1.0766783

 * 7 distinct bonds (by element types)

   Z      Z             #   av. dist./Å        max./Å        min./Å
   1 H    6 C          24     1.0773950     1.0840568     1.0708140
   6 C    6 C          50     1.3971481     1.4439526     1.3334296
   1 H    7 N           2     1.0050716     1.0055481     1.0045951
   6 C    7 N          10     1.2734894     1.3819393     1.1483440
   6 C    8 O           1     1.2125456     1.2125456     1.2125456
   6 C   16 S           3     1.7216346     1.7346388     1.7127765
   7 N   16 S           2     1.6077131     1.6083004     1.6071258


optimized geometry written to: xtbopt.xyz


           -------------------------------------------------
          | TOTAL ENERGY             -181.688016644125 Eh   |
          | GRADIENT NORM               0.000578926335 Eh/α |
          | HOMO-LUMO GAP               0.235515477198 eV   |
           -------------------------------------------------

------------------------------------------------------------------------
 * finished run on 2021/06/28 at 21:35:28.634     
------------------------------------------------------------------------
 total:
 * wall-time:     0 d,  0 h,  1 min, 51.461 sec
 *  cpu-time:     0 d,  0 h, 16 min, 16.904 sec
 * ratio c/w:     8.765 speedup
 SCF:
 * wall-time:     0 d,  0 h,  0 min,  0.514 sec
 *  cpu-time:     0 d,  0 h,  0 min,  4.125 sec
 * ratio c/w:     8.020 speedup
 ANC optimizer:
 * wall-time:     0 d,  0 h,  1 min, 50.704 sec
 *  cpu-time:     0 d,  0 h, 16 min, 10.779 sec
 * ratio c/w:     8.769 speedup

