      -----------------------------------------------------------      
     |                   =====================                   |     
     |                           x T B                           |     
     |                   =====================                   |     
     |                         S. Grimme                         |     
     |          Mulliken Center for Theoretical Chemistry        |     
     |                    University of Bonn                     |     
     |                Version 6.2 RC2 (SAW190805)                |     
      -----------------------------------------------------------      

   This program is distributed in the hope that it will be useful,
   but WITHOUT ANY WARRANTY; without even the implied warranty of
   MERCHANTABILITY or FITNESS FOR A PARTICULAR PURPOSE.
   
   FOR NON-COMMERCIAL, ACADEMIA USE ONLY.
   
   Cite this work as:
   * S. Grimme, C. Bannwarth, P. Shushkov, J. Chem. Theory Comput., 2017,
     13, 1989-2009. DOI: 10.1021/acs.jctc.7b00118
   * C. Bannwarth, S. Ehlert and S. Grimme., J. Chem. Theory Comput., 2019,
     15, 1652-1671. DOI: 10.1021/acs.jctc.8b01176
   * P. Pracht, E. Caldeweyher, S. Ehlert, S. Grimme, ChemRxiv, 2019, preprint.
     DOI: 10.26434/chemrxiv.8326202.v1
   
   for DFT-D4:
   * E. Caldeweyher, C. Bannwarth and S. Grimme, J. Chem. Phys., 2017,
     147, 034112. DOI: 10.1063/1.4993215
   * E. Caldeweyher, S. Ehlert, A. Hansen, H. Neugebauer, S. Spicher,
     C. Bannwarth and S. Grimme, J. Chem. Phys., 2019, 150, 154122.
     DOI: 10.1063/1.5090222
   
   for sTDA-xTB:
   * S. Grimme and C. Bannwarth, J. Chem. Phys., 2016, 145, 054103.
     DOI: 10.1063/1.4959605
   
   in the mass-spec context:
   * V. Asgeirsson, C. Bauer and S. Grimme, Chem. Sci., 2017, 8, 4879.
     DOI: 10.1039/c7sc00601b
   
   for metadynamics refer to:
   * S. Grimme, J. Chem. Theory Comput., 2019, 155, 2847-2862
     DOI: 10.1021/acs.jctc.9b00143
   
   with help from (in alphabetical order)
   C. Bannwarth, F. Bohle, G. Brandenburg, E. Caldeweyher, M. Checinski,
   S. Dohm, S. Ehlert, S. Ehrlich, F. März, H. Neugebauer, J. Pisarek,
   P. Pracht, P. Shushkov, and S. Spicher.
   
 * started run on 2021/06/26 at 07:04:01.303     

           -------------------------------------------------
          |                Calculation Setup                |
           -------------------------------------------------

          program call               : /ihome/ghutchison/geoffh/xtb/xtb /ihome/ghutchison/blp62/GA/running_GA/opt_GA/generations/64/4_45_45_45_4_10001.xyz -opt
          hostname                   : smp-n6
          coordinate file            : /ihome/ghutchison/blp62/GA/running_GA/opt_GA/generations/64/4_45_45_45_4_10001.xyz
          omp threads                :                    12
          number of atoms            :                    80
          number of electrons        :                   310
          charge                     :                     0
          spin                       :                   0.0
          first test random number   :      0.56111080930308


########################################################################
# WARNING! Please study the warnings concerning your input carefully
#  - XTBPATH is not set, using XTBHOME instead
#  - the use of '-opt' is discouraged, please use '--opt' next time
########################################################################

           ------------------------------------------------- 
          |                 G F N 2 - x T B                 |
          | Geometry, Frequencies, Noncovalent interactions |
          |            JCTC 2019 parametrisation            |
           ------------------------------------------------- 
             KAB for C  - Si     :                1.0500
             KAB for H  - Pd     :                0.9500
             k(s)              :                1.8500
             k(p)              :                2.2300
             k(d)              :                2.2300
             k(f)              :                2.0000
             kEN (H0ij)        :               -2.0000
             D4 a1             :                0.5200
             D4 a2             :                5.0000
             D4 s6             :                1.0000
             D4 s8             :                2.7000
             D4 s9             :                5.0000
             alphaj            :                2.0000

  Z AO/shell   Hii/eV     exponent
  1     Wed Apr 25 08:07:45 CEST 2018   EN: 2.200 GM2: 0.406  GM3: 0.0800  RAES: 1.40
     1s    -10.707211    1.230000
  6     Wed Apr 25 08:07:45 CEST 2018   EN: 2.550 GM2: 0.538  GM3: 0.1500  RAES: 3.00
     2s    -13.970922    2.096432
     2p    -10.063292    1.800000
  7     Wed Apr 25 08:07:45 CEST 2018   EN: 3.040 GM2: 0.461  GM3:-0.0640  RAES: 1.90
     2s    -16.686243    2.339881
     2p    -12.523956    2.014332
  8     Wed Apr 25 08:07:45 CEST 2018   EN: 3.440 GM2: 0.452  GM3:-0.0517  RAES: 1.80
     2s    -20.229985    2.439742
     2p    -15.503117    2.137023
 16     Tue Apr 24 11:44:34 CEST 2018   EN: 2.580 GM2: 0.340  GM3:-0.0502  RAES: 3.10
     3s    -20.029654    1.981333
     3p    -11.377694    2.025643
     3d     -0.420282    1.702555

           ------------------------------------------------- 
          |        Self-Consistent Charge Iterations        |
           ------------------------------------------------- 

          ...................................................
          :                      SETUP                      :
          :.................................................:
          :  # basis functions                 326          :
          :  # atomic orbitals                 318          :
          :  # shells                          154          :
          :  # electrons                       310          :
          :  max. iterations                   250          :
          :  Hamiltonian                  GFN2-xTB          :
          :  restarted?                      false          :
          :  GBSA solvation                  false          :
          :  PC potential                    false          :
          :  electronic temp.          300.0000000     K    :
          :  accuracy                    1.0000000          :
          :  -> integral cutoff          0.2500000E+02      :
          :  -> integral neglect         0.1000000E-07      :
          :  -> SCF convergence          0.1000000E-05 Eh   :
          :  -> wf. convergence          0.1000000E-03 e    :
          :  Broyden damping             0.4000000          :
          ...................................................

 iter      E             dE          RMSdq      gap      omega  full diag
   1   -172.6688583 -0.172669E+03  0.601E+00    1.19       0.0  T
   2   -172.8118793 -0.143021E+00  0.398E+00    0.97       1.0  T
   3   -172.6974927  0.114387E+00  0.290E+00    0.70       1.0  T
   4   -173.0932630 -0.395770E+00  0.132E+00    0.88       1.0  T
   5   -173.1494148 -0.561518E-01  0.732E-01    0.76       1.0  T
   6   -173.1899353 -0.405205E-01  0.155E-01    0.80       1.0  T
   7   -173.1903091 -0.373834E-03  0.856E-02    0.82       1.0  T
   8   -173.1906255 -0.316392E-03  0.335E-02    0.82       1.0  T
   9   -173.1906657 -0.401950E-04  0.154E-02    0.81       1.0  T
  10   -173.1906721 -0.639878E-05  0.784E-03    0.81       1.4  T
  11   -173.1906745 -0.236348E-05  0.360E-03    0.81       3.1  T
  12   -173.1906749 -0.436553E-06  0.183E-03    0.81       6.1  T
  13   -173.1906750 -0.874801E-07  0.101E-03    0.81      11.1  T
  14   -173.1906751 -0.349671E-07  0.484E-04    0.81      23.1  T
  15   -173.1906751 -0.823346E-08  0.211E-04    0.81      53.0  T

   *** convergence criteria satisfied after 15 iterations ***

         #    Occupation            Energy/Eh            Energy/eV
      -------------------------------------------------------------
         1        2.0000           -0.7793615             -21.2075
       ...           ...                  ...                  ...
       149        2.0000           -0.4310715             -11.7301
       150        2.0000           -0.4287264             -11.6662
       151        2.0000           -0.4270646             -11.6210
       152        2.0000           -0.4240029             -11.5377
       153        2.0000           -0.4116176             -11.2007
       154        2.0000           -0.3974236             -10.8144
       155        2.0000           -0.3849382             -10.4747 (HOMO)
       156        0.0000           -0.3551426              -9.6639 (LUMO)
       157                         -0.3526563              -9.5963
       158                         -0.3503317              -9.5330
       159                         -0.3336684              -9.0796
       160                         -0.3331537              -9.0656
       ...                                ...                  ...
       318                          1.0727749              29.1917
      -------------------------------------------------------------
                  HL-Gap            0.0297956 Eh            0.8108 eV
             Fermi-level           -0.3700767 Eh          -10.0703 eV

 SCC (total)                   0 d,  0 h,  0 min,  0.186 sec
 SCC setup                      ...        0 min,  0.002 sec (  0.882%)
 Dispersion                     ...        0 min,  0.003 sec (  1.696%)
 integral evaluation            ...        0 min,  0.021 sec ( 11.314%)
 zeroth order Hamiltonian       ...        0 min,  0.001 sec (  0.558%)
 iterations                     ...        0 min,  0.143 sec ( 77.199%)
 molecular gradient             ...        0 min,  0.015 sec (  7.928%)
 printout                       ...        0 min,  0.001 sec (  0.374%)

         :::::::::::::::::::::::::::::::::::::::::::::::::::::
         ::                     SUMMARY                     ::
         :::::::::::::::::::::::::::::::::::::::::::::::::::::
         :: total energy            -170.708015652645 Eh    ::
         :: gradient norm              0.311642787023 Eh/a0 ::
         :: HOMO-LUMO gap              0.810780538816 eV    ::
         ::.................................................::
         :: SCC energy              -173.190675062764 Eh    ::
         :: -> isotropic ES            0.143855971372 Eh    ::
         :: -> anisotropic ES          0.029645027972 Eh    ::
         :: -> anisotropic XC          0.129583197862 Eh    ::
         :: -> dispersion             -0.137611648026 Eh    ::
         :: repulsion energy           2.484829796162 Eh    ::
         :: add. restraining           0.000000000000 Eh    ::
         :::::::::::::::::::::::::::::::::::::::::::::::::::::

      ----------------------------------------------------------- 
     |                   =====================                   |
     |                        A N C O P T                        |
     |                   =====================                   |
     |               Approximate Normal Coordinate               |
     |                Rational Function Optimizer                |
      ----------------------------------------------------------- 

          ...................................................
          :                      SETUP                      :
          :.................................................:
          :   optimization level            normal          :
          :   max. optcycles                   240          :
          :   ANC micro-cycles                  20          :
          :   degrees of freedom               234          :
          :.................................................:
          :   RF solver                   davidson          :
          :   input Hessian                  false          :
          :   write xtbopt.log                true          :
          :   linear?                        false          :
          :   energy convergence         0.5000000E-05 Eh   :
          :   grad. convergence          0.1000000E-02 Eh/α :
          :   maximium RF displ.         2.0000000          :
          :   Hlow (freq-cutoff)         0.5000000E-02      :
          :   Hmax (freq-cutoff)         5.0000000          :
          :   S6 in model hess.         20.0000000          :
          ...................................................

generating ANC from model Hessian ...
Using Lindh-Hessian (1995)
 Shifting diagonal of input Hessian by   4.983705277833279E-003
 Lowest  eigenvalues of input Hessian
   -0.000000   -0.000000    0.000000    0.000000    0.000000    0.000000
    0.005000    0.005014    0.005040    0.005071    0.005200    0.005266
    0.005299    0.005344    0.005490    0.005533    0.005614    0.005710
 Highest eigenvalues
    2.467710    2.515649    2.517773    2.519687    2.587295    2.588814
 

........................................................................
.............................. CYCLE    1 ..............................
........................................................................
   1   -173.1906751 -0.173191E+03  0.101E-04    0.81       0.0  T
   2   -173.1906751 -0.152056E-10  0.814E-05    0.81     137.3  T
   3   -173.1906751 -0.302890E-09  0.513E-05    0.81     217.9  T
     SCC iter.                  ...        0 min,  0.029 sec
     gradient                   ...        0 min,  0.014 sec
 * total energy  :  -170.7080156 Eh     change        0.4839194E-07 Eh
   gradient norm :     0.3116429 Eh/α   predicted     0.0000000E+00 (-100.00%)
   displ. norm   :     0.4014478 α      lambda       -0.8570690E-01
   maximum displ.:     0.1052413 α      in ANC's #154, #143, #142, ...

........................................................................
.............................. CYCLE    2 ..............................
........................................................................
   1   -173.3498647 -0.173350E+03  0.354E-01    0.78       0.0  T
   2   -173.3501550 -0.290332E-03  0.233E-01    0.78       1.0  T
   3   -173.3495795  0.575504E-03  0.164E-01    0.78       1.0  T
   4   -173.3513799 -0.180038E-02  0.430E-02    0.77       1.0  T
   5   -173.3514410 -0.611465E-04  0.219E-02    0.78       1.0  T
   6   -173.3514712 -0.301736E-04  0.769E-03    0.78       1.5  T
   7   -173.3514726 -0.139453E-05  0.439E-03    0.78       2.5  T
   8   -173.3514737 -0.112972E-05  0.199E-03    0.78       5.6  T
     SCC iter.                  ...        0 min,  0.071 sec
     gradient                   ...        0 min,  0.013 sec
 * total energy  :  -170.7624402 Eh     change       -0.5442458E-01 Eh
   gradient norm :     0.0872494 Eh/α   predicted    -0.4976008E-01 (  -8.57%)
   displ. norm   :     0.4960957 α      lambda       -0.1787404E-01
   maximum displ.:     0.1856439 α      in ANC's #41, #39, #29, ...

........................................................................
.............................. CYCLE    3 ..............................
........................................................................
   1   -173.3860644 -0.173386E+03  0.323E-01    0.71       0.0  T
   2   -173.3862079 -0.143467E-03  0.184E-01    0.72       1.0  T
   3   -173.3850669  0.114102E-02  0.134E-01    0.72       1.0  T
   4   -173.3865774 -0.151050E-02  0.292E-02    0.72       1.0  T
   5   -173.3865996 -0.222450E-04  0.175E-02    0.72       1.0  T
   6   -173.3866165 -0.168442E-04  0.516E-03    0.72       2.2  T
   7   -173.3866169 -0.460379E-06  0.235E-03    0.72       4.8  T
   8   -173.3866171 -0.180901E-06  0.124E-03    0.72       9.0  T
     SCC iter.                  ...        0 min,  0.072 sec
     gradient                   ...        0 min,  0.013 sec
 * total energy  :  -170.7736259 Eh     change       -0.1118575E-01 Eh
   gradient norm :     0.0559531 Eh/α   predicted    -0.1113653E-01 (  -0.44%)
   displ. norm   :     0.6580655 α      lambda       -0.1310006E-01
   maximum displ.:     0.1974643 α      in ANC's #16, #41, #49, ...

........................................................................
.............................. CYCLE    4 ..............................
........................................................................
   1   -173.3957779 -0.173396E+03  0.431E-01    0.66       0.0  T
   2   -173.3959964 -0.218509E-03  0.237E-01    0.67       1.0  T
   3   -173.3947716  0.122482E-02  0.128E-01    0.66       1.0  T
   4   -173.3961810 -0.140936E-02  0.292E-02    0.67       1.0  T
   5   -173.3961959 -0.149617E-04  0.184E-02    0.67       1.0  T
   6   -173.3962152 -0.192661E-04  0.641E-03    0.67       1.7  T
   7   -173.3962170 -0.182538E-05  0.253E-03    0.67       4.4  T
   8   -173.3962171 -0.119172E-06  0.158E-03    0.67       7.1  T
     SCC iter.                  ...        0 min,  0.072 sec
     gradient                   ...        0 min,  0.013 sec
 * total energy  :  -170.7771909 Eh     change       -0.3564978E-02 Eh
   gradient norm :     0.0494608 Eh/α   predicted    -0.9386554E-02 ( 163.30%)
   displ. norm   :     0.4717687 α      lambda       -0.9246846E-02
   maximum displ.:     0.2099110 α      in ANC's #3, #41, #6, ...

........................................................................
.............................. CYCLE    5 ..............................
........................................................................
   1   -173.4027201 -0.173403E+03  0.341E-01    0.65       0.0  T
   2   -173.4028690 -0.148853E-03  0.188E-01    0.66       1.0  T
   3   -173.4024609  0.408059E-03  0.745E-02    0.65       1.0  T
   4   -173.4029401 -0.479178E-03  0.185E-02    0.65       1.0  T
   5   -173.4029538 -0.136396E-04  0.952E-03    0.65       1.2  T
   6   -173.4029584 -0.464550E-05  0.421E-03    0.65       2.7  T
   7   -173.4029589 -0.481754E-06  0.242E-03    0.65       4.6  T
     SCC iter.                  ...        0 min,  0.063 sec
     gradient                   ...        0 min,  0.013 sec
 * total energy  :  -170.7822539 Eh     change       -0.5063034E-02 Eh
   gradient norm :     0.0521241 Eh/α   predicted    -0.5652445E-02 (  11.64%)
   displ. norm   :     0.5089756 α      lambda       -0.6696845E-02
   maximum displ.:     0.1740703 α      in ANC's #23, #29, #30, ...

........................................................................
.............................. CYCLE    6 ..............................
........................................................................
   1   -173.3960368 -0.173396E+03  0.339E-01    0.67       0.0  T
   2   -173.3962868 -0.249984E-03  0.192E-01    0.67       1.0  T
   3   -173.3957242  0.562532E-03  0.934E-02    0.67       1.0  T
   4   -173.3963567 -0.632448E-03  0.316E-02    0.67       1.0  T
   5   -173.3964269 -0.702162E-04  0.112E-02    0.67       1.0  T
   6   -173.3964300 -0.307102E-05  0.572E-03    0.67       2.0  T
   7   -173.3964312 -0.128291E-05  0.274E-03    0.67       4.1  T
     SCC iter.                  ...        0 min,  0.063 sec
     gradient                   ...        0 min,  0.013 sec
 * total energy  :  -170.7824739 Eh     change       -0.2200032E-03 Eh
   gradient norm :     0.0557668 Eh/α   predicted    -0.4215853E-02 (1816.27%)
   displ. norm   :     0.3848062 α      lambda       -0.7341495E-02
   maximum displ.:     0.1438017 α      in ANC's #16, #9, #27, ...

........................................................................
.............................. CYCLE    7 ..............................
........................................................................
   1   -173.4140045 -0.173414E+03  0.309E-01    0.65       0.0  T
   2   -173.4141345 -0.130006E-03  0.170E-01    0.66       1.0  T
   3   -173.4140295  0.105004E-03  0.484E-02    0.65       1.0  T
   4   -173.4141783 -0.148761E-03  0.148E-02    0.66       1.0  T
   5   -173.4141922 -0.139802E-04  0.707E-03    0.66       1.6  T
   6   -173.4141942 -0.192111E-05  0.369E-03    0.66       3.0  T
   7   -173.4141949 -0.779713E-06  0.146E-03    0.66       7.7  T
     SCC iter.                  ...        0 min,  0.063 sec
     gradient                   ...        0 min,  0.013 sec
 * total energy  :  -170.7863432 Eh     change       -0.3869301E-02 Eh
   gradient norm :     0.0420884 Eh/α   predicted    -0.4214300E-02 (   8.92%)
   displ. norm   :     0.4918446 α      lambda       -0.5236600E-02
   maximum displ.:     0.1955992 α      in ANC's #3, #20, #6, ...

........................................................................
.............................. CYCLE    8 ..............................
........................................................................
   1   -173.3994109 -0.173399E+03  0.323E-01    0.63       0.0  T
   2   -173.3998776 -0.466632E-03  0.182E-01    0.64       1.0  T
   3   -173.3997323  0.145245E-03  0.885E-02    0.64       1.0  T
   4   -173.3999748 -0.242448E-03  0.298E-02    0.64       1.0  T
   5   -173.4000366 -0.618738E-04  0.114E-02    0.64       1.0  T
   6   -173.4000397 -0.308755E-05  0.632E-03    0.64       1.8  T
   7   -173.4000418 -0.212460E-05  0.285E-03    0.64       3.9  T
   8   -173.4000421 -0.201620E-06  0.142E-03    0.64       7.9  T
     SCC iter.                  ...        0 min,  0.077 sec
     gradient                   ...        0 min,  0.015 sec
 * total energy  :  -170.7860760 Eh     change        0.2672257E-03 Eh
   gradient norm :     0.0853167 Eh/α   predicted    -0.3251697E-02 (*******%)
   displ. norm   :     0.2635040 α      lambda       -0.5785738E-02
   maximum displ.:     0.1075549 α      in ANC's #16, #9, #44, ...

........................................................................
.............................. CYCLE    9 ..............................
........................................................................
   1   -173.4109273 -0.173411E+03  0.208E-01    0.65       0.0  T
   2   -173.4111899 -0.262616E-03  0.117E-01    0.65       1.0  T
   3   -173.4111740  0.158858E-04  0.612E-02    0.65       1.0  T
   4   -173.4112576 -0.835478E-04  0.189E-02    0.65       1.0  T
   5   -173.4112808 -0.232460E-04  0.684E-03    0.65       1.6  T
   6   -173.4112813 -0.454401E-06  0.396E-03    0.65       2.8  T
   7   -173.4112821 -0.875098E-06  0.173E-03    0.65       6.5  T
     SCC iter.                  ...        0 min,  0.064 sec
     gradient                   ...        0 min,  0.013 sec
 * total energy  :  -170.7895363 Eh     change       -0.3460307E-02 Eh
   gradient norm :     0.0240885 Eh/α   predicted    -0.3093739E-02 ( -10.59%)
   displ. norm   :     0.4564184 α      lambda       -0.2249426E-02
   maximum displ.:     0.1579079 α      in ANC's #9, #16, #15, ...

........................................................................
.............................. CYCLE   10 ..............................
........................................................................
   1   -173.4136354 -0.173414E+03  0.239E-01    0.65       0.0  T
   2   -173.4137242 -0.887226E-04  0.132E-01    0.65       1.0  T
   3   -173.4135894  0.134792E-03  0.524E-02    0.65       1.0  T
   4   -173.4137495 -0.160190E-03  0.168E-02    0.65       1.0  T
   5   -173.4137604 -0.108749E-04  0.956E-03    0.65       1.2  T
   6   -173.4137648 -0.442090E-05  0.415E-03    0.65       2.7  T
   7   -173.4137659 -0.101401E-05  0.181E-03    0.65       6.2  T
     SCC iter.                  ...        0 min,  0.064 sec
     gradient                   ...        0 min,  0.013 sec
 * total energy  :  -170.7910330 Eh     change       -0.1496668E-02 Eh
   gradient norm :     0.0284940 Eh/α   predicted    -0.1359016E-02 (  -9.20%)
   displ. norm   :     0.6418779 α      lambda       -0.3094616E-02
   maximum displ.:     0.2325224 α      in ANC's #9, #3, #12, ...

........................................................................
.............................. CYCLE   11 ..............................
........................................................................
   1   -173.4129745 -0.173413E+03  0.320E-01    0.66       0.0  T
   2   -173.4131560 -0.181503E-03  0.175E-01    0.66       1.0  T
   3   -173.4130015  0.154514E-03  0.630E-02    0.66       1.0  T
   4   -173.4132086 -0.207112E-03  0.209E-02    0.66       1.0  T
   5   -173.4132246 -0.160477E-04  0.107E-02    0.66       1.0  T
   6   -173.4132281 -0.347870E-05  0.432E-03    0.66       2.6  T
   7   -173.4132292 -0.113816E-05  0.196E-03    0.66       5.7  T
     SCC iter.                  ...        0 min,  0.064 sec
     gradient                   ...        0 min,  0.013 sec
 * total energy  :  -170.7931813 Eh     change       -0.2148338E-02 Eh
   gradient norm :     0.0247093 Eh/α   predicted    -0.2184812E-02 (   1.70%)
   displ. norm   :     0.5942016 α      lambda       -0.2835288E-02
   maximum displ.:     0.2203473 α      in ANC's #9, #3, #12, ...

........................................................................
.............................. CYCLE   12 ..............................
........................................................................
   1   -173.4191952 -0.173419E+03  0.315E-01    0.66       0.0  T
   2   -173.4193534 -0.158135E-03  0.174E-01    0.66       1.0  T
   3   -173.4191587  0.194687E-03  0.633E-02    0.66       1.0  T
   4   -173.4193866 -0.227908E-03  0.225E-02    0.66       1.0  T
   5   -173.4194144 -0.278206E-04  0.106E-02    0.66       1.1  T
   6   -173.4194189 -0.448681E-05  0.485E-03    0.66       2.3  T
   7   -173.4194202 -0.133850E-05  0.225E-03    0.66       5.0  T
     SCC iter.                  ...        0 min,  0.063 sec
     gradient                   ...        0 min,  0.013 sec
 * total energy  :  -170.7944616 Eh     change       -0.1280300E-02 Eh
   gradient norm :     0.0409129 Eh/α   predicted    -0.1918184E-02 (  49.82%)
   displ. norm   :     0.5604579 α      lambda       -0.3287013E-02
   maximum displ.:     0.1916789 α      in ANC's #9, #12, #3, ...

........................................................................
.............................. CYCLE   13 ..............................
........................................................................
   1   -173.4133401 -0.173413E+03  0.334E-01    0.66       0.0  T
   2   -173.4137245 -0.384417E-03  0.184E-01    0.66       1.0  T
   3   -173.4136207  0.103868E-03  0.743E-02    0.66       1.0  T
   4   -173.4138010 -0.180323E-03  0.233E-02    0.66       1.0  T
   5   -173.4138262 -0.252368E-04  0.138E-02    0.66       1.0  T
   6   -173.4138358 -0.954607E-05  0.562E-03    0.66       2.0  T
   7   -173.4138363 -0.487998E-06  0.367E-03    0.66       3.0  T
   8   -173.4138369 -0.613046E-06  0.148E-03    0.66       7.5  T
     SCC iter.                  ...        0 min,  0.072 sec
     gradient                   ...        0 min,  0.013 sec
 * total energy  :  -170.7955450 Eh     change       -0.1083349E-02 Eh
   gradient norm :     0.0384697 Eh/α   predicted    -0.2159753E-02 (  99.36%)
   displ. norm   :     0.3853055 α      lambda       -0.2626494E-02
   maximum displ.:     0.1597567 α      in ANC's #9, #16, #6, ...

........................................................................
.............................. CYCLE   14 ..............................
........................................................................
   1   -173.3999179 -0.173400E+03  0.237E-01    0.66       0.0  T
   2   -173.4001220 -0.204126E-03  0.130E-01    0.66       1.0  T
   3   -173.4000124  0.109653E-03  0.596E-02    0.66       1.0  T
   4   -173.4001554 -0.142992E-03  0.222E-02    0.66       1.0  T
   5   -173.4001933 -0.378744E-04  0.711E-03    0.66       1.6  T
   6   -173.4001945 -0.119184E-05  0.368E-03    0.66       3.0  T
   7   -173.4001950 -0.518624E-06  0.184E-03    0.66       6.1  T
     SCC iter.                  ...        0 min,  0.064 sec
     gradient                   ...        0 min,  0.013 sec
 * total energy  :  -170.7959518 Eh     change       -0.4068088E-03 Eh
   gradient norm :     0.0612881 Eh/α   predicted    -0.1508216E-02 ( 270.74%)
   displ. norm   :     0.2869148 α      lambda       -0.3797255E-02
   maximum displ.:     0.0902021 α      in ANC's #12, #2, #8, ...

........................................................................
.............................. CYCLE   15 ..............................
........................................................................
   1   -173.4357129 -0.173436E+03  0.179E-01    0.67       0.0  T
   2   -173.4359416 -0.228741E-03  0.978E-02    0.66       1.0  T
   3   -173.4358618  0.797776E-04  0.550E-02    0.67       1.0  T
   4   -173.4359491 -0.872661E-04  0.258E-02    0.66       1.0  T
   5   -173.4360020 -0.529165E-04  0.813E-03    0.66       1.4  T
   6   -173.4360050 -0.294455E-05  0.433E-03    0.66       2.6  T
   7   -173.4360057 -0.744408E-06  0.238E-03    0.66       4.7  T
     SCC iter.                  ...        0 min,  0.064 sec
     gradient                   ...        0 min,  0.013 sec
 * total energy  :  -170.7958476 Eh     change        0.1042194E-03 Eh
   gradient norm :     0.0677658 Eh/α   predicted    -0.2054928E-02 (*******%)
   displ. norm   :     0.3545439 α      lambda       -0.4414608E-02
   maximum displ.:     0.1323470 α      in ANC's #3, #35, #42, ...

........................................................................
.............................. CYCLE   16 ..............................
........................................................................
   1   -173.4038452 -0.173404E+03  0.292E-01    0.65       0.0  T
   2   -173.4043808 -0.535576E-03  0.160E-01    0.66       1.0  T
   3   -173.4041987  0.182080E-03  0.783E-02    0.65       1.0  T
   4   -173.4044091 -0.210391E-03  0.332E-02    0.66       1.0  T
   5   -173.4044839 -0.747987E-04  0.144E-02    0.66       1.0  T
   6   -173.4044984 -0.144781E-04  0.564E-03    0.66       2.0  T
   7   -173.4044988 -0.399138E-06  0.375E-03    0.66       3.0  T
   8   -173.4044992 -0.430296E-06  0.141E-03    0.66       7.9  T
     SCC iter.                  ...        0 min,  0.072 sec
     gradient                   ...        0 min,  0.013 sec
 * total energy  :  -170.7958554 Eh     change       -0.7842735E-05 Eh
   gradient norm :     0.0666079 Eh/α   predicted    -0.2484770E-02 (*******%)
   displ. norm   :     0.3176283 α      lambda       -0.6883019E-02
   maximum displ.:     0.1024953 α      in ANC's #47, #36, #37, ...

........................................................................
.............................. CYCLE   17 ..............................
........................................................................
   1   -173.4045511 -0.173405E+03  0.346E-01    0.65       0.0  T
   2   -173.4063944 -0.184334E-02  0.184E-01    0.65       1.0  T
   3   -173.4066445 -0.250036E-03  0.105E-01    0.66       1.0  T
   4   -173.4067164 -0.719112E-04  0.408E-02    0.65       1.0  T
   5   -173.4068079 -0.914903E-04  0.188E-02    0.66       1.0  T
   6   -173.4068295 -0.216004E-04  0.829E-03    0.66       1.3  T
   7   -173.4068319 -0.245508E-05  0.503E-03    0.66       2.2  T
   8   -173.4068324 -0.521553E-06  0.232E-03    0.66       4.8  T
     SCC iter.                  ...        0 min,  0.072 sec
     gradient                   ...        0 min,  0.013 sec
 * total energy  :  -170.7940134 Eh     change        0.1842044E-02 Eh
   gradient norm :     0.0908464 Eh/α   predicted    -0.3788726E-02 (-305.68%)
   displ. norm   :     0.2855615 α      lambda       -0.8753615E-02
   maximum displ.:     0.1146509 α      in ANC's #42, #36, #38, ...

........................................................................
.............................. CYCLE   18 ..............................
........................................................................
   1   -173.4174015 -0.173417E+03  0.300E-01    0.66       0.0  T
   2   -173.4183825 -0.981032E-03  0.161E-01    0.66       1.0  T
   3   -173.4183932 -0.107063E-04  0.856E-02    0.66       1.0  T
   4   -173.4184462 -0.530256E-04  0.408E-02    0.66       1.0  T
   5   -173.4185645 -0.118315E-03  0.144E-02    0.66       1.0  T
   6   -173.4185753 -0.107242E-04  0.596E-03    0.66       1.9  T
   7   -173.4185753 -0.239970E-07  0.439E-03    0.66       2.5  T
   8   -173.4185761 -0.799393E-06  0.172E-03    0.66       6.5  T
     SCC iter.                  ...        0 min,  0.073 sec
     gradient                   ...        0 min,  0.013 sec
 * total energy  :  -170.7972143 Eh     change       -0.3200883E-02 Eh
   gradient norm :     0.0445982 Eh/α   predicted    -0.4733725E-02 (  47.89%)
   displ. norm   :     0.3704138 α      lambda       -0.5198027E-02
   maximum displ.:     0.1660188 α      in ANC's #42, #41, #27, ...

........................................................................
.............................. CYCLE   19 ..............................
........................................................................
   1   -173.4289257 -0.173429E+03  0.350E-01    0.65       0.0  T
   2   -173.4304162 -0.149047E-02  0.190E-01    0.66       1.0  T
   3   -173.4304007  0.154585E-04  0.110E-01    0.66       1.0  T
   4   -173.4306017 -0.200991E-03  0.519E-02    0.66       1.0  T
   5   -173.4307746 -0.172894E-03  0.224E-02    0.66       1.0  T
   6   -173.4308081 -0.334799E-04  0.894E-03    0.66       1.3  T
   7   -173.4308105 -0.239427E-05  0.538E-03    0.66       2.1  T
   8   -173.4308110 -0.542012E-06  0.246E-03    0.66       4.5  T
     SCC iter.                  ...        0 min,  0.073 sec
     gradient                   ...        0 min,  0.013 sec
 * total energy  :  -170.7927617 Eh     change        0.4452548E-02 Eh
   gradient norm :     0.1218637 Eh/α   predicted    -0.2955621E-02 (-166.38%)
   displ. norm   :     0.2318939 α      lambda       -0.1087885E-01
   maximum displ.:     0.0946481 α      in ANC's #42, #41, #39, ...

........................................................................
.............................. CYCLE   20 ..............................
........................................................................
   1   -173.4164996 -0.173416E+03  0.251E-01    0.65       0.0  T
   2   -173.4173873 -0.887693E-03  0.135E-01    0.65       1.0  T
   3   -173.4174475 -0.602252E-04  0.758E-02    0.66       1.0  T
   4   -173.4174889 -0.413945E-04  0.362E-02    0.65       1.0  T
   5   -173.4175752 -0.863044E-04  0.152E-02    0.66       1.0  T
   6   -173.4175908 -0.155849E-04  0.650E-03    0.65       1.7  T
   7   -173.4175926 -0.181992E-05  0.370E-03    0.65       3.0  T
   8   -173.4175928 -0.194270E-06  0.171E-03    0.65       6.5  T
     SCC iter.                  ...        0 min,  0.073 sec
     gradient                   ...        0 min,  0.013 sec
 * total energy  :  -170.7981727 Eh     change       -0.5410993E-02 Eh
   gradient norm :     0.0227565 Eh/α   predicted    -0.5731932E-02 (   5.93%)
   displ. norm   :     0.4011403 α      lambda       -0.2146911E-02
   maximum displ.:     0.1399078 α      in ANC's #12, #24, #9, ...
 * RMSD in coord.:     0.6209308 α      energy gain  -0.9015705E-01 Eh

generating ANC from model Hessian ...
Using Lindh-Hessian (1995)
 Shifting diagonal of input Hessian by   4.983885396364222E-003
 Lowest  eigenvalues of input Hessian
   -0.000000   -0.000000    0.000000    0.000000    0.000000    0.000000
    0.005000    0.005017    0.005077    0.005209    0.005221    0.005309
    0.005440    0.005601    0.005641    0.005668    0.005901    0.006105
 Highest eigenvalues
    2.584537    2.585311    2.641790    2.653473    2.655321    2.664001
 

........................................................................
.............................. CYCLE   21 ..............................
........................................................................
   1   -173.4072309 -0.173407E+03  0.304E-01    0.65       0.0  T
   2   -173.4073533 -0.122407E-03  0.169E-01    0.66       1.0  T
   3   -173.4070706  0.282720E-03  0.663E-02    0.65       1.0  T
   4   -173.4073960 -0.325387E-03  0.170E-02    0.66       1.0  T
   5   -173.4074160 -0.200421E-04  0.712E-03    0.66       1.6  T
   6   -173.4074176 -0.157748E-05  0.403E-03    0.66       2.8  T
   7   -173.4074184 -0.808772E-06  0.211E-03    0.66       5.3  T
   8   -173.4074186 -0.189842E-06  0.915E-04    0.66      12.2  T
   9   -173.4074187 -0.426518E-07  0.457E-04    0.66      24.5  T
     SCC iter.                  ...        0 min,  0.079 sec
     gradient                   ...        0 min,  0.014 sec
 * total energy  :  -170.7970873 Eh     change        0.1085364E-02 Eh
   gradient norm :     0.0442528 Eh/α   predicted     0.0000000E+00 (-100.00%)
   displ. norm   :     0.1976304 α      lambda       -0.2043557E-02
   maximum displ.:     0.0791320 α      in ANC's #11, #6, #3, ...

........................................................................
.............................. CYCLE   22 ..............................
........................................................................
   1   -173.4179355 -0.173418E+03  0.115E-01    0.66       0.0  T
   2   -173.4179624 -0.269143E-04  0.654E-02    0.66       1.0  T
   3   -173.4179070  0.553805E-04  0.304E-02    0.66       1.0  T
   4   -173.4179679 -0.608722E-04  0.967E-03    0.66       1.2  T
   5   -173.4179737 -0.587650E-05  0.383E-03    0.66       2.9  T
   6   -173.4179742 -0.448014E-06  0.190E-03    0.66       5.9  T
     SCC iter.                  ...        0 min,  0.055 sec
     gradient                   ...        0 min,  0.013 sec
 * total energy  :  -170.7982115 Eh     change       -0.1124121E-02 Eh
   gradient norm :     0.0159696 Eh/α   predicted    -0.1061694E-02 (  -5.55%)
   displ. norm   :     0.2220006 α      lambda       -0.1146189E-02
   maximum displ.:     0.0773540 α      in ANC's #20, #11, #27, ...

........................................................................
.............................. CYCLE   23 ..............................
........................................................................
   1   -173.4224328 -0.173422E+03  0.175E-01    0.66       0.0  T
   2   -173.4224682 -0.354004E-04  0.974E-02    0.65       1.0  T
   3   -173.4223262  0.141932E-03  0.448E-02    0.66       1.0  T
   4   -173.4224907 -0.164501E-03  0.842E-03    0.65       1.3  T
   5   -173.4224949 -0.420018E-05  0.380E-03    0.65       2.9  T
   6   -173.4224951 -0.187527E-06  0.244E-03    0.65       4.6  T
   7   -173.4224955 -0.361884E-06  0.109E-03    0.65      10.3  T
     SCC iter.                  ...        0 min,  0.064 sec
     gradient                   ...        0 min,  0.013 sec
 * total energy  :  -170.7984680 Eh     change       -0.2565104E-03 Eh
   gradient norm :     0.0261162 Eh/α   predicted    -0.6013429E-03 ( 134.43%)
   displ. norm   :     0.2255029 α      lambda       -0.1279556E-02
   maximum displ.:     0.0854827 α      in ANC's #11, #14, #26, ...

........................................................................
.............................. CYCLE   24 ..............................
........................................................................
   1   -173.4254438 -0.173425E+03  0.153E-01    0.65       0.0  T
   2   -173.4254684 -0.246434E-04  0.848E-02    0.65       1.0  T
   3   -173.4254559  0.124964E-04  0.181E-02    0.65       1.0  T
   4   -173.4254785 -0.225461E-04  0.549E-03    0.65       2.0  T
   5   -173.4254794 -0.923272E-06  0.326E-03    0.65       3.4  T
   6   -173.4254797 -0.338291E-06  0.164E-03    0.65       6.8  T
     SCC iter.                  ...        0 min,  0.054 sec
     gradient                   ...        0 min,  0.013 sec
 * total energy  :  -170.7991987 Eh     change       -0.7307376E-03 Eh
   gradient norm :     0.0160108 Eh/α   predicted    -0.6723137E-03 (  -8.00%)
   displ. norm   :     0.3051537 α      lambda       -0.1135926E-02
   maximum displ.:     0.1122891 α      in ANC's #11, #6, #3, ...

........................................................................
.............................. CYCLE   25 ..............................
........................................................................
   1   -173.4186767 -0.173419E+03  0.193E-01    0.65       0.0  T
   2   -173.4187117 -0.349851E-04  0.108E-01    0.65       1.0  T
   3   -173.4186915  0.201988E-04  0.215E-02    0.65       1.0  T
   4   -173.4187222 -0.306975E-04  0.912E-03    0.65       1.2  T
   5   -173.4187260 -0.376603E-05  0.455E-03    0.65       2.5  T
   6   -173.4187265 -0.536388E-06  0.231E-03    0.65       4.8  T
   7   -173.4187267 -0.226407E-06  0.130E-03    0.65       8.6  T
     SCC iter.                  ...        0 min,  0.064 sec
     gradient                   ...        0 min,  0.013 sec
 * total energy  :  -170.7994900 Eh     change       -0.2912486E-03 Eh
   gradient norm :     0.0178892 Eh/α   predicted    -0.6208511E-03 ( 113.17%)
   displ. norm   :     0.2164470 α      lambda       -0.7933496E-03
   maximum displ.:     0.0832959 α      in ANC's #11, #6, #3, ...

........................................................................
.............................. CYCLE   26 ..............................
........................................................................
   1   -173.4170246 -0.173417E+03  0.140E-01    0.65       0.0  T
   2   -173.4170444 -0.197144E-04  0.773E-02    0.65       1.0  T
   3   -173.4170192  0.251922E-04  0.212E-02    0.65       1.0  T
   4   -173.4170527 -0.335189E-04  0.590E-03    0.65       1.9  T
   5   -173.4170540 -0.128044E-05  0.331E-03    0.65       3.4  T
   6   -173.4170543 -0.320841E-06  0.162E-03    0.65       6.9  T
   7   -173.4170544 -0.118599E-06  0.860E-04    0.65      13.0  T
     SCC iter.                  ...        0 min,  0.064 sec
     gradient                   ...        0 min,  0.013 sec
 * total energy  :  -170.7998451 Eh     change       -0.3551021E-03 Eh
   gradient norm :     0.0124469 Eh/α   predicted    -0.4152667E-03 (  16.94%)
   displ. norm   :     0.2483341 α      lambda       -0.7172611E-03
   maximum displ.:     0.0837311 α      in ANC's #11, #6, #3, ...

........................................................................
.............................. CYCLE   27 ..............................
........................................................................
   1   -173.4201114 -0.173420E+03  0.155E-01    0.65       0.0  T
   2   -173.4201389 -0.274736E-04  0.862E-02    0.65       1.0  T
   3   -173.4200470  0.918894E-04  0.378E-02    0.65       1.0  T
   4   -173.4201548 -0.107755E-03  0.895E-03    0.65       1.2  T
   5   -173.4201590 -0.425085E-05  0.390E-03    0.65       2.9  T
   6   -173.4201591 -0.102242E-06  0.189E-03    0.65       5.9  T
   7   -173.4201593 -0.198906E-06  0.963E-04    0.65      11.6  T
     SCC iter.                  ...        0 min,  0.068 sec
     gradient                   ...        0 min,  0.015 sec
 * total energy  :  -170.7999675 Eh     change       -0.1224506E-03 Eh
   gradient norm :     0.0153470 Eh/α   predicted    -0.3807481E-03 ( 210.94%)
   displ. norm   :     0.1241008 α      lambda       -0.4579581E-03
   maximum displ.:     0.0472014 α      in ANC's #11, #6, #3, ...

........................................................................
.............................. CYCLE   28 ..............................
........................................................................
   1   -173.4218714 -0.173422E+03  0.645E-02    0.65       0.0  T
   2   -173.4218760 -0.459901E-05  0.364E-02    0.65       1.0  T
   3   -173.4218675  0.850824E-05  0.122E-02    0.65       1.0  T
   4   -173.4218775 -0.997188E-05  0.418E-03    0.65       2.7  T
   5   -173.4218783 -0.852807E-06  0.189E-03    0.65       5.9  T
   6   -173.4218784 -0.763356E-07  0.845E-04    0.65      13.2  T
     SCC iter.                  ...        0 min,  0.055 sec
     gradient                   ...        0 min,  0.013 sec
 * total energy  :  -170.8002677 Eh     change       -0.3001949E-03 Eh
   gradient norm :     0.0068845 Eh/α   predicted    -0.2325057E-03 ( -22.55%)
   displ. norm   :     0.2818541 α      lambda       -0.3252681E-03
   maximum displ.:     0.1102448 α      in ANC's #6, #11, #3, ...

........................................................................
.............................. CYCLE   29 ..............................
........................................................................
   1   -173.4190933 -0.173419E+03  0.110E-01    0.65       0.0  T
   2   -173.4191022 -0.890073E-05  0.604E-02    0.65       1.0  T
   3   -173.4190862  0.160137E-04  0.165E-02    0.65       1.0  T
   4   -173.4191051 -0.188889E-04  0.681E-03    0.65       1.6  T
   5   -173.4191064 -0.129311E-05  0.312E-03    0.65       3.6  T
   6   -173.4191070 -0.554995E-06  0.138E-03    0.65       8.1  T
   7   -173.4191071 -0.101957E-06  0.748E-04    0.65      14.9  T
     SCC iter.                  ...        0 min,  0.063 sec
     gradient                   ...        0 min,  0.013 sec
 * total energy  :  -170.8004963 Eh     change       -0.2286050E-03 Eh
   gradient norm :     0.0062682 Eh/α   predicted    -0.1755531E-03 ( -23.21%)
   displ. norm   :     0.4416247 α      lambda       -0.3892483E-03
   maximum displ.:     0.1754296 α      in ANC's #6, #11, #3, ...

........................................................................
.............................. CYCLE   30 ..............................
........................................................................
   1   -173.4169470 -0.173417E+03  0.158E-01    0.66       0.0  T
   2   -173.4169641 -0.170798E-04  0.863E-02    0.66       1.0  T
   3   -173.4169337  0.303313E-04  0.240E-02    0.66       1.0  T
   4   -173.4169689 -0.351465E-04  0.108E-02    0.66       1.0  T
   5   -173.4169718 -0.292618E-05  0.437E-03    0.66       2.6  T
   6   -173.4169732 -0.142319E-05  0.163E-03    0.66       6.8  T
   7   -173.4169733 -0.642759E-07  0.105E-03    0.66      10.7  T
     SCC iter.                  ...        0 min,  0.063 sec
     gradient                   ...        0 min,  0.013 sec
 * total energy  :  -170.8008008 Eh     change       -0.3044930E-03 Eh
   gradient norm :     0.0090797 Eh/α   predicted    -0.2325854E-03 ( -23.62%)
   displ. norm   :     0.5664669 α      lambda       -0.5102458E-03
   maximum displ.:     0.2293056 α      in ANC's #6, #3, #2, ...

........................................................................
.............................. CYCLE   31 ..............................
........................................................................
   1   -173.4185333 -0.173419E+03  0.201E-01    0.66       0.0  T
   2   -173.4185621 -0.288777E-04  0.108E-01    0.66       1.0  T
   3   -173.4184987  0.634312E-04  0.333E-02    0.66       1.0  T
   4   -173.4185690 -0.702810E-04  0.150E-02    0.66       1.0  T
   5   -173.4185758 -0.682637E-05  0.619E-03    0.66       1.8  T
   6   -173.4185781 -0.224538E-05  0.233E-03    0.66       4.8  T
   7   -173.4185783 -0.269058E-06  0.130E-03    0.66       8.6  T
     SCC iter.                  ...        0 min,  0.063 sec
     gradient                   ...        0 min,  0.013 sec
 * total energy  :  -170.8011892 Eh     change       -0.3884404E-03 Eh
   gradient norm :     0.0121013 Eh/α   predicted    -0.3369889E-03 ( -13.25%)
   displ. norm   :     0.6000877 α      lambda       -0.5291713E-03
   maximum displ.:     0.2449838 α      in ANC's #6, #3, #2, ...

........................................................................
.............................. CYCLE   32 ..............................
........................................................................
   1   -173.4141217 -0.173414E+03  0.223E-01    0.66       0.0  T
   2   -173.4141581 -0.363397E-04  0.120E-01    0.66       1.0  T
   3   -173.4140908  0.672773E-04  0.347E-02    0.66       1.0  T
   4   -173.4141657 -0.749161E-04  0.162E-02    0.66       1.0  T
   5   -173.4141735 -0.781704E-05  0.688E-03    0.66       1.6  T
   6   -173.4141769 -0.334112E-05  0.253E-03    0.66       4.4  T
   7   -173.4141771 -0.253812E-06  0.154E-03    0.66       7.3  T
   8   -173.4141772 -0.875701E-07  0.848E-04    0.66      13.2  T
     SCC iter.                  ...        0 min,  0.073 sec
     gradient                   ...        0 min,  0.013 sec
 * total energy  :  -170.8015698 Eh     change       -0.3805714E-03 Eh
   gradient norm :     0.0109688 Eh/α   predicted    -0.3598679E-03 (  -5.44%)
   displ. norm   :     0.4957009 α      lambda       -0.4924751E-03
   maximum displ.:     0.2035961 α      in ANC's #6, #3, #2, ...

........................................................................
.............................. CYCLE   33 ..............................
........................................................................
   1   -173.4169817 -0.173417E+03  0.182E-01    0.65       0.0  T
   2   -173.4170170 -0.352570E-04  0.965E-02    0.65       1.0  T
   3   -173.4169173  0.997133E-04  0.379E-02    0.66       1.0  T
   4   -173.4170244 -0.107141E-03  0.154E-02    0.65       1.0  T
   5   -173.4170345 -0.101395E-04  0.721E-03    0.66       1.6  T
   6   -173.4170364 -0.186128E-05  0.296E-03    0.65       3.8  T
   7   -173.4170370 -0.575614E-06  0.122E-03    0.66       9.2  T
     SCC iter.                  ...        0 min,  0.063 sec
     gradient                   ...        0 min,  0.013 sec
 * total energy  :  -170.8018961 Eh     change       -0.3262468E-03 Eh
   gradient norm :     0.0121944 Eh/α   predicted    -0.3067473E-03 (  -5.98%)
   displ. norm   :     0.6016978 α      lambda       -0.5505814E-03
   maximum displ.:     0.2487601 α      in ANC's #6, #3, #2, ...

........................................................................
.............................. CYCLE   34 ..............................
........................................................................
   1   -173.4151826 -0.173415E+03  0.224E-01    0.65       0.0  T
   2   -173.4152345 -0.518405E-04  0.121E-01    0.65       1.0  T
   3   -173.4151328  0.101653E-03  0.398E-02    0.65       1.0  T
   4   -173.4152404 -0.107529E-03  0.185E-02    0.65       1.0  T
   5   -173.4152554 -0.150160E-04  0.793E-03    0.65       1.4  T
   6   -173.4152584 -0.303796E-05  0.349E-03    0.65       3.2  T
   7   -173.4152590 -0.629689E-06  0.166E-03    0.65       6.7  T
   8   -173.4152592 -0.115077E-06  0.895E-04    0.65      12.5  T
     SCC iter.                  ...        0 min,  0.072 sec
     gradient                   ...        0 min,  0.013 sec
 * total energy  :  -170.8022435 Eh     change       -0.3474672E-03 Eh
   gradient norm :     0.0131040 Eh/α   predicted    -0.3749631E-03 (   7.91%)
   displ. norm   :     0.4028959 α      lambda       -0.5295142E-03
   maximum displ.:     0.1694934 α      in ANC's #2, #3, #6, ...

........................................................................
.............................. CYCLE   35 ..............................
........................................................................
   1   -173.4208927 -0.173421E+03  0.157E-01    0.65       0.0  T
   2   -173.4209370 -0.442827E-04  0.843E-02    0.65       1.0  T
   3   -173.4208268  0.110205E-03  0.401E-02    0.65       1.0  T
   4   -173.4209471 -0.120234E-03  0.147E-02    0.65       1.0  T
   5   -173.4209608 -0.137099E-04  0.610E-03    0.65       1.8  T
   6   -173.4209616 -0.790202E-06  0.332E-03    0.65       3.4  T
   7   -173.4209623 -0.744937E-06  0.109E-03    0.65      10.3  T
   8   -173.4209623 -0.406878E-07  0.626E-04    0.65      17.8  T
     SCC iter.                  ...        0 min,  0.072 sec
     gradient                   ...        0 min,  0.013 sec
 * total energy  :  -170.8025294 Eh     change       -0.2858367E-03 Eh
   gradient norm :     0.0113375 Eh/α   predicted    -0.3077361E-03 (   7.66%)
   displ. norm   :     0.5495908 α      lambda       -0.5437072E-03
   maximum displ.:     0.2329259 α      in ANC's #6, #3, #2, ...

........................................................................
.............................. CYCLE   36 ..............................
........................................................................
   1   -173.4152237 -0.173415E+03  0.212E-01    0.65       0.0  T
   2   -173.4152631 -0.393809E-04  0.115E-01    0.65       1.0  T
   3   -173.4151722  0.908745E-04  0.380E-02    0.65       1.0  T
   4   -173.4152734 -0.101138E-03  0.152E-02    0.65       1.0  T
   5   -173.4152810 -0.762353E-05  0.670E-03    0.65       1.7  T
   6   -173.4152837 -0.266977E-05  0.290E-03    0.65       3.9  T
   7   -173.4152841 -0.454435E-06  0.136E-03    0.65       8.2  T
     SCC iter.                  ...        0 min,  0.063 sec
     gradient                   ...        0 min,  0.013 sec
 * total energy  :  -170.8027014 Eh     change       -0.1720422E-03 Eh
   gradient norm :     0.0145294 Eh/α   predicted    -0.3539663E-03 ( 105.74%)
   displ. norm   :     0.2696845 α      lambda       -0.3945115E-03
   maximum displ.:     0.1226459 α      in ANC's #2, #3, #6, ...

........................................................................
.............................. CYCLE   37 ..............................
........................................................................
   1   -173.4155217 -0.173416E+03  0.110E-01    0.65       0.0  T
   2   -173.4155323 -0.106114E-04  0.591E-02    0.65       1.0  T
   3   -173.4155118  0.204215E-04  0.193E-02    0.65       1.0  T
   4   -173.4155358 -0.239995E-04  0.719E-03    0.65       1.6  T
   5   -173.4155370 -0.113919E-05  0.363E-03    0.65       3.1  T
   6   -173.4155378 -0.810482E-06  0.128E-03    0.65       8.7  T
   7   -173.4155379 -0.101427E-06  0.543E-04    0.65      20.6  T
     SCC iter.                  ...        0 min,  0.063 sec
     gradient                   ...        0 min,  0.013 sec
 * total energy  :  -170.8029394 Eh     change       -0.2379924E-03 Eh
   gradient norm :     0.0134660 Eh/α   predicted    -0.2116027E-03 ( -11.09%)
   displ. norm   :     0.2580128 α      lambda       -0.4020750E-03
   maximum displ.:     0.1317495 α      in ANC's #2, #3, #6, ...

........................................................................
.............................. CYCLE   38 ..............................
........................................................................
   1   -173.4178169 -0.173418E+03  0.107E-01    0.65       0.0  T
   2   -173.4178404 -0.234767E-04  0.565E-02    0.65       1.0  T
   3   -173.4178225  0.179028E-04  0.206E-02    0.65       1.0  T
   4   -173.4178437 -0.211995E-04  0.858E-03    0.65       1.3  T
   5   -173.4178472 -0.347504E-05  0.414E-03    0.65       2.7  T
   6   -173.4178479 -0.672601E-06  0.146E-03    0.65       7.7  T
   7   -173.4178480 -0.944275E-07  0.759E-04    0.65      14.7  T
     SCC iter.                  ...        0 min,  0.064 sec
     gradient                   ...        0 min,  0.014 sec
 * total energy  :  -170.8031175 Eh     change       -0.1780927E-03 Eh
   gradient norm :     0.0091025 Eh/α   predicted    -0.2144278E-03 (  20.40%)
   displ. norm   :     0.4287582 α      lambda       -0.4152566E-03
   maximum displ.:     0.2083624 α      in ANC's #2, #3, #6, ...

........................................................................
.............................. CYCLE   39 ..............................
........................................................................
   1   -173.4230327 -0.173423E+03  0.167E-01    0.65       0.0  T
   2   -173.4230625 -0.298069E-04  0.882E-02    0.65       1.0  T
   3   -173.4230421  0.204004E-04  0.231E-02    0.65       1.0  T
   4   -173.4230639 -0.217657E-04  0.130E-02    0.65       1.0  T
   5   -173.4230709 -0.701777E-05  0.624E-03    0.65       1.8  T
   6   -173.4230731 -0.221190E-05  0.189E-03    0.65       5.9  T
   7   -173.4230733 -0.225320E-06  0.900E-04    0.65      12.4  T
     SCC iter.                  ...        0 min,  0.063 sec
     gradient                   ...        0 min,  0.013 sec
 * total energy  :  -170.8034171 Eh     change       -0.2996120E-03 Eh
   gradient norm :     0.0098198 Eh/α   predicted    -0.2457989E-03 ( -17.96%)
   displ. norm   :     0.6331420 α      lambda       -0.5009915E-03
   maximum displ.:     0.3045652 α      in ANC's #2, #3, #6, ...

........................................................................
.............................. CYCLE   40 ..............................
........................................................................
   1   -173.4185849 -0.173419E+03  0.251E-01    0.65       0.0  T
   2   -173.4186692 -0.843218E-04  0.131E-01    0.65       1.0  T
   3   -173.4186319  0.372743E-04  0.357E-02    0.65       1.0  T
   4   -173.4186814 -0.495439E-04  0.172E-02    0.65       1.0  T
   5   -173.4186887 -0.721907E-05  0.971E-03    0.65       1.2  T
   6   -173.4186944 -0.575345E-05  0.256E-03    0.65       4.4  T
   7   -173.4186948 -0.346328E-06  0.134E-03    0.65       8.4  T
   8   -173.4186948 -0.691433E-07  0.734E-04    0.65      15.2  T
     SCC iter.                  ...        0 min,  0.071 sec
     gradient                   ...        0 min,  0.013 sec
 * total energy  :  -170.8036346 Eh     change       -0.2174789E-03 Eh
   gradient norm :     0.0156269 Eh/α   predicted    -0.3509159E-03 (  61.36%)
   displ. norm   :     0.4100178 α      lambda       -0.5078141E-03
   maximum displ.:     0.2107612 α      in ANC's #2, #3, #6, ...

........................................................................
.............................. CYCLE   41 ..............................
........................................................................
   1   -173.4190441 -0.173419E+03  0.169E-01    0.65       0.0  T
   2   -173.4191001 -0.560123E-04  0.890E-02    0.65       1.0  T
   3   -173.4190599  0.402495E-04  0.311E-02    0.65       1.0  T
   4   -173.4191031 -0.432424E-04  0.153E-02    0.65       1.0  T
   5   -173.4191158 -0.126823E-04  0.733E-03    0.65       1.5  T
   6   -173.4191178 -0.197204E-05  0.293E-03    0.65       3.8  T
   7   -173.4191185 -0.691570E-06  0.986E-04    0.65      11.3  T
     SCC iter.                  ...        0 min,  0.063 sec
     gradient                   ...        0 min,  0.013 sec
 * total energy  :  -170.8039059 Eh     change       -0.2713449E-03 Eh
   gradient norm :     0.0136677 Eh/α   predicted    -0.2965991E-03 (   9.31%)
   displ. norm   :     0.3326148 α      lambda       -0.3828102E-03
   maximum displ.:     0.1680917 α      in ANC's #2, #3, #6, ...

........................................................................
.............................. CYCLE   42 ..............................
........................................................................
   1   -173.4273282 -0.173427E+03  0.141E-01    0.65       0.0  T
   2   -173.4273503 -0.220436E-04  0.742E-02    0.65       1.0  T
   3   -173.4273122  0.381149E-04  0.259E-02    0.65       1.0  T
   4   -173.4273549 -0.427143E-04  0.108E-02    0.65       1.0  T
   5   -173.4273594 -0.451279E-05  0.530E-03    0.65       2.1  T
   6   -173.4273606 -0.120528E-05  0.198E-03    0.65       5.6  T
   7   -173.4273609 -0.295682E-06  0.669E-04    0.65      16.7  T
     SCC iter.                  ...        0 min,  0.063 sec
     gradient                   ...        0 min,  0.013 sec
 * total energy  :  -170.8041224 Eh     change       -0.2164581E-03 Eh
   gradient norm :     0.0114781 Eh/α   predicted    -0.2125817E-03 (  -1.79%)
   displ. norm   :     0.6557170 α      lambda       -0.4835948E-03
   maximum displ.:     0.3288124 α      in ANC's #2, #3, #6, ...
 * RMSD in coord.:     0.8321740 α      energy gain  -0.5949683E-02 Eh

generating ANC from model Hessian ...
Using Lindh-Hessian (1995)
 Shifting diagonal of input Hessian by   4.982043361820510E-003
 Lowest  eigenvalues of input Hessian
   -0.000000   -0.000000   -0.000000    0.000000    0.000000    0.000000
    0.005000    0.005016    0.005068    0.005204    0.005217    0.005338
    0.005405    0.005477    0.005556    0.005593    0.005697    0.005985
 Highest eigenvalues
    2.587370    2.592939    2.638193    2.662585    2.664672    2.667663
 

........................................................................
.............................. CYCLE   43 ..............................
........................................................................
   1   -173.4169274 -0.173417E+03  0.249E-01    0.64       0.0  T
   2   -173.4169762 -0.487447E-04  0.130E-01    0.64       1.0  T
   3   -173.4169618  0.143959E-04  0.273E-02    0.64       1.0  T
   4   -173.4169714 -0.965091E-05  0.184E-02    0.64       1.0  T
   5   -173.4169864 -0.149959E-04  0.762E-03    0.64       1.5  T
   6   -173.4169915 -0.512337E-05  0.239E-03    0.64       4.7  T
   7   -173.4169919 -0.367635E-06  0.118E-03    0.64       9.5  T
   8   -173.4169920 -0.441475E-07  0.667E-04    0.64      16.8  T
   9   -173.4169920 -0.982018E-08  0.353E-04    0.64      31.6  T
     SCC iter.                  ...        0 min,  0.080 sec
     gradient                   ...        0 min,  0.014 sec
 * total energy  :  -170.8043395 Eh     change       -0.2171310E-03 Eh
   gradient norm :     0.0138228 Eh/α   predicted     0.0000000E+00 (-100.00%)
   displ. norm   :     0.1186434 α      lambda       -0.3177826E-03
   maximum displ.:     0.0579317 α      in ANC's #9, #30, #2, ...

........................................................................
.............................. CYCLE   44 ..............................
........................................................................
   1   -173.4198994 -0.173420E+03  0.824E-02    0.64       0.0  T
   2   -173.4199085 -0.913088E-05  0.450E-02    0.64       1.0  T
   3   -173.4198813  0.272109E-04  0.196E-02    0.64       1.0  T
   4   -173.4199117 -0.303813E-04  0.613E-03    0.64       1.8  T
   5   -173.4199138 -0.207453E-05  0.288E-03    0.64       3.9  T
   6   -173.4199140 -0.245850E-06  0.153E-03    0.64       7.3  T
     SCC iter.                  ...        0 min,  0.054 sec
     gradient                   ...        0 min,  0.013 sec
 * total energy  :  -170.8044251 Eh     change       -0.8556630E-04 Eh
   gradient norm :     0.0071018 Eh/α   predicted    -0.1611282E-03 (  88.31%)
   displ. norm   :     0.1606512 α      lambda       -0.4370275E-03
   maximum displ.:     0.1060955 α      in ANC's #7, #30, #9, ...

........................................................................
.............................. CYCLE   45 ..............................
........................................................................
   1   -173.4240611 -0.173424E+03  0.141E-01    0.64       0.0  T
   2   -173.4240856 -0.245520E-04  0.769E-02    0.65       1.0  T
   3   -173.4240486  0.370218E-04  0.250E-02    0.64       1.0  T
   4   -173.4240951 -0.464643E-04  0.681E-03    0.65       1.6  T
   5   -173.4240975 -0.246920E-05  0.322E-03    0.65       3.5  T
   6   -173.4240978 -0.256520E-06  0.191E-03    0.65       5.9  T
   7   -173.4240981 -0.288804E-06  0.744E-04    0.65      15.0  T
     SCC iter.                  ...        0 min,  0.063 sec
     gradient                   ...        0 min,  0.013 sec
 * total energy  :  -170.8044192 Eh     change        0.5918120E-05 Eh
   gradient norm :     0.0149369 Eh/α   predicted    -0.2241551E-03 (*******%)
   displ. norm   :     0.0889894 α      lambda       -0.4581840E-03
   maximum displ.:     0.0385047 α      in ANC's #30, #9, #25, ...

........................................................................
.............................. CYCLE   46 ..............................
........................................................................
   1   -173.4237897 -0.173424E+03  0.826E-02    0.65       0.0  T
   2   -173.4237953 -0.561134E-05  0.463E-02    0.64       1.0  T
   3   -173.4237848  0.104606E-04  0.135E-02    0.64       1.0  T
   4   -173.4237985 -0.137076E-04  0.324E-03    0.65       3.4  T
   5   -173.4237985  0.359223E-07  0.210E-03    0.64       5.3  T
   6   -173.4237988 -0.298463E-06  0.753E-04    0.64      14.8  T
     SCC iter.                  ...        0 min,  0.055 sec
     gradient                   ...        0 min,  0.013 sec
 * total energy  :  -170.8045868 Eh     change       -0.1676392E-03 Eh
   gradient norm :     0.0072091 Eh/α   predicted    -0.2309122E-03 (  37.74%)
   displ. norm   :     0.0964735 α      lambda       -0.2553245E-03
   maximum displ.:     0.0253780 α      in ANC's #29, #28, #2, ...

........................................................................
.............................. CYCLE   47 ..............................
........................................................................
   1   -173.4212754 -0.173421E+03  0.872E-02    0.64       0.0  T
   2   -173.4212826 -0.726628E-05  0.482E-02    0.64       1.0  T
   3   -173.4212646  0.180780E-04  0.158E-02    0.64       1.0  T
   4   -173.4212861 -0.215183E-04  0.399E-03    0.64       2.8  T
   5   -173.4212867 -0.632477E-06  0.221E-03    0.64       5.1  T
   6   -173.4212869 -0.190423E-06  0.117E-03    0.64       9.5  T
     SCC iter.                  ...        0 min,  0.055 sec
     gradient                   ...        0 min,  0.013 sec
 * total energy  :  -170.8046273 Eh     change       -0.4053309E-04 Eh
   gradient norm :     0.0073243 Eh/α   predicted    -0.1288515E-03 ( 217.89%)
   displ. norm   :     0.1333745 α      lambda       -0.2887467E-03
   maximum displ.:     0.0575064 α      in ANC's #9, #7, #15, ...

........................................................................
.............................. CYCLE   48 ..............................
........................................................................
   1   -173.4193048 -0.173419E+03  0.107E-01    0.64       0.0  T
   2   -173.4193136 -0.880888E-05  0.590E-02    0.64       1.0  T
   3   -173.4193132  0.398673E-06  0.838E-03    0.64       1.3  T
   4   -173.4193167 -0.346298E-05  0.442E-03    0.64       2.5  T
   5   -173.4193174 -0.737250E-06  0.181E-03    0.64       6.2  T
   6   -173.4193176 -0.173131E-06  0.739E-04    0.64      15.1  T
     SCC iter.                  ...        0 min,  0.054 sec
     gradient                   ...        0 min,  0.013 sec
 * total energy  :  -170.8046374 Eh     change       -0.1001422E-04 Eh
   gradient norm :     0.0100877 Eh/α   predicted    -0.1469427E-03 (1367.34%)
   displ. norm   :     0.1180191 α      lambda       -0.3337565E-03
   maximum displ.:     0.0476011 α      in ANC's #7, #9, #2, ...

........................................................................
.............................. CYCLE   49 ..............................
........................................................................
   1   -173.4214355 -0.173421E+03  0.867E-02    0.64       0.0  T
   2   -173.4214425 -0.700014E-05  0.474E-02    0.64       1.0  T
   3   -173.4214282  0.143132E-04  0.152E-02    0.64       1.0  T
   4   -173.4214455 -0.173114E-04  0.463E-03    0.64       2.4  T
   5   -173.4214462 -0.708021E-06  0.232E-03    0.64       4.8  T
   6   -173.4214464 -0.196332E-06  0.109E-03    0.64      10.3  T
     SCC iter.                  ...        0 min,  0.054 sec
     gradient                   ...        0 min,  0.013 sec
 * total energy  :  -170.8048150 Eh     change       -0.1776609E-03 Eh
   gradient norm :     0.0048919 Eh/α   predicted    -0.1692051E-03 (  -4.76%)
   displ. norm   :     0.1543787 α      lambda       -0.1096478E-03
   maximum displ.:     0.0663705 α      in ANC's #9, #2, #7, ...

........................................................................
.............................. CYCLE   50 ..............................
........................................................................
   1   -173.4213079 -0.173421E+03  0.838E-02    0.64       0.0  T
   2   -173.4213132 -0.529446E-05  0.449E-02    0.64       1.0  T
   3   -173.4213112  0.200540E-05  0.920E-03    0.64       1.2  T
   4   -173.4213139 -0.271133E-05  0.556E-03    0.64       2.0  T
   5   -173.4213152 -0.130412E-05  0.158E-03    0.64       7.1  T
   6   -173.4213154 -0.203040E-06  0.608E-04    0.64      18.4  T
     SCC iter.                  ...        0 min,  0.054 sec
     gradient                   ...        0 min,  0.014 sec
 * total energy  :  -170.8049002 Eh     change       -0.8514861E-04 Eh
   gradient norm :     0.0037791 Eh/α   predicted    -0.5613096E-04 ( -34.08%)
   displ. norm   :     0.4102693 α      lambda       -0.2154146E-03
   maximum displ.:     0.1854401 α      in ANC's #9, #2, #7, ...

........................................................................
.............................. CYCLE   51 ..............................
........................................................................
   1   -173.4185278 -0.173419E+03  0.224E-01    0.64       0.0  T
   2   -173.4185674 -0.396416E-04  0.120E-01    0.64       1.0  T
   3   -173.4185682 -0.794684E-06  0.203E-02    0.64       1.0  T
   4   -173.4185685 -0.324390E-06  0.144E-02    0.64       1.0  T
   5   -173.4185796 -0.110747E-04  0.461E-03    0.64       2.4  T
   6   -173.4185810 -0.145655E-05  0.195E-03    0.64       5.7  T
   7   -173.4185812 -0.206421E-06  0.108E-03    0.64      10.4  T
   8   -173.4185813 -0.449632E-07  0.545E-04    0.64      20.5  T
   9   -173.4185813 -0.674561E-08  0.278E-04    0.64      40.2  T
     SCC iter.                  ...        0 min,  0.079 sec
     gradient                   ...        0 min,  0.014 sec
 * total energy  :  -170.8050191 Eh     change       -0.1189867E-03 Eh
   gradient norm :     0.0082730 Eh/α   predicted    -0.1258418E-03 (   5.76%)
   displ. norm   :     0.2468426 α      lambda       -0.1528500E-03
   maximum displ.:     0.1139849 α      in ANC's #9, #2, #3, ...

........................................................................
.............................. CYCLE   52 ..............................
........................................................................
   1   -173.4193636 -0.173419E+03  0.121E-01    0.64       0.0  T
   2   -173.4193751 -0.114526E-04  0.639E-02    0.64       1.0  T
   3   -173.4193744  0.648265E-06  0.115E-02    0.64       1.0  T
   4   -173.4193751 -0.664839E-06  0.798E-03    0.64       1.4  T
   5   -173.4193784 -0.329364E-05  0.270E-03    0.64       4.1  T
   6   -173.4193790 -0.594208E-06  0.854E-04    0.64      13.1  T
   7   -173.4193790 -0.291132E-07  0.493E-04    0.64      22.7  T
     SCC iter.                  ...        0 min,  0.063 sec
     gradient                   ...        0 min,  0.014 sec
 * total energy  :  -170.8051299 Eh     change       -0.1107792E-03 Eh
   gradient norm :     0.0063296 Eh/α   predicted    -0.8108293E-04 ( -26.81%)
   displ. norm   :     0.3134766 α      lambda       -0.2030146E-03
   maximum displ.:     0.1592300 α      in ANC's #2, #9, #3, ...

........................................................................
.............................. CYCLE   53 ..............................
........................................................................
   1   -173.4225799 -0.173423E+03  0.142E-01    0.64       0.0  T
   2   -173.4226019 -0.220107E-04  0.744E-02    0.64       1.0  T
   3   -173.4225975  0.441057E-05  0.151E-02    0.64       1.0  T
   4   -173.4225999 -0.237508E-05  0.105E-02    0.64       1.1  T
   5   -173.4226067 -0.683195E-05  0.361E-03    0.64       3.1  T
   6   -173.4226074 -0.691808E-06  0.158E-03    0.64       7.1  T
   7   -173.4226075 -0.157516E-06  0.633E-04    0.64      17.7  T
     SCC iter.                  ...        0 min,  0.063 sec
     gradient                   ...        0 min,  0.013 sec
 * total energy  :  -170.8052550 Eh     change       -0.1251135E-03 Eh
   gradient norm :     0.0051349 Eh/α   predicted    -0.1114832E-03 ( -10.89%)
   displ. norm   :     0.4662535 α      lambda       -0.1824578E-03
   maximum displ.:     0.2231939 α      in ANC's #2, #9, #3, ...

........................................................................
.............................. CYCLE   54 ..............................
........................................................................
   1   -173.4210516 -0.173421E+03  0.227E-01    0.64       0.0  T
   2   -173.4210913 -0.396157E-04  0.120E-01    0.64       1.0  T
   3   -173.4210950 -0.376720E-05  0.201E-02    0.64       1.0  T
   4   -173.4210918  0.320619E-05  0.141E-02    0.64       1.0  T
   5   -173.4211030 -0.112118E-04  0.409E-03    0.64       2.7  T
   6   -173.4211041 -0.111328E-05  0.147E-03    0.64       7.6  T
   7   -173.4211042 -0.558826E-07  0.945E-04    0.64      11.8  T
     SCC iter.                  ...        0 min,  0.063 sec
     gradient                   ...        0 min,  0.014 sec
 * total energy  :  -170.8053894 Eh     change       -0.1343235E-03 Eh
   gradient norm :     0.0064747 Eh/α   predicted    -0.1110621E-03 ( -17.32%)
   displ. norm   :     0.4662377 α      lambda        0.1439594E-05
   maximum displ.:     0.2231933 α      in ANC's #2, #9, #3, ...

........................................................................
.............................. CYCLE   55 ..............................
........................................................................
   1   -173.4166261 -0.173417E+03  0.229E-01    0.64       0.0  T
   2   -173.4166770 -0.508482E-04  0.121E-01    0.64       1.0  T
   3   -173.4166641  0.129189E-04  0.249E-02    0.64       1.0  T
   4   -173.4166782 -0.141393E-04  0.155E-02    0.64       1.0  T
   5   -173.4166897 -0.114467E-04  0.641E-03    0.64       1.7  T
   6   -173.4166922 -0.258499E-05  0.208E-03    0.64       5.4  T
   7   -173.4166924 -0.170388E-06  0.125E-03    0.64       9.0  T
     SCC iter.                  ...        0 min,  0.063 sec
     gradient                   ...        0 min,  0.013 sec
 * total energy  :  -170.8053305 Eh     change        0.5883973E-04 Eh
   gradient norm :     0.0157277 Eh/α   predicted     0.8748217E-06 ( -98.51%)
   displ. norm   :     0.1089544 α      lambda       -0.3650928E-03
   maximum displ.:     0.0548496 α      in ANC's #7, #16, #2, ...

........................................................................
.............................. CYCLE   56 ..............................
........................................................................
   1   -173.4232731 -0.173423E+03  0.720E-02    0.64       0.0  T
   2   -173.4233117 -0.385710E-04  0.406E-02    0.64       1.0  T
   3   -173.4233002  0.114670E-04  0.216E-02    0.64       1.0  T
   4   -173.4233144 -0.142087E-04  0.991E-03    0.64       1.1  T
   5   -173.4233230 -0.860356E-05  0.335E-03    0.64       3.3  T
   6   -173.4233235 -0.499254E-06  0.180E-03    0.64       6.2  T
   7   -173.4233237 -0.168144E-06  0.914E-04    0.64      12.2  T
     SCC iter.                  ...        0 min,  0.063 sec
     gradient                   ...        0 min,  0.013 sec
 * total energy  :  -170.8054972 Eh     change       -0.1666935E-03 Eh
   gradient norm :     0.0069866 Eh/α   predicted    -0.1847167E-03 (  10.81%)
   displ. norm   :     0.1119831 α      lambda       -0.2435420E-03
   maximum displ.:     0.0413730 α      in ANC's #2, #7, #3, ...

........................................................................
.............................. CYCLE   57 ..............................
........................................................................
   1   -173.4257928 -0.173426E+03  0.773E-02    0.64       0.0  T
   2   -173.4258046 -0.117796E-04  0.435E-02    0.64       1.0  T
   3   -173.4257804  0.242006E-04  0.197E-02    0.64       1.0  T
   4   -173.4258075 -0.271034E-04  0.630E-03    0.64       1.8  T
   5   -173.4258106 -0.318038E-05  0.210E-03    0.64       5.3  T
   6   -173.4258107 -0.743379E-07  0.138E-03    0.64       8.1  T
   7   -173.4258108 -0.103754E-06  0.623E-04    0.64      18.0  T
     SCC iter.                  ...        0 min,  0.067 sec
     gradient                   ...        0 min,  0.015 sec
 * total energy  :  -170.8055778 Eh     change       -0.8061536E-04 Eh
   gradient norm :     0.0065386 Eh/α   predicted    -0.1232988E-03 (  52.95%)
   displ. norm   :     0.2681236 α      lambda       -0.1464768E-03
   maximum displ.:     0.1458945 α      in ANC's #2, #3, #9, ...

........................................................................
.............................. CYCLE   58 ..............................
........................................................................
   1   -173.4234688 -0.173423E+03  0.122E-01    0.64       0.0  T
   2   -173.4234812 -0.124062E-04  0.642E-02    0.64       1.0  T
   3   -173.4234809  0.382575E-06  0.117E-02    0.64       1.0  T
   4   -173.4234824 -0.157658E-05  0.752E-03    0.64       1.5  T
   5   -173.4234845 -0.205600E-05  0.312E-03    0.64       3.6  T
   6   -173.4234851 -0.658951E-06  0.101E-03    0.64      11.0  T
   7   -173.4234852 -0.590952E-07  0.543E-04    0.64      20.6  T
     SCC iter.                  ...        0 min,  0.064 sec
     gradient                   ...        0 min,  0.013 sec
 * total energy  :  -170.8056881 Eh     change       -0.1102328E-03 Eh
   gradient norm :     0.0033830 Eh/α   predicted    -0.7850858E-04 ( -28.78%)
   displ. norm   :     0.4686804 α      lambda       -0.1802891E-03
   maximum displ.:     0.2631946 α      in ANC's #2, #3, #9, ...

........................................................................
.............................. CYCLE   59 ..............................
........................................................................
   1   -173.4216551 -0.173422E+03  0.204E-01    0.64       0.0  T
   2   -173.4216867 -0.316360E-04  0.108E-01    0.64       1.0  T
   3   -173.4216777  0.894243E-05  0.216E-02    0.64       1.0  T
   4   -173.4216855 -0.772517E-05  0.147E-02    0.64       1.0  T
   5   -173.4216970 -0.115416E-04  0.323E-03    0.64       3.5  T
   6   -173.4216975 -0.532588E-06  0.162E-03    0.64       6.9  T
   7   -173.4216977 -0.142439E-06  0.867E-04    0.64      12.9  T
   8   -173.4216977 -0.217499E-07  0.496E-04    0.64      22.5  T
     SCC iter.                  ...        0 min,  0.071 sec
     gradient                   ...        0 min,  0.014 sec
 * total energy  :  -170.8057900 Eh     change       -0.1019251E-03 Eh
   gradient norm :     0.0061270 Eh/α   predicted    -0.1099468E-03 (   7.87%)
   displ. norm   :     0.2462631 α      lambda       -0.9885039E-04
   maximum displ.:     0.1511088 α      in ANC's #2, #3, #6, ...

........................................................................
.............................. CYCLE   60 ..............................
........................................................................
   1   -173.4192643 -0.173419E+03  0.949E-02    0.64       0.0  T
   2   -173.4192715 -0.721565E-05  0.503E-02    0.64       1.0  T
   3   -173.4192701  0.140172E-05  0.967E-03    0.64       1.2  T
   4   -173.4192719 -0.180706E-05  0.604E-03    0.64       1.8  T
   5   -173.4192731 -0.125670E-05  0.300E-03    0.64       3.7  T
   6   -173.4192739 -0.715056E-06  0.808E-04    0.64      13.8  T
     SCC iter.                  ...        0 min,  0.055 sec
     gradient                   ...        0 min,  0.013 sec
 * total energy  :  -170.8058594 Eh     change       -0.6936942E-04 Eh
   gradient norm :     0.0049997 Eh/α   predicted    -0.5242321E-04 ( -24.43%)
   displ. norm   :     0.2292552 α      lambda       -0.9312509E-04
   maximum displ.:     0.1417639 α      in ANC's #2, #3, #16, ...

........................................................................
.............................. CYCLE   61 ..............................
........................................................................
[...]
         :: -> anisotropic XC          0.120277889872 Eh    ::
         :: -> dispersion             -0.139663521721 Eh    ::
         :: repulsion energy           2.619614030250 Eh    ::
         :: add. restraining           0.000000000000 Eh    ::
         :::::::::::::::::::::::::::::::::::::::::::::::::::::

           -------------------------------------------------
          |                Property Printout                |
           -------------------------------------------------

    * Orbital Energies and Occupations

         #    Occupation            Energy/Eh            Energy/eV
      -------------------------------------------------------------
         1        2.0000           -0.7791589             -21.2020
       ...           ...                  ...                  ...
       143        2.0000           -0.4431198             -12.0579
       144        2.0000           -0.4405900             -11.9891
       145        2.0000           -0.4392909             -11.9537
       146        2.0000           -0.4391321             -11.9494
       147        2.0000           -0.4365020             -11.8778
       148        2.0000           -0.4347566             -11.8303
       149        2.0000           -0.4310873             -11.7305
       150        2.0000           -0.4288427             -11.6694
       151        2.0000           -0.4263421             -11.6014
       152        2.0000           -0.4218570             -11.4793
       153        2.0000           -0.4092493             -11.1362
       154        2.0000           -0.3934211             -10.7055
       155        2.0000           -0.3794671             -10.3258 (HOMO)
       156        0.0000           -0.3566886              -9.7060 (LUMO)
       157        0.0000           -0.3537709              -9.6266
       158                         -0.3509396              -9.5496
       159                         -0.3321537              -9.0384
       160                         -0.3276800              -8.9166
       161                         -0.3123977              -8.5008
       162                         -0.3014471              -8.2028
       163                         -0.2907862              -7.9127
       164                         -0.2835338              -7.7153
       165                         -0.2558028              -6.9607
       166                         -0.2546338              -6.9289
       ...                                ...                  ...
       318                          1.1510254              31.3210
      -------------------------------------------------------------
                  HL-Gap            0.0227785 Eh            0.6198 eV
             Fermi-level           -0.3681004 Eh          -10.0165 eV

     #   Z        covCN         q      C6AA      α(0)
     1   6 C      2.926    -0.018    28.469     8.750
     2   6 C      3.121    -0.017    28.255     8.705
     3   7 N      2.759     0.548    13.503     5.458
     4   8 O      0.932    -0.392    21.489     6.217
     5   8 O      0.929    -0.386    21.372     6.200
     6   6 C      3.107     0.009    27.670     8.619
     7   6 C      3.756    -0.123    22.913     6.825
     8   6 C      3.021     0.002    27.955     8.673
     9  16 S      2.319     0.059   138.649    19.818
    10   6 C      3.040     0.014    27.652     8.625
    11   6 C      3.059    -0.047    29.098     8.846
    12   6 C      3.248    -0.021    27.502     8.492
    13   6 C      3.088     0.011    27.681     8.624
    14  16 S      2.258     0.033   139.695    19.893
    15   6 C      3.087     0.013    27.624     8.616
    16   6 C      3.246    -0.021    27.514     8.497
    17   6 C      3.047     0.038    27.111     8.540
    18   6 C      2.946     0.023    27.488     8.599
    19   6 C      1.920     0.126    28.016     8.548
    20   7 N      0.911    -0.213    25.649     7.325
    21   6 C      1.920     0.125    28.019     8.548
    22   7 N      0.911    -0.214    25.655     7.326
    23   6 C      3.049    -0.045    29.061     8.841
    24   6 C      3.033     0.015    27.642     8.624
    25  16 S      2.256     0.028   139.904    19.908
    26   6 C      3.035     0.015    27.651     8.625
    27   6 C      3.049    -0.045    29.063     8.842
    28   6 C      3.246    -0.021    27.507     8.495
    29   6 C      3.086     0.014    27.605     8.613
    30  16 S      2.254     0.032   139.757    19.897
    31   6 C      3.086     0.014    27.609     8.613
    32   6 C      3.246    -0.020    27.508     8.496
    33   6 C      3.046     0.038    27.106     8.539
    34   6 C      2.946     0.023    27.487     8.599
    35   6 C      1.920     0.125    28.022     8.549
    36   7 N      0.911    -0.212    25.621     7.321
    37   6 C      1.921     0.126    28.009     8.547
    38   7 N      0.911    -0.215    25.677     7.329
    39   6 C      3.049    -0.044    29.051     8.840
    40   6 C      3.034     0.015    27.642     8.624
    41  16 S      2.254     0.034   139.670    19.891
    42   6 C      3.034     0.015    27.639     8.623
    43   6 C      3.048    -0.045    29.074     8.843
    44   6 C      3.244    -0.018    27.458     8.490
    45   6 C      3.090     0.016    27.539     8.602
    46  16 S      2.255     0.040   139.443    19.875
    47   6 C      3.083    -0.001    27.961     8.668
    48   6 C      3.237    -0.020    27.586     8.520
    49   6 C      3.042     0.038    27.099     8.538
    50   6 C      2.946     0.021    27.535     8.606
    51   6 C      1.921     0.125    28.032     8.550
    52   7 N      0.911    -0.216    25.712     7.334
    53   6 C      1.921     0.125    28.022     8.549
    54   7 N      0.911    -0.216    25.720     7.335
    55   6 C      3.058    -0.043    29.005     8.832
    56   6 C      3.054     0.009    27.775     8.643
    57  16 S      2.410     0.112   136.565    19.668
    58   6 C      2.986     0.027    27.402     8.587
    59   6 C      3.105    -0.028    28.555     8.756
    60   7 N      2.758     0.533    13.663     5.490
    61   8 O      1.117    -0.401    21.553     6.231
    62   8 O      0.931    -0.387    21.381     6.201
    63   6 C      3.123     0.016    27.465     8.582
    64   6 C      3.757    -0.114    22.727     6.797
    65   6 C      2.943    -0.036    28.901     8.817
    66  16 S      2.344     0.032   139.758    19.897
    67   1 H      0.926     0.094     1.845     2.124
    68   1 H      0.925     0.097     1.813     2.105
    69   1 H      0.925     0.068     2.107     2.270
    70   1 H      0.925     0.064     2.155     2.296
    71   1 H      0.926     0.064     2.154     2.295
    72   1 H      0.926     0.063     2.159     2.298
    73   1 H      0.926     0.063     2.160     2.298
    74   1 H      0.926     0.065     2.143     2.289
    75   1 H      0.926     0.064     2.149     2.292
    76   1 H      0.926     0.068     2.102     2.267
    77   1 H      0.925     0.082     1.961     2.190
    78   1 H      0.925     0.077     2.010     2.217
    79   1 H      0.925     0.051     2.303     2.373
    80   1 H      0.926     0.066     2.128     2.281

 Mol. C6AA /au·bohr⁶  :     169857.384850
 Mol. C8AA /au·bohr⁸  :    5239574.041109
 Mol. α(0) /au        :        663.566067


Wiberg/Mayer (AO) data.
largest (>0.10) Wiberg bond orders for each atom
          total WBO             WBO to atom ...
     1  C   3.934        C    2 1.489    S    9 1.273    H   67 0.961
     2  C   3.952        C    1 1.489    C    6 1.225    N    3 0.988
     3  N   3.914        O    4 1.441    O    5 1.437    C    2 0.988
     4  O   1.925        N    3 1.441    O    5 0.352
     5  O   1.937        N    3 1.437    O    4 0.352
     6  C   3.962        C    8 1.475    C    2 1.225    C    7 1.036
     7  C   3.986        C    6 1.036    H   68 0.964    H   70 0.957    H   69 0.955
     8  C   3.945        C    6 1.475    C   10 1.177    S    9 1.105
     9  S   2.682        C    1 1.273    C    8 1.105
    10  C   3.911        C   11 1.461    C    8 1.177    S   14 1.111
    11  C   3.977        C   10 1.461    C   12 1.327    H   71 0.954
    12  C   3.956        C   11 1.327    C   13 1.325    C   17 1.093
    13  C   3.930        C   12 1.325    S   14 1.194    C   15 1.179
    14  S   2.644        C   13 1.194    C   10 1.111
    15  C   3.913        C   16 1.326    S   25 1.190    C   13 1.179
    16  C   3.958        C   23 1.327    C   15 1.326    C   17 1.092
    17  C   3.981        C   18 1.518    C   12 1.093    C   16 1.092
    18  C   3.984        C   17 1.518    C   21 1.092    C   19 1.092
    19  C   3.948        N   20 2.786    C   18 1.092
    20  N   2.979        C   19 2.786
    21  C   3.948        N   22 2.786    C   18 1.092
    22  N   2.979        C   21 2.786
    23  C   3.961        C   24 1.452    C   16 1.327    H   72 0.955
    24  C   3.914        C   23 1.452    C   26 1.194    S   25 1.103
    25  S   2.605        C   15 1.190    C   24 1.103
    26  C   3.910        C   27 1.450    C   24 1.194    S   30 1.104
    27  C   3.963        C   26 1.450    C   28 1.330    H   73 0.955
    28  C   3.953        C   27 1.330    C   29 1.320    C   33 1.093
    29  C   3.915        C   28 1.320    S   30 1.190    C   31 1.186
    30  S   2.605        C   29 1.190    C   26 1.104
    31  C   3.915        C   32 1.318    S   41 1.191    C   29 1.186
    32  C   3.953        C   39 1.331    C   31 1.318    C   33 1.093
    33  C   3.981        C   34 1.517    C   32 1.093    C   28 1.093
    34  C   3.984        C   33 1.517    C   37 1.093    C   35 1.092
    35  C   3.948        N   36 2.786    C   34 1.092
    36  N   2.979        C   35 2.786
    37  C   3.948        N   38 2.785    C   34 1.093
    38  N   2.978        C   37 2.785
    39  C   3.961        C   40 1.448    C   32 1.331    H   74 0.955
    40  C   3.910        C   39 1.448    C   42 1.196    S   41 1.104
    41  S   2.606        C   31 1.191    C   40 1.104
    42  C   3.907        C   43 1.447    C   40 1.196    S   46 1.108
    43  C   3.961        C   42 1.447    C   44 1.332    H   75 0.955
    44  C   3.950        C   43 1.332    C   45 1.318    C   49 1.095
    45  C   3.915        C   44 1.318    S   46 1.192    C   47 1.187
    46  S   2.614        C   45 1.192    C   42 1.108
    47  C   3.939        C   48 1.284    S   57 1.236    C   45 1.187
    48  C   3.952        C   55 1.371    C   47 1.284    C   49 1.095
    49  C   3.981        C   50 1.514    C   48 1.095    C   44 1.095
    50  C   3.985        C   49 1.514    C   53 1.093    C   51 1.093
    51  C   3.948        N   52 2.784    C   50 1.093
    52  N   2.978        C   51 2.784
    53  C   3.948        N   54 2.784    C   50 1.093
    54  N   2.978        C   53 2.784
    55  C   3.972        C   56 1.405    C   48 1.371    H   76 0.952
    56  C   3.921        C   55 1.405    C   58 1.221    S   57 1.114
    57  S   2.822        C   47 1.236    C   56 1.114    O   61 0.151
    58  C   3.958        C   59 1.358    C   56 1.221    S   66 1.170
    59  C   3.928        C   58 1.358    C   63 1.193    N   60 1.057
    60  N   3.901        O   62 1.424    O   61 1.354    C   59 1.057
    61  O   1.967        N   60 1.354    O   62 0.302    S   57 0.151
    62  O   1.901        N   60 1.424    O   61 0.302
    63  C   3.980        C   65 1.609    C   59 1.193    C   64 1.033
    64  C   3.990        C   63 1.033    H   79 0.982    H   78 0.961    H   77 0.959
    65  C   3.912        C   63 1.609    S   66 1.160    H   80 0.966
    66  S   2.641        C   58 1.170    C   65 1.160
    67  H   0.990        C    1 0.961
    68  H   0.990        C    7 0.964
    69  H   0.994        C    7 0.955
    70  H   0.994        C    7 0.957
    71  H   0.995        C   11 0.954
    72  H   0.995        C   23 0.955
    73  H   0.995        C   27 0.955
    74  H   0.995        C   39 0.955
    75  H   0.995        C   43 0.955
    76  H   0.995        C   55 0.952
    77  H   0.993        C   64 0.959
    78  H   0.993        C   64 0.961
    79  H   0.997        C   64 0.982
    80  H   0.994        C   65 0.966

molecular dipole:
                 x           y           z       tot (Debye)
 q only:        0.546      -1.708       1.458
   full:        0.881      -1.764       1.304       6.009
molecular quadrupole (traceless):
                xx          xy          yy          xz          yz          zz
 q only:      -55.717     -32.542      94.673      55.647     -35.887     -38.957
  q+dip:      -47.327     -53.170     102.893      72.640     -27.613     -55.566
   full:      -50.337     -45.406     106.247      75.805     -18.209     -55.910

           -------------------------------------------------
          |                Geometry Summary                 |
           -------------------------------------------------

      molecular mass/u    :      999.1478000
   center of mass at/Å    :        5.9896073     -12.3680868       3.1230269
  moments of inertia/u·Å² :        0.5465381E+04   0.8545475E+05   0.9084481E+05
rotational constants/cm⁻¹ :        0.3084439E-02   0.1972697E-03   0.1855652E-03

 * 78 selected distances

     #   Z        #   Z                                     value/Å
     1   6 C      2   6 C                                 1.3735214
     2   6 C      3   7 N                                 1.4272212
     3   7 N      4   8 O                                 1.2142145
     3   7 N      5   8 O                                 1.2134307
     2   6 C      6   6 C                                 1.4255817
     6   6 C      7   6 C                                 1.4884518
     6   6 C      8   6 C                                 1.3805342
     1   6 C      9  16 S                                 1.6938478
     8   6 C      9  16 S                                 1.7519484
     8   6 C     10   6 C                                 1.4262735
    10   6 C     11   6 C                                 1.3824610
    11   6 C     12   6 C                                 1.3952526
    12   6 C     13   6 C                                 1.4032075
    10   6 C     14  16 S                                 1.7571213
    13   6 C     14  16 S                                 1.7049533
    13   6 C     15   6 C                                 1.4197728
    15   6 C     16   6 C                                 1.4036360
    17   6 C     18   6 C                                 1.3634037
    19   6 C     20   7 N                                 1.1464656
    21   6 C     22   7 N                                 1.1464983
    16   6 C     23   6 C                                 1.3956583
    23   6 C     24   6 C                                 1.3821140
    15   6 C     25  16 S                                 1.7075435
    24   6 C     25  16 S                                 1.7582577
    24   6 C     26   6 C                                 1.4182629
    26   6 C     27   6 C                                 1.3824229
    27   6 C     28   6 C                                 1.3947371
    28   6 C     29   6 C                                 1.4047754
    26   6 C     30  16 S                                 1.7582948
    29   6 C     30  16 S                                 1.7080034
    29   6 C     31   6 C                                 1.4182800
    31   6 C     32   6 C                                 1.4051609
    33   6 C     34   6 C                                 1.3635133
    35   6 C     36   7 N                                 1.1464319
    37   6 C     38   7 N                                 1.1465243
    32   6 C     39   6 C                                 1.3947241
    39   6 C     40   6 C                                 1.3826949
    31   6 C     41  16 S                                 1.7075547
    40   6 C     41  16 S                                 1.7584804
    40   6 C     42   6 C                                 1.4181185
    42   6 C     43   6 C                                 1.3829683
    43   6 C     44   6 C                                 1.3946443
    44   6 C     45   6 C                                 1.4054642
    42   6 C     46  16 S                                 1.7579911
    45   6 C     46  16 S                                 1.7073414
    45   6 C     47   6 C                                 1.4189056
    47   6 C     48   6 C                                 1.4096675
    49   6 C     50   6 C                                 1.3638641
    51   6 C     52   7 N                                 1.1467277
    53   6 C     54   7 N                                 1.1467234
    48   6 C     55   6 C                                 1.3860802
    55   6 C     56   6 C                                 1.3932379
    47   6 C     57  16 S                                 1.7034063
    56   6 C     57  16 S                                 1.7594965 (max)
    56   6 C     58   6 C                                 1.4206812
    58   6 C     59   6 C                                 1.4010777
    59   6 C     60   7 N                                 1.3985092
    60   7 N     61   8 O                                 1.2304874
    60   7 N     62   8 O                                 1.2151489
    59   6 C     63   6 C                                 1.4346777
    63   6 C     64   6 C                                 1.4879083
    63   6 C     65   6 C                                 1.3552121
    58   6 C     66  16 S                                 1.7388390
    65   6 C     66  16 S                                 1.7190843
     1   6 C     67   1 H                                 1.0723271
     7   6 C     68   1 H                                 1.0851076
     7   6 C     69   1 H                                 1.0901436
     7   6 C     70   1 H                                 1.0901234
    11   6 C     71   1 H                                 1.0751774
    23   6 C     72   1 H                                 1.0752463
    27   6 C     73   1 H                                 1.0752685
    39   6 C     74   1 H                                 1.0752468
    43   6 C     75   1 H                                 1.0753200
    55   6 C     76   1 H                                 1.0755103
    64   6 C     77   1 H                                 1.0884017
    64   6 C     78   1 H                                 1.0882431
    64   6 C     79   1 H                                 1.0868465
    65   6 C     80   1 H                                 1.0714707 (min)

 * 5 distinct bonds (by element types)

   Z      Z             #   av. dist./Å        max./Å        min./Å
   1 H    6 C          14     1.0803166     1.0901436     1.0714707
   6 C    6 C          36     1.4021374     1.4884518     1.3552121
   6 C    7 N           8     1.2131377     1.4272212     1.1464319
   7 N    8 O           4     1.2183204     1.2304874     1.2134307
   6 C   16 S          16     1.7307602     1.7594965     1.6938478


optimized geometry written to: xtbopt.xyz


           -------------------------------------------------
          | TOTAL ENERGY             -170.807317265983 Eh   |
          | GRADIENT NORM               0.000725246762 Eh/α |
          | HOMO-LUMO GAP               0.619835327853 eV   |
           -------------------------------------------------

------------------------------------------------------------------------
 * finished run on 2021/06/26 at 07:04:14.940     
------------------------------------------------------------------------
 total:
 * wall-time:     0 d,  0 h,  0 min, 13.636 sec
 *  cpu-time:     0 d,  0 h,  2 min, 43.465 sec
 * ratio c/w:    11.987 speedup
 SCF:
 * wall-time:     0 d,  0 h,  0 min,  0.186 sec
 *  cpu-time:     0 d,  0 h,  0 min,  2.230 sec
 * ratio c/w:    11.967 speedup
 ANC optimizer:
 * wall-time:     0 d,  0 h,  0 min, 13.411 sec
 *  cpu-time:     0 d,  0 h,  2 min, 40.843 sec
 * ratio c/w:    11.993 speedup

