      -----------------------------------------------------------      
     |                   =====================                   |     
     |                           x T B                           |     
     |                   =====================                   |     
     |                         S. Grimme                         |     
     |          Mulliken Center for Theoretical Chemistry        |     
     |                    University of Bonn                     |     
     |                Version 6.2 RC2 (SAW190805)                |     
      -----------------------------------------------------------      

   This program is distributed in the hope that it will be useful,
   but WITHOUT ANY WARRANTY; without even the implied warranty of
   MERCHANTABILITY or FITNESS FOR A PARTICULAR PURPOSE.
   
   FOR NON-COMMERCIAL, ACADEMIA USE ONLY.
   
   Cite this work as:
   * S. Grimme, C. Bannwarth, P. Shushkov, J. Chem. Theory Comput., 2017,
     13, 1989-2009. DOI: 10.1021/acs.jctc.7b00118
   * C. Bannwarth, S. Ehlert and S. Grimme., J. Chem. Theory Comput., 2019,
     15, 1652-1671. DOI: 10.1021/acs.jctc.8b01176
   * P. Pracht, E. Caldeweyher, S. Ehlert, S. Grimme, ChemRxiv, 2019, preprint.
     DOI: 10.26434/chemrxiv.8326202.v1
   
   for DFT-D4:
   * E. Caldeweyher, C. Bannwarth and S. Grimme, J. Chem. Phys., 2017,
     147, 034112. DOI: 10.1063/1.4993215
   * E. Caldeweyher, S. Ehlert, A. Hansen, H. Neugebauer, S. Spicher,
     C. Bannwarth and S. Grimme, J. Chem. Phys., 2019, 150, 154122.
     DOI: 10.1063/1.5090222
   
   for sTDA-xTB:
   * S. Grimme and C. Bannwarth, J. Chem. Phys., 2016, 145, 054103.
     DOI: 10.1063/1.4959605
   
   in the mass-spec context:
   * V. Asgeirsson, C. Bauer and S. Grimme, Chem. Sci., 2017, 8, 4879.
     DOI: 10.1039/c7sc00601b
   
   for metadynamics refer to:
   * S. Grimme, J. Chem. Theory Comput., 2019, 155, 2847-2862
     DOI: 10.1021/acs.jctc.9b00143
   
   with help from (in alphabetical order)
   C. Bannwarth, F. Bohle, G. Brandenburg, E. Caldeweyher, M. Checinski,
   S. Dohm, S. Ehlert, S. Ehrlich, F. März, H. Neugebauer, J. Pisarek,
   P. Pracht, P. Shushkov, and S. Spicher.
   
 * started run on 2021/06/23 at 03:55:26.019     

           -------------------------------------------------
          |                Calculation Setup                |
           -------------------------------------------------

          program call               : /ihome/ghutchison/geoffh/xtb/xtb /ihome/ghutchison/blp62/GA/running_GA/opt_GA/generations/27/4_66_45_66_4_01210.xyz -opt
          hostname                   : smp-n49
          coordinate file            : /ihome/ghutchison/blp62/GA/running_GA/opt_GA/generations/27/4_66_45_66_4_01210.xyz
          omp threads                :                    12
          number of atoms            :                   110
          number of electrons        :                   410
          charge                     :                     0
          spin                       :                   0.0
          first test random number   :      0.12594524198461


########################################################################
# WARNING! Please study the warnings concerning your input carefully
#  - XTBPATH is not set, using XTBHOME instead
#  - the use of '-opt' is discouraged, please use '--opt' next time
########################################################################

           ------------------------------------------------- 
          |                 G F N 2 - x T B                 |
          | Geometry, Frequencies, Noncovalent interactions |
          |            JCTC 2019 parametrisation            |
           ------------------------------------------------- 
             KAB for C  - Si     :                1.0500
             KAB for H  - Pd     :                0.9500
             k(s)              :                1.8500
             k(p)              :                2.2300
             k(d)              :                2.2300
             k(f)              :                2.0000
             kEN (H0ij)        :               -2.0000
             D4 a1             :                0.5200
             D4 a2             :                5.0000
             D4 s6             :                1.0000
             D4 s8             :                2.7000
             D4 s9             :                5.0000
             alphaj            :                2.0000

  Z AO/shell   Hii/eV     exponent
  1     Wed Apr 25 08:07:45 CEST 2018   EN: 2.200 GM2: 0.406  GM3: 0.0800  RAES: 1.40
     1s    -10.707211    1.230000
  6     Wed Apr 25 08:07:45 CEST 2018   EN: 2.550 GM2: 0.538  GM3: 0.1500  RAES: 3.00
     2s    -13.970922    2.096432
     2p    -10.063292    1.800000
  7     Wed Apr 25 08:07:45 CEST 2018   EN: 3.040 GM2: 0.461  GM3:-0.0640  RAES: 1.90
     2s    -16.686243    2.339881
     2p    -12.523956    2.014332
  8     Wed Apr 25 08:07:45 CEST 2018   EN: 3.440 GM2: 0.452  GM3:-0.0517  RAES: 1.80
     2s    -20.229985    2.439742
     2p    -15.503117    2.137023
 16     Tue Apr 24 11:44:34 CEST 2018   EN: 2.580 GM2: 0.340  GM3:-0.0502  RAES: 3.10
     3s    -20.029654    1.981333
     3p    -11.377694    2.025643
     3d     -0.420282    1.702555
 17     Mon Apr 23 14:09:22 CEST 2018   EN: 3.160 GM2: 0.249  GM3: 0.1495  RAES: 2.50
     3s    -29.278781    2.485265
     3p    -12.673758    2.199650
     3d     -0.240338    2.476089

           ------------------------------------------------- 
          |        Self-Consistent Charge Iterations        |
           ------------------------------------------------- 

          ...................................................
          :                      SETUP                      :
          :.................................................:
          :  # basis functions                 458          :
          :  # atomic orbitals                 442          :
          :  # shells                          210          :
          :  # electrons                       410          :
          :  max. iterations                   250          :
          :  Hamiltonian                  GFN2-xTB          :
          :  restarted?                      false          :
          :  GBSA solvation                  false          :
          :  PC potential                    false          :
          :  electronic temp.          300.0000000     K    :
          :  accuracy                    1.0000000          :
          :  -> integral cutoff          0.2500000E+02      :
          :  -> integral neglect         0.1000000E-07      :
          :  -> SCF convergence          0.1000000E-05 Eh   :
          :  -> wf. convergence          0.1000000E-03 e    :
          :  Broyden damping             0.4000000          :
          ...................................................

 iter      E             dE          RMSdq      gap      omega  full diag
   1   -228.8873527 -0.228887E+03  0.511E+00    1.40       0.0  T
   2   -229.1181158 -0.230763E+00  0.306E+00    1.13       1.0  T
   3   -228.7682304  0.349885E+00  0.242E+00    0.33       1.0  T
   4   -229.2061364 -0.437906E+00  0.117E+00    0.60       1.0  T
   5   -229.3003115 -0.941751E-01  0.473E-01    0.35       1.0  T
   6   -229.3178412 -0.175298E-01  0.165E-01    0.39       1.0  T
   7   -229.3186915 -0.850259E-03  0.889E-02    0.40       1.0  T
   8   -229.3191227 -0.431222E-03  0.421E-02    0.42       1.0  T
   9   -229.3191687 -0.459487E-04  0.314E-02    0.42       1.0  T
  10   -229.3192026 -0.339303E-04  0.214E-02    0.42       1.0  T
  11   -229.3192180 -0.154261E-04  0.159E-02    0.41       1.0  T
  12   -229.3192293 -0.112253E-04  0.102E-02    0.41       1.0  T
  13   -229.3192342 -0.490291E-05  0.556E-03    0.41       1.7  T
  14   -229.3192357 -0.157509E-05  0.276E-03    0.41       3.5  T
  15   -229.3192361 -0.344177E-06  0.140E-03    0.41       6.8  T
  16   -229.3192361 -0.522589E-07  0.837E-04    0.41      11.4  T
  17   -229.3192361 -0.181405E-07  0.497E-04    0.41      19.2  T

   *** convergence criteria satisfied after 17 iterations ***

         #    Occupation            Energy/Eh            Energy/eV
      -------------------------------------------------------------
         1        2.0000           -1.0631686             -28.9303
       ...           ...                  ...                  ...
       199        2.0000           -0.3964849             -10.7889
       200        2.0000           -0.3943636             -10.7312
       201        2.0000           -0.3935948             -10.7103
       202        2.0000           -0.3913190             -10.6483
       203        2.0000           -0.3873983             -10.5416
       204        2.0000           -0.3718111             -10.1175
       205        1.9993           -0.3692367             -10.0474 (HOMO)
       206        0.0007           -0.3540855              -9.6352 (LUMO)
       207                         -0.3359588              -9.1419
       208                         -0.3330844              -9.0637
       209                         -0.3196959              -8.6994
       210                         -0.3124730              -8.5028
       ...                                ...                  ...
       442                          1.1097078              30.1967
      -------------------------------------------------------------
                  HL-Gap            0.0151512 Eh            0.4123 eV
             Fermi-level           -0.3616305 Eh           -9.8405 eV

 SCC (total)                   0 d,  0 h,  0 min,  0.459 sec
 SCC setup                      ...        0 min,  0.003 sec (  0.738%)
 Dispersion                     ...        0 min,  0.006 sec (  1.217%)
 integral evaluation            ...        0 min,  0.038 sec (  8.214%)
 zeroth order Hamiltonian       ...        0 min,  0.002 sec (  0.408%)
 iterations                     ...        0 min,  0.379 sec ( 82.603%)
 molecular gradient             ...        0 min,  0.030 sec (  6.447%)
 printout                       ...        0 min,  0.002 sec (  0.347%)

         :::::::::::::::::::::::::::::::::::::::::::::::::::::
         ::                     SUMMARY                     ::
         :::::::::::::::::::::::::::::::::::::::::::::::::::::
         :: total energy            -226.542969370441 Eh    ::
         :: gradient norm              0.324021941225 Eh/a0 ::
         :: HOMO-LUMO gap              0.412285402804 eV    ::
         ::.................................................::
         :: SCC energy              -229.319236143629 Eh    ::
         :: -> isotropic ES            0.130337502549 Eh    ::
         :: -> anisotropic ES          0.014023267999 Eh    ::
         :: -> anisotropic XC          0.091659503236 Eh    ::
         :: -> dispersion             -0.197721659893 Eh    ::
         :: repulsion energy           2.779115969636 Eh    ::
         :: add. restraining           0.000000000000 Eh    ::
         :::::::::::::::::::::::::::::::::::::::::::::::::::::

      ----------------------------------------------------------- 
     |                   =====================                   |
     |                        A N C O P T                        |
     |                   =====================                   |
     |               Approximate Normal Coordinate               |
     |                Rational Function Optimizer                |
      ----------------------------------------------------------- 

          ...................................................
          :                      SETUP                      :
          :.................................................:
          :   optimization level            normal          :
          :   max. optcycles                   330          :
          :   ANC micro-cycles                  20          :
          :   degrees of freedom               324          :
          :.................................................:
          :   RF solver                   davidson          :
          :   input Hessian                  false          :
          :   write xtbopt.log                true          :
          :   linear?                        false          :
          :   energy convergence         0.5000000E-05 Eh   :
          :   grad. convergence          0.1000000E-02 Eh/α :
          :   maximium RF displ.         2.0000000          :
          :   Hlow (freq-cutoff)         0.5000000E-02      :
          :   Hmax (freq-cutoff)         5.0000000          :
          :   S6 in model hess.         20.0000000          :
          ...................................................

generating ANC from model Hessian ...
Using Lindh-Hessian (1995)
 Shifting diagonal of input Hessian by   4.983432369550304E-003
 Lowest  eigenvalues of input Hessian
   -0.000000   -0.000000    0.000000    0.000000    0.000000    0.000000
    0.005000    0.005011    0.005013    0.005024    0.005079    0.005083
    0.005100    0.005141    0.005167    0.005258    0.005308    0.005394
 Highest eigenvalues
    2.087327    2.112840    2.126299    2.435380    2.464278    2.588230
 

........................................................................
.............................. CYCLE    1 ..............................
........................................................................
   1   -229.3192362 -0.229319E+03  0.255E-04    0.41       0.0  T
   2   -229.3192362 -0.645457E-10  0.209E-04    0.41      45.6  T
   3   -229.3192362 -0.139406E-08  0.169E-04    0.41      56.6  T
     SCC iter.                  ...        0 min,  0.066 sec
     gradient                   ...        0 min,  0.030 sec
 * total energy  :  -226.5429697 Eh     change       -0.3384415E-06 Eh
   gradient norm :     0.3240249 Eh/α   predicted     0.0000000E+00 (-100.00%)
   displ. norm   :     0.4831331 α      lambda       -0.1038543E+00
   maximum displ.:     0.1480893 α      in ANC's #201, #75, #70, ...

........................................................................
.............................. CYCLE    2 ..............................
........................................................................
   1   -229.4715879 -0.229472E+03  0.404E-01    0.44       0.0  T
   2   -229.4723023 -0.714389E-03  0.227E-01    0.48       1.0  T
   3   -229.4706125  0.168973E-02  0.165E-01    0.45       1.0  T
   4   -229.4732902 -0.267770E-02  0.463E-02    0.46       1.0  T
   5   -229.4733887 -0.984833E-04  0.246E-02    0.47       1.0  T
   6   -229.4734248 -0.360826E-04  0.981E-03    0.47       1.0  T
   7   -229.4734300 -0.519576E-05  0.448E-03    0.46       2.1  T
   8   -229.4734313 -0.136121E-05  0.197E-03    0.47       4.8  T
     SCC iter.                  ...        0 min,  0.168 sec
     gradient                   ...        0 min,  0.029 sec
 * total energy  :  -226.6148232 Eh     change       -0.7185349E-01 Eh
   gradient norm :     0.1121903 Eh/α   predicted    -0.6404825E-01 ( -10.86%)
   displ. norm   :     0.5785679 α      lambda       -0.3478206E-01
   maximum displ.:     0.2081355 α      in ANC's #70, #59, #54, ...

........................................................................
.............................. CYCLE    3 ..............................
........................................................................
   1   -229.5609329 -0.229561E+03  0.388E-01    0.43       0.0  T
   2   -229.5613127 -0.379809E-03  0.197E-01    0.46       1.0  T
   3   -229.5598443  0.146836E-02  0.130E-01    0.45       1.0  T
   4   -229.5617671 -0.192279E-02  0.370E-02    0.46       1.0  T
   5   -229.5618181 -0.509837E-04  0.202E-02    0.46       1.0  T
   6   -229.5618369 -0.188334E-04  0.795E-03    0.46       1.2  T
   7   -229.5618412 -0.426556E-05  0.355E-03    0.46       2.7  T
   8   -229.5618422 -0.990962E-06  0.164E-03    0.46       5.8  T
     SCC iter.                  ...        0 min,  0.184 sec
     gradient                   ...        0 min,  0.031 sec
 * total energy  :  -226.6388298 Eh     change       -0.2400657E-01 Eh
   gradient norm :     0.0543544 Eh/α   predicted    -0.2321253E-01 (  -3.31%)
   displ. norm   :     0.6098882 α      lambda       -0.1444481E-01
   maximum displ.:     0.2044449 α      in ANC's #54, #59, #70, ...

........................................................................
.............................. CYCLE    4 ..............................
........................................................................
   1   -229.6032920 -0.229603E+03  0.298E-01    0.42       0.0  T
   2   -229.6034475 -0.155530E-03  0.153E-01    0.43       1.0  T
   3   -229.6030333  0.414234E-03  0.695E-02    0.44       1.0  T
   4   -229.6035312 -0.497952E-03  0.248E-02    0.44       1.0  T
   5   -229.6035459 -0.146414E-04  0.121E-02    0.44       1.0  T
   6   -229.6035555 -0.966248E-05  0.391E-03    0.44       2.4  T
   7   -229.6035565 -0.942913E-06  0.199E-03    0.44       4.8  T
   8   -229.6035566 -0.993827E-07  0.126E-03    0.44       7.5  T
     SCC iter.                  ...        0 min,  0.173 sec
     gradient                   ...        0 min,  0.029 sec
 * total energy  :  -226.6481866 Eh     change       -0.9356856E-02 Eh
   gradient norm :     0.0350935 Eh/α   predicted    -0.9908919E-02 (   5.90%)
   displ. norm   :     0.6360056 α      lambda       -0.8809494E-02
   maximum displ.:     0.1884122 α      in ANC's #54, #70, #61, ...

........................................................................
.............................. CYCLE    5 ..............................
........................................................................
   1   -229.6307630 -0.229631E+03  0.329E-01    0.41       0.0  T
   2   -229.6309463 -0.183342E-03  0.178E-01    0.43       1.0  T
   3   -229.6307553  0.191007E-03  0.556E-02    0.41       1.0  T
   4   -229.6309963 -0.241011E-03  0.223E-02    0.43       1.0  T
   5   -229.6310203 -0.239633E-04  0.118E-02    0.42       1.0  T
   6   -229.6310288 -0.846297E-05  0.411E-03    0.43       2.3  T
   7   -229.6310298 -0.103210E-05  0.218E-03    0.43       4.4  T
   8   -229.6310299 -0.144581E-06  0.120E-03    0.43       7.9  T
     SCC iter.                  ...        0 min,  0.172 sec
     gradient                   ...        0 min,  0.029 sec
 * total energy  :  -226.6514708 Eh     change       -0.3284137E-02 Eh
   gradient norm :     0.0475912 Eh/α   predicted    -0.6186488E-02 (  88.37%)
   displ. norm   :     0.5512336 α      lambda       -0.8624084E-02
   maximum displ.:     0.1688526 α      in ANC's #63, #33, #28, ...

........................................................................
.............................. CYCLE    6 ..............................
........................................................................
   1   -229.6596715 -0.229660E+03  0.338E-01    0.42       0.0  T
   2   -229.6598720 -0.200530E-03  0.186E-01    0.43       1.0  T
   3   -229.6596814  0.190617E-03  0.517E-02    0.42       1.0  T
   4   -229.6599385 -0.257095E-03  0.178E-02    0.43       1.0  T
   5   -229.6599580 -0.195155E-04  0.909E-03    0.43       1.0  T
   6   -229.6599621 -0.407164E-05  0.390E-03    0.43       2.4  T
   7   -229.6599630 -0.933701E-06  0.204E-03    0.43       4.7  T
     SCC iter.                  ...        0 min,  0.159 sec
     gradient                   ...        0 min,  0.029 sec
 * total energy  :  -226.6534717 Eh     change       -0.2000943E-02 Eh
   gradient norm :     0.0456442 Eh/α   predicted    -0.5622295E-02 ( 180.98%)
   displ. norm   :     0.3299248 α      lambda       -0.6515141E-02
   maximum displ.:     0.0735485 α      in ANC's #65, #41, #34, ...

........................................................................
.............................. CYCLE    7 ..............................
........................................................................
   1   -229.6587476 -0.229659E+03  0.235E-01    0.43       0.0  T
   2   -229.6592712 -0.523613E-03  0.134E-01    0.42       1.0  T
   3   -229.6592777 -0.651526E-05  0.735E-02    0.43       1.0  T
   4   -229.6593823 -0.104553E-03  0.271E-02    0.42       1.0  T
   5   -229.6594610 -0.787012E-04  0.111E-02    0.43       1.0  T
   6   -229.6594662 -0.523901E-05  0.534E-03    0.42       1.8  T
   7   -229.6594671 -0.905053E-06  0.333E-03    0.42       2.9  T
     SCC iter.                  ...        0 min,  0.160 sec
     gradient                   ...        0 min,  0.029 sec
 * total energy  :  -226.6553856 Eh     change       -0.1913865E-02 Eh
   gradient norm :     0.0479537 Eh/α   predicted    -0.3612160E-02 (  88.74%)
   displ. norm   :     0.2618847 α      lambda       -0.3351230E-02
   maximum displ.:     0.0851743 α      in ANC's #37, #12, #20, ...

........................................................................
.............................. CYCLE    8 ..............................
........................................................................
   1   -229.6598050 -0.229660E+03  0.134E-01    0.42       0.0  T
   2   -229.6599642 -0.159232E-03  0.742E-02    0.42       1.0  T
   3   -229.6599712 -0.699582E-05  0.362E-02    0.42       1.0  T
   4   -229.6600067 -0.354651E-04  0.956E-03    0.42       1.0  T
   5   -229.6600088 -0.214476E-05  0.631E-03    0.42       1.5  T
   6   -229.6600117 -0.288229E-05  0.197E-03    0.42       4.8  T
   7   -229.6600118 -0.830540E-07  0.128E-03    0.42       7.5  T
     SCC iter.                  ...        0 min,  0.162 sec
     gradient                   ...        0 min,  0.029 sec
 * total energy  :  -226.6576163 Eh     change       -0.2230693E-02 Eh
   gradient norm :     0.0164081 Eh/α   predicted    -0.1790538E-02 ( -19.73%)
   displ. norm   :     0.4560800 α      lambda       -0.2115140E-02
   maximum displ.:     0.1525581 α      in ANC's #12, #63, #61, ...

........................................................................
.............................. CYCLE    9 ..............................
........................................................................
   1   -229.6589598 -0.229659E+03  0.208E-01    0.41       0.0  T
   2   -229.6591060 -0.146180E-03  0.115E-01    0.41       1.0  T
   3   -229.6589788  0.127204E-03  0.482E-02    0.42       1.0  T
   4   -229.6591434 -0.164685E-03  0.169E-02    0.41       1.0  T
   5   -229.6591575 -0.140820E-04  0.983E-03    0.42       1.0  T
   6   -229.6591628 -0.524618E-05  0.409E-03    0.41       2.3  T
   7   -229.6591637 -0.935469E-06  0.241E-03    0.42       4.0  T
   8   -229.6591640 -0.341714E-06  0.114E-03    0.42       8.4  T
     SCC iter.                  ...        0 min,  0.173 sec
     gradient                   ...        0 min,  0.029 sec
 * total energy  :  -226.6590796 Eh     change       -0.1463326E-02 Eh
   gradient norm :     0.0271600 Eh/α   predicted    -0.1277554E-02 ( -12.70%)
   displ. norm   :     0.5107062 α      lambda       -0.2065264E-02
   maximum displ.:     0.2004853 α      in ANC's #12, #17, #20, ...

........................................................................
.............................. CYCLE   10 ..............................
........................................................................
   1   -229.6617798 -0.229662E+03  0.209E-01    0.42       0.0  T
   2   -229.6618620 -0.822359E-04  0.110E-01    0.41       1.0  T
   3   -229.6617229  0.139149E-03  0.429E-02    0.42       1.0  T
   4   -229.6618836 -0.160701E-03  0.167E-02    0.41       1.0  T
   5   -229.6618955 -0.118929E-04  0.857E-03    0.41       1.1  T
   6   -229.6618999 -0.440755E-05  0.349E-03    0.41       2.7  T
   7   -229.6619008 -0.880833E-06  0.188E-03    0.41       5.1  T
     SCC iter.                  ...        0 min,  0.155 sec
     gradient                   ...        0 min,  0.028 sec
 * total energy  :  -226.6606196 Eh     change       -0.1539961E-02 Eh
   gradient norm :     0.0299493 Eh/α   predicted    -0.1301965E-02 ( -15.45%)
   displ. norm   :     0.6132194 α      lambda       -0.2320123E-02
   maximum displ.:     0.2439893 α      in ANC's #12, #17, #20, ...

........................................................................
.............................. CYCLE   11 ..............................
........................................................................
   1   -229.6714467 -0.229671E+03  0.276E-01    0.42       0.0  T
   2   -229.6716053 -0.158606E-03  0.149E-01    0.41       1.0  T
   3   -229.6713834  0.221833E-03  0.585E-02    0.42       1.0  T
   4   -229.6716607 -0.277297E-03  0.207E-02    0.41       1.0  T
   5   -229.6716718 -0.110847E-04  0.114E-02    0.42       1.0  T
   6   -229.6716799 -0.813038E-05  0.480E-03    0.41       2.0  T
   7   -229.6716808 -0.896955E-06  0.307E-03    0.42       3.1  T
   8   -229.6716812 -0.341635E-06  0.168E-03    0.41       5.7  T
     SCC iter.                  ...        0 min,  0.177 sec
     gradient                   ...        0 min,  0.029 sec
 * total energy  :  -226.6621751 Eh     change       -0.1555530E-02 Eh
   gradient norm :     0.0319292 Eh/α   predicted    -0.1596291E-02 (   2.62%)
   displ. norm   :     0.5710878 α      lambda       -0.2370792E-02
   maximum displ.:     0.2323071 α      in ANC's #12, #17, #20, ...

........................................................................
.............................. CYCLE   12 ..............................
........................................................................
   1   -229.6678456 -0.229668E+03  0.279E-01    0.41       0.0  T
   2   -229.6679868 -0.141206E-03  0.152E-01    0.41       1.0  T
   3   -229.6677581  0.228768E-03  0.547E-02    0.41       1.0  T
   4   -229.6680361 -0.278057E-03  0.186E-02    0.41       1.0  T
   5   -229.6680465 -0.104177E-04  0.105E-02    0.41       1.0  T
   6   -229.6680541 -0.760413E-05  0.431E-03    0.41       2.2  T
   7   -229.6680547 -0.560848E-06  0.264E-03    0.41       3.6  T
   8   -229.6680549 -0.214189E-06  0.150E-03    0.41       6.4  T
     SCC iter.                  ...        0 min,  0.174 sec
     gradient                   ...        0 min,  0.029 sec
 * total energy  :  -226.6631668 Eh     change       -0.9917094E-03 Eh
   gradient norm :     0.0446387 Eh/α   predicted    -0.1572004E-02 (  58.51%)
   displ. norm   :     0.3605618 α      lambda       -0.2693035E-02
   maximum displ.:     0.1561875 α      in ANC's #12, #17, #20, ...

........................................................................
.............................. CYCLE   13 ..............................
........................................................................
   1   -229.6856773 -0.229686E+03  0.172E-01    0.43       0.0  T
   2   -229.6859223 -0.244914E-03  0.874E-02    0.43       1.0  T
   3   -229.6858496  0.726195E-04  0.388E-02    0.42       1.0  T
   4   -229.6859101 -0.604924E-04  0.211E-02    0.42       1.0  T
   5   -229.6859518 -0.416665E-04  0.758E-03    0.42       1.3  T
   6   -229.6859553 -0.348901E-05  0.387E-03    0.42       2.5  T
   7   -229.6859559 -0.623962E-06  0.207E-03    0.42       4.6  T
     SCC iter.                  ...        0 min,  0.159 sec
     gradient                   ...        0 min,  0.032 sec
 * total energy  :  -226.6640984 Eh     change       -0.9315617E-03 Eh
   gradient norm :     0.0330670 Eh/α   predicted    -0.1521573E-02 (  63.34%)
   displ. norm   :     0.4583071 α      lambda       -0.2475793E-02
   maximum displ.:     0.1848170 α      in ANC's #12, #61, #17, ...

........................................................................
.............................. CYCLE   14 ..............................
........................................................................
   1   -229.6788077 -0.229679E+03  0.223E-01    0.42       0.0  T
   2   -229.6792419 -0.434254E-03  0.130E-01    0.42       1.0  T
   3   -229.6789794  0.262491E-03  0.751E-02    0.44       1.0  T
   4   -229.6793591 -0.379703E-03  0.274E-02    0.42       1.0  T
   5   -229.6794268 -0.677106E-04  0.122E-02    0.43       1.0  T
   6   -229.6794366 -0.972880E-05  0.588E-03    0.42       1.6  T
   7   -229.6794384 -0.179158E-05  0.329E-03    0.43       2.9  T
   8   -229.6794388 -0.449719E-06  0.162E-03    0.43       5.9  T
     SCC iter.                  ...        0 min,  0.180 sec
     gradient                   ...        0 min,  0.029 sec
 * total energy  :  -226.6650837 Eh     change       -0.9852993E-03 Eh
   gradient norm :     0.0375322 Eh/α   predicted    -0.1497914E-02 (  52.03%)
   displ. norm   :     0.3425890 α      lambda       -0.1819610E-02
   maximum displ.:     0.1364840 α      in ANC's #62, #12, #19, ...

........................................................................
.............................. CYCLE   15 ..............................
........................................................................
   1   -229.6705100 -0.229671E+03  0.183E-01    0.42       0.0  T
   2   -229.6709500 -0.439991E-03  0.977E-02    0.43       1.0  T
   3   -229.6708217  0.128230E-03  0.508E-02    0.41       1.0  T
   4   -229.6709096 -0.878319E-04  0.308E-02    0.43       1.0  T
   5   -229.6710067 -0.970861E-04  0.932E-03    0.42       1.0  T
   6   -229.6710129 -0.629369E-05  0.480E-03    0.42       2.0  T
   7   -229.6710135 -0.592144E-06  0.246E-03    0.42       3.9  T
   8   -229.6710139 -0.389965E-06  0.125E-03    0.42       7.6  T
     SCC iter.                  ...        0 min,  0.178 sec
     gradient                   ...        0 min,  0.029 sec
 * total energy  :  -226.6646349 Eh     change        0.4487519E-03 Eh
   gradient norm :     0.0492850 Eh/α   predicted    -0.1016589E-02 (-326.54%)
   displ. norm   :     0.2397981 α      lambda       -0.3816262E-02
   maximum displ.:     0.0814877 α      in ANC's #12, #26, #37, ...

........................................................................
.............................. CYCLE   16 ..............................
........................................................................
   1   -229.6738640 -0.229674E+03  0.155E-01    0.42       0.0  T
   2   -229.6742939 -0.429906E-03  0.832E-02    0.41       1.0  T
   3   -229.6742720  0.218591E-04  0.468E-02    0.42       1.0  T
   4   -229.6743356 -0.635377E-04  0.233E-02    0.42       1.0  T
   5   -229.6743797 -0.441713E-04  0.946E-03    0.42       1.0  T
   6   -229.6743866 -0.686057E-05  0.372E-03    0.42       2.6  T
   7   -229.6743869 -0.275719E-06  0.242E-03    0.42       3.9  T
   8   -229.6743872 -0.314793E-06  0.103E-03    0.42       9.3  T
     SCC iter.                  ...        0 min,  0.179 sec
     gradient                   ...        0 min,  0.029 sec
 * total energy  :  -226.6662580 Eh     change       -0.1623062E-02 Eh
   gradient norm :     0.0268271 Eh/α   predicted    -0.2017857E-02 (  24.32%)
   displ. norm   :     0.3662825 α      lambda       -0.1499045E-02
   maximum displ.:     0.1513557 α      in ANC's #12, #17, #20, ...

........................................................................
.............................. CYCLE   17 ..............................
........................................................................
   1   -229.6781262 -0.229678E+03  0.179E-01    0.44       0.0  T
   2   -229.6785265 -0.400292E-03  0.100E-01    0.45       1.0  T
   3   -229.6785620 -0.355122E-04  0.532E-02    0.44       1.0  T
   4   -229.6786181 -0.561087E-04  0.210E-02    0.44       1.0  T
   5   -229.6786620 -0.438797E-04  0.835E-03    0.44       1.1  T
   6   -229.6786638 -0.181042E-05  0.377E-03    0.44       2.5  T
   7   -229.6786647 -0.829753E-06  0.184E-03    0.44       5.2  T
     SCC iter.                  ...        0 min,  0.154 sec
     gradient                   ...        0 min,  0.029 sec
 * total energy  :  -226.6663944 Eh     change       -0.1364474E-03 Eh
   gradient norm :     0.0400025 Eh/α   predicted    -0.8500849E-03 ( 523.01%)
   displ. norm   :     0.3109809 α      lambda       -0.2194201E-02
   maximum displ.:     0.1295825 α      in ANC's #12, #43, #20, ...

........................................................................
.............................. CYCLE   18 ..............................
........................................................................
   1   -229.6803510 -0.229680E+03  0.188E-01    0.43       0.0  T
   2   -229.6812131 -0.862060E-03  0.113E-01    0.40       1.0  T
   3   -229.6814644 -0.251359E-03  0.611E-02    0.43       1.0  T
   4   -229.6814278  0.366887E-04  0.335E-02    0.41       1.0  T
   5   -229.6815554 -0.127596E-03  0.960E-03    0.42       1.0  T
   6   -229.6815578 -0.239761E-05  0.605E-03    0.42       1.6  T
   7   -229.6815599 -0.215680E-05  0.287E-03    0.42       3.3  T
   8   -229.6815603 -0.425820E-06  0.147E-03    0.42       6.5  T
     SCC iter.                  ...        0 min,  0.181 sec
     gradient                   ...        0 min,  0.029 sec
 * total energy  :  -226.6661070 Eh     change        0.2873905E-03 Eh
   gradient norm :     0.0517143 Eh/α   predicted    -0.1203199E-02 (-518.66%)
   displ. norm   :     0.1876193 α      lambda       -0.2954420E-02
   maximum displ.:     0.0625812 α      in ANC's #37, #43, #73, ...

........................................................................
.............................. CYCLE   19 ..............................
........................................................................
   1   -229.6747612 -0.229675E+03  0.126E-01    0.42       0.0  T
   2   -229.6751449 -0.383710E-03  0.752E-02    0.44       1.0  T
   3   -229.6752355 -0.905469E-04  0.421E-02    0.42       1.0  T
   4   -229.6752305  0.494975E-05  0.253E-02    0.43       1.0  T
   5   -229.6752984 -0.679140E-04  0.760E-03    0.42       1.3  T
   6   -229.6753012 -0.276963E-05  0.433E-03    0.43       2.2  T
   7   -229.6753023 -0.114875E-05  0.205E-03    0.43       4.7  T
     SCC iter.                  ...        0 min,  0.157 sec
     gradient                   ...        0 min,  0.029 sec
 * total energy  :  -226.6674040 Eh     change       -0.1296961E-02 Eh
   gradient norm :     0.0202324 Eh/α   predicted    -0.1529212E-02 (  17.91%)
   displ. norm   :     0.2814458 α      lambda       -0.7404489E-03
   maximum displ.:     0.1390629 α      in ANC's #12, #4, #20, ...

........................................................................
.............................. CYCLE   20 ..............................
........................................................................
   1   -229.6765749 -0.229677E+03  0.117E-01    0.44       0.0  T
   2   -229.6766586 -0.837179E-04  0.643E-02    0.44       1.0  T
   3   -229.6766396  0.190370E-04  0.295E-02    0.43       1.0  T
   4   -229.6766766 -0.370420E-04  0.105E-02    0.44       1.0  T
   5   -229.6766850 -0.837859E-05  0.527E-03    0.44       1.8  T
   6   -229.6766862 -0.124493E-05  0.196E-03    0.44       4.9  T
   7   -229.6766865 -0.215161E-06  0.107E-03    0.44       8.9  T
     SCC iter.                  ...        0 min,  0.155 sec
     gradient                   ...        0 min,  0.029 sec
 * total energy  :  -226.6678164 Eh     change       -0.4124156E-03 Eh
   gradient norm :     0.0140882 Eh/α   predicted    -0.3995551E-03 (  -3.12%)
   displ. norm   :     0.3554978 α      lambda       -0.4480690E-03
   maximum displ.:     0.1804810 α      in ANC's #12, #4, #17, ...
 * RMSD in coord.:     0.5552060 α      energy gain  -0.1248470E+00 Eh

generating ANC from model Hessian ...
Using Lindh-Hessian (1995)
 Shifting diagonal of input Hessian by   5.034483752425110E-003
 Lowest  eigenvalues of input Hessian
    0.005000   -0.000000   -0.000000   -0.000000    0.000000    0.000000
    0.000000    0.005058    0.005069    0.005085    0.005144    0.005147
    0.005173    0.005229    0.005235    0.005322    0.005421    0.005452
 Highest eigenvalues
    2.234887    2.242495    2.592426    2.596736    2.621858    2.668565
 

........................................................................
.............................. CYCLE   21 ..............................
........................................................................
   1   -229.6779667 -0.229678E+03  0.140E-01    0.44       0.0  T
   2   -229.6779937 -0.269958E-04  0.763E-02    0.44       1.0  T
   3   -229.6779416  0.520488E-04  0.258E-02    0.44       1.0  T
   4   -229.6780038 -0.621769E-04  0.944E-03    0.44       1.0  T
   5   -229.6780065 -0.267543E-05  0.466E-03    0.44       2.0  T
   6   -229.6780078 -0.136791E-05  0.174E-03    0.44       5.5  T
   7   -229.6780080 -0.136626E-06  0.106E-03    0.44       9.0  T
   8   -229.6780080 -0.188992E-07  0.665E-04    0.44      14.3  T
   9   -229.6780080 -0.115457E-07  0.423E-04    0.44      22.6  T
     SCC iter.                  ...        0 min,  0.199 sec
     gradient                   ...        0 min,  0.031 sec
 * total energy  :  -226.6681716 Eh     change       -0.3552474E-03 Eh
   gradient norm :     0.0134779 Eh/α   predicted     0.0000000E+00 (-100.00%)
   displ. norm   :     0.1646303 α      lambda       -0.4414211E-03
   maximum displ.:     0.0722628 α      in ANC's #21, #4, #28, ...

........................................................................
.............................. CYCLE   22 ..............................
........................................................................
   1   -229.6800970 -0.229680E+03  0.892E-02    0.44       0.0  T
   2   -229.6801132 -0.161540E-04  0.486E-02    0.44       1.0  T
   3   -229.6800910  0.221549E-04  0.174E-02    0.44       1.0  T
   4   -229.6801155 -0.244470E-04  0.726E-03    0.44       1.3  T
   5   -229.6801190 -0.352009E-05  0.358E-03    0.44       2.7  T
   6   -229.6801197 -0.669275E-06  0.153E-03    0.44       6.2  T
   7   -229.6801198 -0.121726E-06  0.866E-04    0.44      11.0  T
     SCC iter.                  ...        0 min,  0.148 sec
     gradient                   ...        0 min,  0.029 sec
 * total energy  :  -226.6684999 Eh     change       -0.3282573E-03 Eh
   gradient norm :     0.0061831 Eh/α   predicted    -0.2266929E-03 ( -30.94%)
   displ. norm   :     0.3343224 α      lambda       -0.7508071E-03
   maximum displ.:     0.1155635 α      in ANC's #28, #1, #21, ...

........................................................................
.............................. CYCLE   23 ..............................
........................................................................
   1   -229.6798369 -0.229680E+03  0.227E-01    0.44       0.0  T
   2   -229.6799079 -0.710033E-04  0.125E-01    0.43       1.0  T
   3   -229.6798075  0.100377E-03  0.365E-02    0.43       1.0  T
   4   -229.6799284 -0.120914E-03  0.140E-02    0.44       1.0  T
   5   -229.6799408 -0.123430E-04  0.701E-03    0.43       1.4  T
   6   -229.6799431 -0.233498E-05  0.279E-03    0.43       3.4  T
   7   -229.6799435 -0.364909E-06  0.162E-03    0.43       5.9  T
     SCC iter.                  ...        0 min,  0.149 sec
     gradient                   ...        0 min,  0.029 sec
 * total energy  :  -226.6684130 Eh     change        0.8685717E-04 Eh
   gradient norm :     0.0202520 Eh/α   predicted    -0.4173732E-03 (-580.53%)
   displ. norm   :     0.2665144 α      lambda       -0.1390125E-02
   maximum displ.:     0.0981724 α      in ANC's #21, #28, #41, ...

........................................................................
.............................. CYCLE   24 ..............................
........................................................................
   1   -229.6826918 -0.229683E+03  0.178E-01    0.44       0.0  T
   2   -229.6827342 -0.423668E-04  0.991E-02    0.44       1.0  T
   3   -229.6827067  0.275327E-04  0.217E-02    0.44       1.0  T
   4   -229.6827468 -0.401253E-04  0.953E-03    0.44       1.0  T
   5   -229.6827515 -0.475917E-05  0.477E-03    0.44       2.0  T
   6   -229.6827527 -0.117929E-05  0.190E-03    0.44       5.0  T
     SCC iter.                  ...        0 min,  0.131 sec
     gradient                   ...        0 min,  0.029 sec
 * total energy  :  -226.6690221 Eh     change       -0.6090760E-03 Eh
   gradient norm :     0.0131537 Eh/α   predicted    -0.7444351E-03 (  22.22%)
   displ. norm   :     0.1770175 α      lambda       -0.5858488E-03
   maximum displ.:     0.0669931 α      in ANC's #23, #21, #4, ...

........................................................................
.............................. CYCLE   25 ..............................
........................................................................
   1   -229.6797240 -0.229680E+03  0.107E-01    0.44       0.0  T
   2   -229.6797528 -0.288385E-04  0.603E-02    0.44       1.0  T
   3   -229.6797105  0.422885E-04  0.232E-02    0.44       1.0  T
   4   -229.6797593 -0.487850E-04  0.759E-03    0.44       1.3  T
   5   -229.6797641 -0.480593E-05  0.378E-03    0.44       2.5  T
   6   -229.6797648 -0.701928E-06  0.192E-03    0.44       5.0  T
   7   -229.6797650 -0.207310E-06  0.103E-03    0.44       9.2  T
     SCC iter.                  ...        0 min,  0.145 sec
     gradient                   ...        0 min,  0.029 sec
 * total energy  :  -226.6692477 Eh     change       -0.2255895E-03 Eh
   gradient norm :     0.0110665 Eh/α   predicted    -0.3021065E-03 (  33.92%)
   displ. norm   :     0.1968463 α      lambda       -0.3282595E-03
   maximum displ.:     0.0774872 α      in ANC's #21, #4, #41, ...

........................................................................
.............................. CYCLE   26 ..............................
........................................................................
   1   -229.6783247 -0.229678E+03  0.107E-01    0.44       0.0  T
   2   -229.6783369 -0.122662E-04  0.593E-02    0.44       1.0  T
   3   -229.6783167  0.202456E-04  0.161E-02    0.44       1.0  T
   4   -229.6783430 -0.262840E-04  0.548E-03    0.44       1.7  T
   5   -229.6783433 -0.353686E-06  0.291E-03    0.44       3.3  T
   6   -229.6783441 -0.766068E-06  0.106E-03    0.44       9.0  T
     SCC iter.                  ...        0 min,  0.127 sec
     gradient                   ...        0 min,  0.029 sec
 * total energy  :  -226.6694408 Eh     change       -0.1930469E-03 Eh
   gradient norm :     0.0106027 Eh/α   predicted    -0.1704981E-03 ( -11.68%)
   displ. norm   :     0.2935976 α      lambda       -0.4410626E-03
   maximum displ.:     0.1280114 α      in ANC's #4, #21, #1, ...

........................................................................
.............................. CYCLE   27 ..............................
........................................................................
   1   -229.6768930 -0.229677E+03  0.142E-01    0.44       0.0  T
   2   -229.6769379 -0.449886E-04  0.784E-02    0.44       1.0  T
   3   -229.6768905  0.474745E-04  0.272E-02    0.44       1.0  T
   4   -229.6769488 -0.583299E-04  0.101E-02    0.44       1.0  T
   5   -229.6769556 -0.677588E-05  0.520E-03    0.44       1.8  T
   6   -229.6769568 -0.123533E-05  0.206E-03    0.44       4.6  T
   7   -229.6769572 -0.356231E-06  0.102E-03    0.44       9.4  T
     SCC iter.                  ...        0 min,  0.145 sec
     gradient                   ...        0 min,  0.029 sec
 * total energy  :  -226.6696808 Eh     change       -0.2400276E-03 Eh
   gradient norm :     0.0119564 Eh/α   predicted    -0.2395462E-03 (  -0.20%)
   displ. norm   :     0.2848590 α      lambda       -0.2837229E-03
   maximum displ.:     0.1369834 α      in ANC's #4, #21, #1, ...

........................................................................
.............................. CYCLE   28 ..............................
........................................................................
   1   -229.6769155 -0.229677E+03  0.122E-01    0.44       0.0  T
   2   -229.6769374 -0.219405E-04  0.672E-02    0.44       1.0  T
   3   -229.6769271  0.102911E-04  0.161E-02    0.44       1.0  T
   4   -229.6769432 -0.160820E-04  0.679E-03    0.44       1.4  T
   5   -229.6769442 -0.102817E-05  0.405E-03    0.44       2.4  T
   6   -229.6769456 -0.134345E-05  0.115E-03    0.44       8.3  T
   7   -229.6769456 -0.286804E-07  0.812E-04    0.44      11.7  T
     SCC iter.                  ...        0 min,  0.148 sec
     gradient                   ...        0 min,  0.029 sec
 * total energy  :  -226.6699019 Eh     change       -0.2210674E-03 Eh
   gradient norm :     0.0084253 Eh/α   predicted    -0.1533733E-03 ( -30.62%)
   displ. norm   :     0.5234566 α      lambda       -0.4881771E-03
   maximum displ.:     0.2658313 α      in ANC's #4, #21, #1, ...

........................................................................
.............................. CYCLE   29 ..............................
........................................................................
   1   -229.6775068 -0.229678E+03  0.213E-01    0.44       0.0  T
   2   -229.6775550 -0.482351E-04  0.118E-01    0.43       1.0  T
   3   -229.6775358  0.192247E-04  0.231E-02    0.44       1.0  T
   4   -229.6775630 -0.272047E-04  0.127E-02    0.43       1.0  T
   5   -229.6775702 -0.719053E-05  0.707E-03    0.44       1.3  T
   6   -229.6775747 -0.454818E-05  0.232E-03    0.44       4.1  T
   7   -229.6775750 -0.287914E-06  0.145E-03    0.44       6.6  T
   8   -229.6775751 -0.803682E-07  0.727E-04    0.44      13.1  T
     SCC iter.                  ...        0 min,  0.166 sec
     gradient                   ...        0 min,  0.028 sec
 * total energy  :  -226.6701521 Eh     change       -0.2502484E-03 Eh
   gradient norm :     0.0113348 Eh/α   predicted    -0.3109742E-03 (  24.27%)
   displ. norm   :     0.3368124 α      lambda       -0.3049321E-03
   maximum displ.:     0.1893289 α      in ANC's #4, #1, #7, ...

........................................................................
.............................. CYCLE   30 ..............................
........................................................................
   1   -229.6786656 -0.229679E+03  0.120E-01    0.44       0.0  T
   2   -229.6786933 -0.276984E-04  0.666E-02    0.44       1.0  T
   3   -229.6786641  0.291811E-04  0.201E-02    0.43       1.0  T
   4   -229.6786975 -0.333194E-04  0.869E-03    0.44       1.1  T
   5   -229.6787024 -0.490215E-05  0.447E-03    0.44       2.1  T
   6   -229.6787035 -0.115278E-05  0.187E-03    0.44       5.1  T
   7   -229.6787038 -0.299884E-06  0.874E-04    0.44      10.9  T
     SCC iter.                  ...        0 min,  0.147 sec
     gradient                   ...        0 min,  0.029 sec
 * total energy  :  -226.6703675 Eh     change       -0.2153527E-03 Eh
   gradient norm :     0.0069316 Eh/α   predicted    -0.1697677E-03 ( -21.17%)
   displ. norm   :     0.5947070 α      lambda       -0.3714166E-03
   maximum displ.:     0.3064230 α      in ANC's #4, #1, #21, ...

........................................................................
.............................. CYCLE   31 ..............................
........................................................................
   1   -229.6707240 -0.229671E+03  0.269E-01    0.44       0.0  T
   2   -229.6709146 -0.190573E-03  0.148E-01    0.44       1.0  T
   3   -229.6707016  0.212993E-03  0.502E-02    0.45       1.0  T
   4   -229.6709414 -0.239862E-03  0.195E-02    0.43       1.0  T
   5   -229.6709682 -0.267740E-04  0.984E-03    0.44       1.0  T
   6   -229.6709740 -0.580225E-05  0.477E-03    0.44       2.0  T
   7   -229.6709756 -0.155550E-05  0.223E-03    0.44       4.3  T
   8   -229.6709759 -0.340565E-06  0.109E-03    0.44       8.7  T
     SCC iter.                  ...        0 min,  0.168 sec
     gradient                   ...        0 min,  0.031 sec
 * total energy  :  -226.6701095 Eh     change        0.2579291E-03 Eh
   gradient norm :     0.0287000 Eh/α   predicted    -0.2513970E-03 (-197.47%)
   displ. norm   :     0.1567988 α      lambda       -0.1138055E-02
   maximum displ.:     0.0581296 α      in ANC's #28, #21, #4, ...

........................................................................
.............................. CYCLE   32 ..............................
........................................................................
   1   -229.6806128 -0.229681E+03  0.929E-02    0.44       0.0  T
   2   -229.6807482 -0.135376E-03  0.511E-02    0.44       1.0  T
   3   -229.6807041  0.441159E-04  0.290E-02    0.43       1.0  T
   4   -229.6807548 -0.507468E-04  0.137E-02    0.44       1.0  T
   5   -229.6807708 -0.159491E-04  0.607E-03    0.44       1.6  T
   6   -229.6807744 -0.365096E-05  0.231E-03    0.44       4.1  T
   7   -229.6807747 -0.270094E-06  0.121E-03    0.44       7.9  T
     SCC iter.                  ...        0 min,  0.151 sec
     gradient                   ...        0 min,  0.028 sec
 * total energy  :  -226.6706206 Eh     change       -0.5110535E-03 Eh
   gradient norm :     0.0094899 Eh/α   predicted    -0.5830200E-03 (  14.08%)
   displ. norm   :     0.2644862 α      lambda       -0.2836114E-03
   maximum displ.:     0.1542503 α      in ANC's #4, #7, #1, ...

........................................................................
.............................. CYCLE   33 ..............................
........................................................................
   1   -229.6786795 -0.229679E+03  0.102E-01    0.43       0.0  T
   2   -229.6787378 -0.582938E-04  0.570E-02    0.43       1.0  T
   3   -229.6787228  0.150085E-04  0.211E-02    0.43       1.0  T
   4   -229.6787433 -0.205590E-04  0.843E-03    0.44       1.1  T
   5   -229.6787479 -0.457700E-05  0.461E-03    0.43       2.1  T
   6   -229.6787496 -0.170493E-05  0.183E-03    0.43       5.2  T
   7   -229.6787497 -0.830134E-07  0.114E-03    0.43       8.3  T
     SCC iter.                  ...        0 min,  0.148 sec
     gradient                   ...        0 min,  0.029 sec
 * total energy  :  -226.6706698 Eh     change       -0.4921017E-04 Eh
   gradient norm :     0.0122083 Eh/α   predicted    -0.1517286E-03 ( 208.33%)
   displ. norm   :     0.2605722 α      lambda       -0.2846974E-03
   maximum displ.:     0.1600218 α      in ANC's #4, #1, #7, ...

........................................................................
.............................. CYCLE   34 ..............................
........................................................................
   1   -229.6785240 -0.229679E+03  0.927E-02    0.43       0.0  T
   2   -229.6785467 -0.226670E-04  0.503E-02    0.43       1.0  T
   3   -229.6785365  0.101662E-04  0.131E-02    0.44       1.0  T
   4   -229.6785454 -0.887878E-05  0.742E-03    0.43       1.3  T
   5   -229.6785505 -0.507003E-05  0.314E-03    0.43       3.0  T
   6   -229.6785511 -0.627662E-06  0.151E-03    0.43       6.3  T
   7   -229.6785512 -0.141265E-06  0.699E-04    0.43      13.6  T
     SCC iter.                  ...        0 min,  0.147 sec
     gradient                   ...        0 min,  0.029 sec
 * total energy  :  -226.6708705 Eh     change       -0.2007198E-03 Eh
   gradient norm :     0.0042805 Eh/α   predicted    -0.1520190E-03 ( -24.26%)
   displ. norm   :     0.4205058 α      lambda       -0.2046127E-03
   maximum displ.:     0.2681414 α      in ANC's #4, #1, #7, ...

........................................................................
.............................. CYCLE   35 ..............................
........................................................................
   1   -229.6787841 -0.229679E+03  0.134E-01    0.43       0.0  T
   2   -229.6788054 -0.212861E-04  0.730E-02    0.43       1.0  T
   3   -229.6787893  0.161385E-04  0.175E-02    0.43       1.0  T
   4   -229.6788097 -0.204336E-04  0.841E-03    0.43       1.1  T
   5   -229.6788130 -0.324075E-05  0.402E-03    0.43       2.4  T
   6   -229.6788141 -0.113679E-05  0.123E-03    0.43       7.7  T
   7   -229.6788142 -0.744639E-07  0.787E-04    0.43      12.1  T
     SCC iter.                  ...        0 min,  0.144 sec
     gradient                   ...        0 min,  0.029 sec
 * total energy  :  -226.6710205 Eh     change       -0.1499501E-03 Eh
   gradient norm :     0.0066471 Eh/α   predicted    -0.1203972E-03 ( -19.71%)
   displ. norm   :     0.4131262 α      lambda       -0.1882730E-03
   maximum displ.:     0.2708251 α      in ANC's #4, #7, #1, ...

........................................................................
.............................. CYCLE   36 ..............................
........................................................................
   1   -229.6796041 -0.229680E+03  0.117E-01    0.43       0.0  T
   2   -229.6796175 -0.134475E-04  0.630E-02    0.43       1.0  T
   3   -229.6796119  0.557212E-05  0.125E-02    0.43       1.0  T
   4   -229.6796178 -0.592052E-05  0.795E-03    0.43       1.2  T
   5   -229.6796217 -0.388758E-05  0.324E-03    0.43       2.9  T
   6   -229.6796227 -0.970475E-06  0.117E-03    0.43       8.1  T
   7   -229.6796228 -0.812619E-07  0.721E-04    0.43      13.2  T
     SCC iter.                  ...        0 min,  0.147 sec
     gradient                   ...        0 min,  0.029 sec
 * total energy  :  -226.6711818 Eh     change       -0.1613087E-03 Eh
   gradient norm :     0.0073926 Eh/α   predicted    -0.1102055E-03 ( -31.68%)
   displ. norm   :     0.5178462 α      lambda       -0.2686640E-03
   maximum displ.:     0.3423968 α      in ANC's #4, #7, #1, ...

........................................................................
.............................. CYCLE   37 ..............................
........................................................................
   1   -229.6814210 -0.229681E+03  0.135E-01    0.43       0.0  T
   2   -229.6814423 -0.212979E-04  0.725E-02    0.43       1.0  T
   3   -229.6814421  0.196973E-06  0.130E-02    0.43       1.0  T
   4   -229.6814440 -0.185184E-05  0.810E-03    0.43       1.2  T
   5   -229.6814467 -0.271819E-05  0.404E-03    0.43       2.4  T
   6   -229.6814486 -0.185291E-05  0.129E-03    0.43       7.4  T
   7   -229.6814486 -0.685273E-07  0.838E-04    0.43      11.4  T
     SCC iter.                  ...        0 min,  0.148 sec
     gradient                   ...        0 min,  0.029 sec
 * total energy  :  -226.6714049 Eh     change       -0.2231703E-03 Eh
   gradient norm :     0.0046349 Eh/α   predicted    -0.1703616E-03 ( -23.66%)
   displ. norm   :     0.6511241 α      lambda       -0.2722288E-03
   maximum displ.:     0.4299052 α      in ANC's #4, #7, #1, ...

........................................................................
.............................. CYCLE   38 ..............................
........................................................................
   1   -229.6779229 -0.229678E+03  0.179E-01    0.43       0.0  T
   2   -229.6779569 -0.340206E-04  0.965E-02    0.43       1.0  T
   3   -229.6779553  0.161795E-05  0.171E-02    0.43       1.0  T
   4   -229.6779580 -0.272270E-05  0.113E-02    0.43       1.0  T
   5   -229.6779657 -0.773036E-05  0.480E-03    0.43       2.0  T
   6   -229.6779683 -0.252772E-05  0.162E-03    0.43       5.9  T
   7   -229.6779684 -0.109419E-06  0.110E-03    0.43       8.7  T
     SCC iter.                  ...        0 min,  0.154 sec
     gradient                   ...        0 min,  0.029 sec
 * total energy  :  -226.6716182 Eh     change       -0.2132297E-03 Eh
   gradient norm :     0.0072696 Eh/α   predicted    -0.1938223E-03 (  -9.10%)
   displ. norm   :     0.5490025 α      lambda       -0.2623417E-03
   maximum displ.:     0.3742479 α      in ANC's #4, #7, #1, ...

........................................................................
.............................. CYCLE   39 ..............................
........................................................................
   1   -229.6819541 -0.229682E+03  0.127E-01    0.43       0.0  T
   2   -229.6819720 -0.178917E-04  0.675E-02    0.43       1.0  T
   3   -229.6819592  0.128607E-04  0.159E-02    0.43       1.0  T
   4   -229.6819727 -0.135721E-04  0.939E-03    0.43       1.0  T
   5   -229.6819774 -0.469777E-05  0.400E-03    0.43       2.4  T
   6   -229.6819788 -0.139213E-05  0.143E-03    0.43       6.7  T
   7   -229.6819790 -0.138305E-06  0.843E-04    0.43      11.3  T
     SCC iter.                  ...        0 min,  0.178 sec
     gradient                   ...        0 min,  0.029 sec
 * total energy  :  -226.6718203 Eh     change       -0.2021205E-03 Eh
   gradient norm :     0.0075438 Eh/α   predicted    -0.1707087E-03 ( -15.54%)
   displ. norm   :     0.6271531 α      lambda       -0.2743321E-03
   maximum displ.:     0.4345732 α      in ANC's #4, #7, #1, ...

........................................................................
.............................. CYCLE   40 ..............................
........................................................................
   1   -229.6819483 -0.229682E+03  0.147E-01    0.43       0.0  T
   2   -229.6819739 -0.256298E-04  0.785E-02    0.43       1.0  T
   3   -229.6819633  0.106246E-04  0.173E-02    0.43       1.0  T
   4   -229.6819751 -0.118541E-04  0.989E-03    0.43       1.0  T
   5   -229.6819797 -0.453415E-05  0.546E-03    0.43       1.7  T
   6   -229.6819827 -0.300499E-05  0.161E-03    0.43       5.9  T
   7   -229.6819828 -0.163034E-06  0.962E-04    0.43       9.9  T
   8   -229.6819829 -0.246815E-07  0.577E-04    0.43      16.5  T
     SCC iter.                  ...        0 min,  0.193 sec
     gradient                   ...        0 min,  0.029 sec
 * total energy  :  -226.6720239 Eh     change       -0.2036420E-03 Eh
   gradient norm :     0.0049130 Eh/α   predicted    -0.1911203E-03 (  -6.15%)
   displ. norm   :     0.6063114 α      lambda       -0.2269199E-03
   maximum displ.:     0.4195201 α      in ANC's #4, #7, #1, ...

........................................................................
.............................. CYCLE   41 ..............................
........................................................................
   1   -229.6800169 -0.229680E+03  0.153E-01    0.43       0.0  T
   2   -229.6800497 -0.327467E-04  0.821E-02    0.43       1.0  T
   3   -229.6800394  0.103240E-04  0.174E-02    0.43       1.0  T
   4   -229.6800472 -0.781627E-05  0.111E-02    0.42       1.0  T
   5   -229.6800572 -0.100346E-04  0.410E-03    0.43       2.3  T
   6   -229.6800584 -0.114939E-05  0.209E-03    0.43       4.6  T
   7   -229.6800587 -0.378659E-06  0.945E-04    0.43      10.1  T
     SCC iter.                  ...        0 min,  0.155 sec
     gradient                   ...        0 min,  0.029 sec
 * total energy  :  -226.6721641 Eh     change       -0.1401919E-03 Eh
   gradient norm :     0.0098941 Eh/α   predicted    -0.1551714E-03 (  10.68%)
   displ. norm   :     0.4029096 α      lambda       -0.2217690E-03
   maximum displ.:     0.2894702 α      in ANC's #4, #7, #1, ...

........................................................................
.............................. CYCLE   42 ..............................
........................................................................
   1   -229.6831215 -0.229683E+03  0.852E-02    0.43       0.0  T
   2   -229.6831351 -0.135648E-04  0.455E-02    0.43       1.0  T
   3   -229.6831066  0.285136E-04  0.171E-02    0.42       1.0  T
   4   -229.6831374 -0.308515E-04  0.725E-03    0.43       1.3  T
   5   -229.6831402 -0.275203E-05  0.384E-03    0.43       2.5  T
   6   -229.6831412 -0.100611E-05  0.153E-03    0.43       6.2  T
   7   -229.6831414 -0.188966E-06  0.762E-04    0.43      12.5  T
     SCC iter.                  ...        0 min,  0.158 sec
     gradient                   ...        0 min,  0.029 sec
 * total energy  :  -226.6723253 Eh     change       -0.1611905E-03 Eh
   gradient norm :     0.0064464 Eh/α   predicted    -0.1288900E-03 ( -20.04%)
   displ. norm   :     0.4660069 α      lambda       -0.1933648E-03
   maximum displ.:     0.3364338 α      in ANC's #4, #7, #6, ...
 * RMSD in coord.:     0.7123095 α      energy gain  -0.4508914E-02 Eh

generating ANC from model Hessian ...
Using Lindh-Hessian (1995)
 Shifting diagonal of input Hessian by   4.976970705091815E-003
 Lowest  eigenvalues of input Hessian
   -0.000000   -0.000000   -0.000000    0.000000    0.000000    0.000000
    0.005000    0.005011    0.005028    0.005054    0.005087    0.005107
    0.005174    0.005184    0.005269    0.005378    0.005395    0.005536
 Highest eigenvalues
    2.265342    2.275009    2.589815    2.624206    2.636463    2.666747
 

........................................................................
.............................. CYCLE   43 ..............................
........................................................................
   1   -229.6843680 -0.229684E+03  0.101E-01    0.43       0.0  T
   2   -229.6843869 -0.189444E-04  0.535E-02    0.43       1.0  T
   3   -229.6843697  0.171963E-04  0.161E-02    0.43       1.0  T
   4   -229.6843890 -0.192954E-04  0.787E-03    0.43       1.2  T
   5   -229.6843921 -0.306215E-05  0.397E-03    0.43       2.4  T
   6   -229.6843932 -0.109291E-05  0.147E-03    0.43       6.5  T
   7   -229.6843934 -0.162354E-06  0.794E-04    0.43      12.0  T
   8   -229.6843934 -0.251723E-07  0.512E-04    0.43      18.6  T
     SCC iter.                  ...        0 min,  0.177 sec
     gradient                   ...        0 min,  0.031 sec
 * total energy  :  -226.6724647 Eh     change       -0.1394297E-03 Eh
   gradient norm :     0.0055227 Eh/α   predicted     0.0000000E+00 (-100.00%)
   displ. norm   :     0.0869644 α      lambda       -0.8877843E-04
   maximum displ.:     0.0581930 α      in ANC's #3, #13, #18, ...

........................................................................
.............................. CYCLE   44 ..............................
........................................................................
   1   -229.6831683 -0.229683E+03  0.277E-02    0.43       0.0  T
   2   -229.6831699 -0.166959E-05  0.152E-02    0.43       1.0  T
   3   -229.6831678  0.207897E-05  0.538E-03    0.43       1.8  T
   4   -229.6831703 -0.249736E-05  0.211E-03    0.43       4.5  T
   5   -229.6831705 -0.203353E-06  0.107E-03    0.43       8.9  T
     SCC iter.                  ...        0 min,  0.111 sec
     gradient                   ...        0 min,  0.029 sec
 * total energy  :  -226.6725232 Eh     change       -0.5849540E-04 Eh
   gradient norm :     0.0027934 Eh/α   predicted    -0.4475113E-04 ( -23.50%)
   displ. norm   :     0.0787456 α      lambda       -0.6529063E-04
   maximum displ.:     0.0459231 α      in ANC's #3, #21, #13, ...

........................................................................
.............................. CYCLE   45 ..............................
........................................................................
   1   -229.6822415 -0.229682E+03  0.273E-02    0.43       0.0  T
   2   -229.6822432 -0.167435E-05  0.148E-02    0.43       1.0  T
   3   -229.6822407  0.246423E-05  0.580E-03    0.43       1.6  T
   4   -229.6822438 -0.305287E-05  0.197E-03    0.43       4.8  T
   5   -229.6822439 -0.131402E-06  0.106E-03    0.43       9.0  T
   6   -229.6822440 -0.570489E-07  0.458E-04    0.43      20.8  T
   7   -229.6822440 -0.112526E-07  0.290E-04    0.43      32.8  T
     SCC iter.                  ...        0 min,  0.149 sec
     gradient                   ...        0 min,  0.031 sec
 * total energy  :  -226.6725660 Eh     change       -0.4274864E-04 Eh
   gradient norm :     0.0029485 Eh/α   predicted    -0.3284866E-04 ( -23.16%)
   displ. norm   :     0.1200699 α      lambda       -0.5582420E-04
   maximum displ.:     0.0702728 α      in ANC's #3, #13, #20, ...

........................................................................
.............................. CYCLE   46 ..............................
........................................................................
   1   -229.6823030 -0.229682E+03  0.367E-02    0.43       0.0  T
   2   -229.6823045 -0.156977E-05  0.199E-02    0.43       1.0  T
   3   -229.6823027  0.184597E-05  0.526E-03    0.43       1.8  T
   4   -229.6823049 -0.224798E-05  0.242E-03    0.43       3.9  T
   5   -229.6823052 -0.228890E-06  0.118E-03    0.43       8.1  T
   6   -229.6823053 -0.111261E-06  0.451E-04    0.43      21.1  T
   7   -229.6823053 -0.837352E-08  0.316E-04    0.43      30.2  T
     SCC iter.                  ...        0 min,  0.154 sec
     gradient                   ...        0 min,  0.031 sec
 * total energy  :  -226.6726099 Eh     change       -0.4393102E-04 Eh
   gradient norm :     0.0036589 Eh/α   predicted    -0.2831537E-04 ( -35.55%)
   displ. norm   :     0.2458997 α      lambda       -0.1037989E-03
   maximum displ.:     0.1402792 α      in ANC's #3, #13, #18, ...

........................................................................
.............................. CYCLE   47 ..............................
........................................................................
   1   -229.6825658 -0.229683E+03  0.731E-02    0.43       0.0  T
   2   -229.6825715 -0.573466E-05  0.395E-02    0.43       1.0  T
   3   -229.6825677  0.380454E-05  0.877E-03    0.43       1.1  T
   4   -229.6825721 -0.442327E-05  0.505E-03    0.43       1.9  T
   5   -229.6825736 -0.147849E-05  0.202E-03    0.43       4.7  T
   6   -229.6825740 -0.366684E-06  0.774E-04    0.43      12.3  T
   7   -229.6825740 -0.188491E-07  0.544E-04    0.43      17.5  T
     SCC iter.                  ...        0 min,  0.151 sec
     gradient                   ...        0 min,  0.031 sec
 * total energy  :  -226.6726747 Eh     change       -0.6483197E-04 Eh
   gradient norm :     0.0053460 Eh/α   predicted    -0.5503871E-04 ( -15.11%)
   displ. norm   :     0.2358192 α      lambda       -0.9673287E-04
   maximum displ.:     0.1391687 α      in ANC's #3, #13, #20, ...

........................................................................
.............................. CYCLE   48 ..............................
........................................................................
   1   -229.6823202 -0.229682E+03  0.693E-02    0.43       0.0  T
   2   -229.6823254 -0.526530E-05  0.373E-02    0.43       1.0  T
   3   -229.6823202  0.525222E-05  0.925E-03    0.43       1.0  T
   4   -229.6823268 -0.656458E-05  0.451E-03    0.43       2.1  T
   5   -229.6823276 -0.802079E-06  0.183E-03    0.43       5.2  T
   6   -229.6823278 -0.289861E-06  0.772E-04    0.43      12.4  T
     SCC iter.                  ...        0 min,  0.133 sec
     gradient                   ...        0 min,  0.029 sec
 * total energy  :  -226.6727451 Eh     change       -0.7036803E-04 Eh
   gradient norm :     0.0043484 Eh/α   predicted    -0.5105774E-04 ( -27.44%)
   displ. norm   :     0.2105273 α      lambda       -0.7172526E-04
   maximum displ.:     0.1323292 α      in ANC's #3, #13, #4, ...

........................................................................
.............................. CYCLE   49 ..............................
........................................................................
   1   -229.6827690 -0.229683E+03  0.570E-02    0.43       0.0  T
   2   -229.6827728 -0.384205E-05  0.306E-02    0.43       1.0  T
   3   -229.6827704  0.239098E-05  0.725E-03    0.43       1.3  T
   4   -229.6827736 -0.316141E-05  0.378E-03    0.43       2.5  T
   5   -229.6827741 -0.525449E-06  0.171E-03    0.43       5.6  T
   6   -229.6827743 -0.230124E-06  0.686E-04    0.43      13.9  T
     SCC iter.                  ...        0 min,  0.146 sec
     gradient                   ...        0 min,  0.029 sec
 * total energy  :  -226.6728028 Eh     change       -0.5770380E-04 Eh
   gradient norm :     0.0031902 Eh/α   predicted    -0.3745827E-04 ( -35.09%)
   displ. norm   :     0.2411417 α      lambda       -0.8522402E-04
   maximum displ.:     0.1557117 α      in ANC's #3, #4, #2, ...

........................................................................
.............................. CYCLE   50 ..............................
........................................................................
   1   -229.6834451 -0.229683E+03  0.669E-02    0.43       0.0  T
   2   -229.6834496 -0.445948E-05  0.362E-02    0.43       1.0  T
   3   -229.6834470  0.257631E-05  0.798E-03    0.43       1.2  T
   4   -229.6834500 -0.294786E-05  0.475E-03    0.43       2.0  T
   5   -229.6834512 -0.121106E-05  0.186E-03    0.43       5.1  T
   6   -229.6834515 -0.327190E-06  0.745E-04    0.43      12.8  T
   7   -229.6834515 -0.336198E-07  0.481E-04    0.43      19.8  T
     SCC iter.                  ...        0 min,  0.163 sec
     gradient                   ...        0 min,  0.031 sec
 * total energy  :  -226.6728654 Eh     change       -0.6253894E-04 Eh
   gradient norm :     0.0024977 Eh/α   predicted    -0.4509212E-04 ( -27.90%)
   displ. norm   :     0.2373137 α      lambda       -0.7654203E-04
   maximum displ.:     0.1560577 α      in ANC's #3, #4, #2, ...

........................................................................
.............................. CYCLE   51 ..............................
........................................................................
   1   -229.6832857 -0.229683E+03  0.655E-02    0.43       0.0  T
   2   -229.6832904 -0.471339E-05  0.354E-02    0.43       1.0  T
   3   -229.6832890  0.147128E-05  0.718E-03    0.43       1.3  T
   4   -229.6832909 -0.197297E-05  0.421E-03    0.43       2.3  T
   5   -229.6832917 -0.798679E-06  0.215E-03    0.43       4.4  T
   6   -229.6832922 -0.481457E-06  0.698E-04    0.43      13.7  T
   7   -229.6832922 -0.218247E-07  0.480E-04    0.43      19.8  T
     SCC iter.                  ...        0 min,  0.151 sec
     gradient                   ...        0 min,  0.031 sec
 * total energy  :  -226.6729255 Eh     change       -0.6011612E-04 Eh
   gradient norm :     0.0028513 Eh/α   predicted    -0.4042701E-04 ( -32.75%)
   displ. norm   :     0.2285382 α      lambda       -0.6642444E-04
   maximum displ.:     0.1509963 α      in ANC's #3, #4, #2, ...

........................................................................
.............................. CYCLE   52 ..............................
........................................................................
   1   -229.6829020 -0.229683E+03  0.629E-02    0.43       0.0  T
   2   -229.6829058 -0.384954E-05  0.341E-02    0.43       1.0  T
   3   -229.6829044  0.137605E-05  0.668E-03    0.43       1.4  T
   4   -229.6829059 -0.142339E-05  0.419E-03    0.43       2.3  T
   5   -229.6829071 -0.126166E-05  0.159E-03    0.43       6.0  T
   6   -229.6829074 -0.232502E-06  0.642E-04    0.43      14.8  T
   7   -229.6829074 -0.197153E-07  0.416E-04    0.43      22.9  T
     SCC iter.                  ...        0 min,  0.154 sec
     gradient                   ...        0 min,  0.031 sec
 * total energy  :  -226.6729830 Eh     change       -0.5753127E-04 Eh
   gradient norm :     0.0036816 Eh/α   predicted    -0.3494899E-04 ( -39.25%)
   displ. norm   :     0.2811640 α      lambda       -0.9366493E-04
   maximum displ.:     0.1835907 α      in ANC's #3, #2, #4, ...

........................................................................
.............................. CYCLE   53 ..............................
........................................................................
   1   -229.6823186 -0.229682E+03  0.783E-02    0.43       0.0  T
   2   -229.6823245 -0.589678E-05  0.424E-02    0.43       1.0  T
   3   -229.6823219  0.257190E-05  0.876E-03    0.43       1.1  T
   4   -229.6823254 -0.348943E-05  0.493E-03    0.43       1.9  T
   5   -229.6823266 -0.124715E-05  0.184E-03    0.43       5.2  T
   6   -229.6823269 -0.288902E-06  0.733E-04    0.43      13.0  T
   7   -229.6823269 -0.261355E-07  0.468E-04    0.43      20.4  T
     SCC iter.                  ...        0 min,  0.159 sec
     gradient                   ...        0 min,  0.033 sec
 * total energy  :  -226.6730604 Eh     change       -0.7736082E-04 Eh
   gradient norm :     0.0045172 Eh/α   predicted    -0.5053510E-04 ( -34.68%)
   displ. norm   :     0.3471181 α      lambda       -0.1187120E-03
   maximum displ.:     0.2263941 α      in ANC's #3, #2, #4, ...

........................................................................
.............................. CYCLE   54 ..............................
........................................................................
   1   -229.6822189 -0.229682E+03  0.925E-02    0.43       0.0  T
   2   -229.6822269 -0.801109E-05  0.495E-02    0.43       1.0  T
   3   -229.6822261  0.847430E-06  0.942E-03    0.43       1.0  T
   4   -229.6822276 -0.154034E-05  0.604E-03    0.43       1.6  T
   5   -229.6822296 -0.198793E-05  0.182E-03    0.43       5.2  T
   6   -229.6822299 -0.276315E-06  0.751E-04    0.43      12.7  T
     SCC iter.                  ...        0 min,  0.137 sec
     gradient                   ...        0 min,  0.029 sec
 * total energy  :  -226.6731562 Eh     change       -0.9585714E-04 Eh
   gradient norm :     0.0042731 Eh/α   predicted    -0.6650899E-04 ( -30.62%)
   displ. norm   :     0.3472158 α      lambda       -0.9592271E-04
   maximum displ.:     0.2321208 α      in ANC's #3, #2, #4, ...

........................................................................
.............................. CYCLE   55 ..............................
........................................................................
   1   -229.6820173 -0.229682E+03  0.869E-02    0.43       0.0  T
   2   -229.6820246 -0.737724E-05  0.465E-02    0.43       1.0  T
   3   -229.6820229  0.177340E-05  0.931E-03    0.43       1.0  T
   4   -229.6820250 -0.208802E-05  0.587E-03    0.43       1.6  T
   5   -229.6820268 -0.183373E-05  0.231E-03    0.43       4.1  T
   6   -229.6820273 -0.516580E-06  0.794E-04    0.43      12.0  T
     SCC iter.                  ...        0 min,  0.139 sec
     gradient                   ...        0 min,  0.029 sec
 * total energy  :  -226.6732369 Eh     change       -0.8070616E-04 Eh
   gradient norm :     0.0033340 Eh/α   predicted    -0.5374629E-04 ( -33.40%)
   displ. norm   :     0.2806879 α      lambda       -0.7418432E-04
   maximum displ.:     0.1949353 α      in ANC's #3, #2, #4, ...

........................................................................
.............................. CYCLE   56 ..............................
........................................................................
   1   -229.6829800 -0.229683E+03  0.653E-02    0.43       0.0  T
   2   -229.6829843 -0.428229E-05  0.347E-02    0.43       1.0  T
   3   -229.6829804  0.383196E-05  0.827E-03    0.43       1.2  T
   4   -229.6829840 -0.357832E-05  0.499E-03    0.43       1.9  T
   5   -229.6829856 -0.158822E-05  0.194E-03    0.43       4.9  T
   6   -229.6829859 -0.332830E-06  0.762E-04    0.43      12.5  T
   7   -229.6829860 -0.363109E-07  0.475E-04    0.43      20.1  T
     SCC iter.                  ...        0 min,  0.150 sec
     gradient                   ...        0 min,  0.031 sec
 * total energy  :  -226.6733000 Eh     change       -0.6307298E-04 Eh
   gradient norm :     0.0019502 Eh/α   predicted    -0.4001545E-04 ( -36.56%)
   displ. norm   :     0.3776383 α      lambda       -0.6432745E-04
   maximum displ.:     0.2672146 α      in ANC's #3, #2, #4, ...

........................................................................
.............................. CYCLE   57 ..............................
........................................................................
   1   -229.6836509 -0.229684E+03  0.859E-02    0.43       0.0  T
   2   -229.6836576 -0.673501E-05  0.459E-02    0.42       1.0  T
   3   -229.6836529  0.470713E-05  0.103E-02    0.43       1.0  T
   4   -229.6836570 -0.408927E-05  0.645E-03    0.42       1.5  T
   5   -229.6836598 -0.282529E-05  0.214E-03    0.43       4.4  T
   6   -229.6836602 -0.388902E-06  0.862E-04    0.43      11.1  T
   7   -229.6836602 -0.362329E-07  0.573E-04    0.43      16.6  T
     SCC iter.                  ...        0 min,  0.153 sec
     gradient                   ...        0 min,  0.031 sec
 * total energy  :  -226.6733813 Eh     change       -0.8131327E-04 Eh
   gradient norm :     0.0026886 Eh/α   predicted    -0.3420608E-04 ( -57.93%)
   displ. norm   :     0.2237298 α      lambda       -0.6172046E-04
   maximum displ.:     0.1597554 α      in ANC's #3, #2, #4, ...

........................................................................
.............................. CYCLE   58 ..............................
........................................................................
   1   -229.6844468 -0.229684E+03  0.490E-02    0.42       0.0  T
   2   -229.6844492 -0.240660E-05  0.259E-02    0.43       1.0  T
   3   -229.6844466  0.262286E-05  0.657E-03    0.42       1.5  T
   4   -229.6844493 -0.265957E-05  0.370E-03    0.43       2.6  T
   5   -229.6844500 -0.720023E-06  0.137E-03    0.42       7.0  T
   6   -229.6844501 -0.154394E-06  0.583E-04    0.43      16.3  T
   7   -229.6844502 -0.234173E-07  0.349E-04    0.42      27.4  T
     SCC iter.                  ...        0 min,  0.154 sec
     gradient                   ...        0 min,  0.031 sec
 * total energy  :  -226.6734373 Eh     change       -0.5593849E-04 Eh
   gradient norm :     0.0031896 Eh/α   predicted    -0.3240688E-04 ( -42.07%)
   displ. norm   :     0.2976554 α      lambda       -0.8452310E-04
   maximum displ.:     0.2074026 α      in ANC's #3, #2, #4, ...

........................................................................
.............................. CYCLE   59 ..............................
........................................................................
   1   -229.6844366 -0.229684E+03  0.669E-02    0.42       0.0  T
   2   -229.6844401 -0.355180E-05  0.355E-02    0.42       1.0  T
   3   -229.6844396  0.494490E-06  0.674E-03    0.43       1.4  T
   4   -229.6844386  0.106863E-05  0.519E-03    0.42       1.8  T
   5   -229.6844412 -0.262066E-05  0.113E-03    0.43       8.4  T
   6   -229.6844413 -0.113709E-06  0.566E-04    0.42      16.8  T
   7   -229.6844413 -0.983826E-08  0.394E-04    0.42      24.2  T
     SCC iter.                  ...        0 min,  0.155 sec
     gradient                   ...        0 min,  0.031 sec
 * total energy  :  -226.6735143 Eh     change       -0.7705126E-04 Eh
   gradient norm :     0.0030625 Eh/α   predicted    -0.4600650E-04 ( -40.29%)
   displ. norm   :     0.3699889 α      lambda       -0.9735145E-04
   maximum displ.:     0.2581709 α      in ANC's #3, #2, #4, ...

........................................................................
.............................. CYCLE   60 ..............................
........................................................................
   1   -229.6840821 -0.229684E+03  0.782E-02    0.42       0.0  T
   2   -229.6840869 -0.478258E-05  0.415E-02    0.42       1.0  T
   3   -229.6840871 -0.159316E-06  0.745E-03    0.43       1.3  T
   4   -229.6840853  0.183251E-05  0.551E-03    0.42       1.7  T
   5   -229.6840883 -0.301470E-05  0.123E-03    0.42       7.8  T
   6   -229.6840884 -0.115786E-06  0.644E-04    0.42      14.8  T
   7   -229.6840884 -0.106078E-07  0.478E-04    0.42      20.0  T
     SCC iter.                  ...        0 min,  0.152 sec
     gradient                   ...        0 min,  0.031 sec
 * total energy  :  -226.6736012 Eh     change       -0.8693672E-04 Eh
   gradient norm :     0.0026193 Eh/α   predicted    -0.5534402E-04 ( -36.34%)
   displ. norm   :     0.3743628 α      lambda       -0.8964461E-04
   maximum displ.:     0.2635800 α      in ANC's #3, #2, #4, ...

[...]
    63   6 C      2.993     0.020    27.556     8.611
    64   6 C      3.126    -0.060    29.296     8.863
    65   6 C      3.101     0.075    26.209     8.389
    66   6 C      3.002     0.019    27.568     8.613
    67  16 S      2.375    -0.024   142.026    20.058
    68   6 C      3.776    -0.110    22.630     6.778
    69  17 Cl     0.944    -0.175   104.631    15.649
    70   6 C      3.007     0.023    27.482     8.599
    71   6 C      3.142     0.001    27.751     8.620
    72   6 C      3.012    -0.001    28.041     8.686
    73   6 C      3.013     0.012    27.739     8.639
    74  16 S      2.337     0.016   140.409    19.943
    75   6 C      2.994     0.020    27.561     8.612
    76   6 C      3.127    -0.059    29.265     8.858
    77   6 C      3.101     0.076    26.183     8.385
    78   6 C      3.003     0.017    27.624     8.622
    79  16 S      2.374    -0.026   142.135    20.066
    80   6 C      3.775    -0.108    22.594     6.772
    81  17 Cl     0.944    -0.171   104.527    15.641
    82   6 C      3.075    -0.048    29.104     8.845
    83   6 C      2.934    -0.007    28.199     8.709
    84  16 S      2.255    -0.039   142.682    20.104
    85   1 H      0.926     0.055     2.257     2.349
    86   1 H      0.926     0.051     2.313     2.378
    87   1 H      0.926     0.060     2.201     2.320
    88   1 H      0.925     0.064     2.157     2.297
    89   1 H      0.925     0.065     2.140     2.288
    90   1 H      0.925     0.067     2.121     2.278
    91   1 H      0.926     0.065     2.138     2.286
    92   1 H      0.925     0.067     2.118     2.276
    93   1 H      0.925     0.064     2.156     2.296
    94   1 H      0.925     0.069     2.101     2.267
    95   1 H      0.926     0.061     2.184     2.311
    96   1 H      0.926     0.088     1.896     2.153
    97   1 H      0.926     0.069     2.094     2.263
    98   1 H      0.926     0.067     2.122     2.278
    99   1 H      0.926     0.085     1.929     2.172
   100   1 H      0.926     0.065     2.145     2.290
   101   1 H      0.926     0.066     2.129     2.282
   102   1 H      0.925     0.067     2.115     2.274
   103   1 H      0.925     0.070     2.087     2.259
   104   1 H      0.925     0.064     2.155     2.296
   105   1 H      0.926     0.069     2.101     2.267
   106   1 H      0.925     0.067     2.114     2.274
   107   1 H      0.925     0.063     2.165     2.301
   108   1 H      0.925     0.061     2.186     2.312
   109   1 H      0.926     0.056     2.246     2.343
   110   1 H      0.926     0.055     2.259     2.350

 Mol. C6AA /au·bohr⁶  :     326572.387715
 Mol. C8AA /au·bohr⁸  :   10549067.679974
 Mol. α(0) /au        :        923.969168


Wiberg/Mayer (AO) data.
largest (>0.10) Wiberg bond orders for each atom
          total WBO             WBO to atom ...
     1  C   3.932        C    2 1.677    S   16 1.154    H   85 0.969
     2  C   3.981        C    1 1.677    C    3 1.198    H   86 0.959
     3  C   3.972        C    4 1.279    C   15 1.267    C    2 1.198
     4  C   3.971        C   12 1.364    C    3 1.279    C    5 1.086
     5  C   3.950        C    6 1.553    S    9 1.125    C    4 1.086
     6  C   3.976        C    5 1.553    C    7 1.254    H   87 0.961
     7  C   3.902        C    8 1.538    C    6 1.254    Cl  11 0.964
     8  C   3.939        C    7 1.538    S    9 1.158    C   10 1.042
     9  S   2.597        C    8 1.158    C    5 1.125
    10  C   3.990        C    8 1.042    H   90 0.975    H   88 0.967    H   89 0.966
    11  Cl  1.104        C    7 0.964
    12  C   3.948        C    4 1.364    C   13 1.252    S   26 1.107
    13  C   3.981        C   14 1.272    C   12 1.252    C   24 1.233
    14  C   3.955        C   15 1.353    C   13 1.272    C   17 1.097
    15  C   3.954        C   14 1.353    C    3 1.267    S   16 1.108
    16  S   2.551        C    1 1.154    C   15 1.108
    17  C   3.949        C   18 1.545    S   21 1.120    C   14 1.097
    18  C   3.970        C   17 1.545    C   19 1.258    H   91 0.957
    19  C   3.903        C   20 1.535    C   18 1.258    Cl  23 0.966
    20  C   3.936        C   19 1.535    S   21 1.158    C   22 1.043
    21  S   2.585        C   20 1.158    C   17 1.120
    22  C   3.990        C   20 1.043    H   92 0.975    H   93 0.966    H   94 0.965
    23  Cl  1.107        C   19 0.966
    24  C   3.960        C   25 1.540    C   13 1.233    H   95 0.950
    25  C   3.938        C   24 1.540    C   27 1.158    S   26 1.087
    26  S   2.524        C   12 1.107    C   25 1.087
    27  C   3.929        C   31 1.527    C   25 1.158    S   28 1.095
    28  S   2.586        C   29 1.155    C   27 1.095
    29  C   3.947        C   30 1.344    C   35 1.234    S   28 1.155
    30  C   3.933        C   29 1.344    C   31 1.257    N   32 1.042
    31  C   3.955        C   27 1.527    C   30 1.257    H   96 0.953
    32  N   3.898        O   34 1.430    O   33 1.364    C   30 1.042
    33  O   1.969        N   32 1.364    O   34 0.310    S   39 0.143
    34  O   1.902        N   32 1.430    O   33 0.310
    35  C   3.925        C   36 1.395    C   29 1.234    S   39 1.113
    36  C   3.964        C   35 1.395    C   37 1.376    H   97 0.952
    37  C   3.956        C   36 1.376    C   38 1.284    C   42 1.092
    38  C   3.934        C   37 1.284    S   39 1.237    C   40 1.185
    39  S   2.813        C   38 1.237    C   35 1.113    O   33 0.143
    40  C   3.925        C   41 1.320    S   50 1.198    C   38 1.185
    41  C   3.949        C   48 1.324    C   40 1.320    C   42 1.099
    42  C   3.980        C   43 1.512    C   41 1.099    C   37 1.092
    43  C   3.985        C   42 1.512    C   46 1.094    C   44 1.094
    44  C   3.947        N   45 2.784    C   43 1.094
    45  N   2.976        C   44 2.784
    46  C   3.947        N   47 2.783    C   43 1.094
    47  N   2.976        C   46 2.783
    48  C   3.966        C   49 1.463    C   41 1.324    H   98 0.955
    49  C   3.906        C   48 1.463    C   51 1.175    S   50 1.112
    50  S   2.623        C   40 1.198    C   49 1.112
    51  C   3.937        C   55 1.511    C   49 1.175    S   52 1.096
    52  S   2.591        C   53 1.157    C   51 1.096
    53  C   3.940        C   54 1.365    C   59 1.207    S   52 1.157
    54  C   3.932        C   53 1.365    C   55 1.267    N   56 1.019
    55  C   3.958        C   51 1.511    C   54 1.267    H   99 0.954
    56  N   3.904        O   58 1.430    O   57 1.398    C   54 1.019
    57  O   1.975        N   56 1.398    O   58 0.327    S   74 0.106
    58  O   1.905        N   56 1.430    O   57 0.327
    59  C   3.944        C   60 1.470    C   53 1.207    S   74 1.101
    60  C   3.959        C   59 1.470    C   61 1.276    H  100 0.946    S   74 0.106
    61  C   3.978        C   60 1.276    C   62 1.247    C   73 1.241
    62  C   3.949        C   70 1.368    C   61 1.247    C   63 1.104
    63  C   3.948        C   64 1.539    S   67 1.118    C   62 1.104
    64  C   3.968        C   63 1.539    C   65 1.261    H  101 0.957
    65  C   3.902        C   66 1.531    C   64 1.261    Cl  69 0.966
    66  C   3.932        C   65 1.531    S   67 1.158    C   68 1.043
    67  S   2.583        C   66 1.158    C   63 1.118
    68  C   3.990        C   66 1.043    H  102 0.975    H  104 0.967    H  103 0.964
    69  Cl  1.107        C   65 0.966
    70  C   3.952        C   62 1.368    C   71 1.255    S   84 1.105
    71  C   3.966        C   72 1.289    C   70 1.255    C   82 1.201
    72  C   3.970        C   73 1.348    C   71 1.289    C   75 1.093
    73  C   3.955        C   72 1.348    C   61 1.241    S   74 1.127
    74  S   2.674        C   73 1.127    C   59 1.101    O   57 0.106    C   60 0.106
    75  C   3.949        C   76 1.549    S   79 1.120    C   72 1.093
    76  C   3.972        C   75 1.549    C   77 1.256    H  105 0.956
    77  C   3.905        C   78 1.537    C   76 1.256    Cl  81 0.968
    78  C   3.937        C   77 1.537    S   79 1.156    C   80 1.042
    79  S   2.582        C   78 1.156    C   75 1.120
    80  C   3.991        C   78 1.042    H  106 0.975    H  108 0.969    H  107 0.966
    81  Cl  1.111        C   77 0.968
    82  C   3.979        C   83 1.673    C   71 1.201    H  109 0.955
    83  C   3.923        C   82 1.673    S   84 1.154    H  110 0.969
    84  S   2.547        C   83 1.154    C   70 1.105
    85  H   0.996        C    1 0.969
    86  H   0.997        C    2 0.959
    87  H   0.996        C    6 0.961
    88  H   0.994        C   10 0.967
    89  H   0.994        C   10 0.966
    90  H   0.995        C   10 0.975
    91  H   0.996        C   18 0.957
    92  H   0.995        C   22 0.975
    93  H   0.994        C   22 0.966
    94  H   0.993        C   22 0.965
    95  H   0.995        C   24 0.950
    96  H   0.992        C   31 0.953
    97  H   0.995        C   36 0.952
    98  H   0.995        C   48 0.955
    99  H   0.992        C   55 0.954
   100  H   0.995        C   60 0.946
   101  H   0.995        C   64 0.957
   102  H   0.995        C   68 0.975
   103  H   0.993        C   68 0.964
   104  H   0.994        C   68 0.967
   105  H   0.995        C   76 0.956
   106  H   0.995        C   80 0.975
   107  H   0.994        C   80 0.966
   108  H   0.995        C   80 0.969
   109  H   0.996        C   82 0.955
   110  H   0.996        C   83 0.969

molecular dipole:
                 x           y           z       tot (Debye)
 q only:        0.420       1.002      -1.783
   full:        0.023       0.349      -1.975       5.098
molecular quadrupole (traceless):
                xx          xy          yy          xz          yz          zz
 q only:       63.820      54.772      32.282     -37.833      39.158     -96.102
  q+dip:       35.982      36.580      33.383     -28.268      37.687     -69.365
   full:       41.904      28.778      32.909     -29.041      37.493     -74.812

           -------------------------------------------------
          |                Geometry Summary                 |
           -------------------------------------------------

      molecular mass/u    :     1393.4218000
   center of mass at/Å    :        9.8076608       5.2337242       2.7787685
  moments of inertia/u·Å² :        0.1641334E+05   0.1329502E+06   0.1483888E+06
rotational constants/cm⁻¹ :        0.1027069E-02   0.1267966E-03   0.1136044E-03

 * 117 selected distances

     #   Z        #   Z                                     value/Å
     1   6 C      2   6 C                                 1.3482274
     2   6 C      3   6 C                                 1.4259053
     3   6 C      4   6 C                                 1.4061924
     5   6 C      6   6 C                                 1.3646098
     6   6 C      7   6 C                                 1.4124034
     7   6 C      8   6 C                                 1.3642040
     5   6 C      9  16 S                                 1.7423389
     8   6 C      9  16 S                                 1.7315742
     8   6 C     10   6 C                                 1.4844919
     7   6 C     11  17 Cl                                1.7231231
     4   6 C     12   6 C                                 1.3902723
    12   6 C     13   6 C                                 1.4169882
    13   6 C     14   6 C                                 1.4086027
     3   6 C     15   6 C                                 1.4149023
    14   6 C     15   6 C                                 1.3934810
     1   6 C     16  16 S                                 1.7282492
    15   6 C     16  16 S                                 1.7431471
    17   6 C     18   6 C                                 1.3657877
    18   6 C     19   6 C                                 1.4115451
    19   6 C     20   6 C                                 1.3646788
    17   6 C     21  16 S                                 1.7448947
    20   6 C     21  16 S                                 1.7302010
    20   6 C     22   6 C                                 1.4840055
    19   6 C     23  17 Cl                                1.7219006
    13   6 C     24   6 C                                 1.4169120
    24   6 C     25   6 C                                 1.3633451
    12   6 C     26  16 S                                 1.7416094
    25   6 C     26  16 S                                 1.7501274
    25   6 C     27   6 C                                 1.4245714
    27   6 C     28  16 S                                 1.7471784
    28  16 S     29   6 C                                 1.7449710
    29   6 C     30   6 C                                 1.3999555
    27   6 C     31   6 C                                 1.3633827
    30   6 C     31   6 C                                 1.4129099
    30   6 C     32   7 N                                 1.4024022
    32   7 N     33   8 O                                 1.2280202
    32   7 N     34   8 O                                 1.2147104
    29   6 C     35   6 C                                 1.4161506
    35   6 C     36   6 C                                 1.3946250
    36   6 C     37   6 C                                 1.3856936
    37   6 C     38   6 C                                 1.4098405
    35   6 C     39  16 S                                 1.7599008 (max)
    38   6 C     39  16 S                                 1.7023947
    38   6 C     40   6 C                                 1.4190296
    40   6 C     41   6 C                                 1.4052144
    41   6 C     42   6 C                                 1.4533793
    42   6 C     43   6 C                                 1.3643229
    44   6 C     45   7 N                                 1.1465799
    46   6 C     47   7 N                                 1.1467980
    41   6 C     48   6 C                                 1.3963759
    48   6 C     49   6 C                                 1.3805394
    40   6 C     50  16 S                                 1.7060482
    49   6 C     50  16 S                                 1.7558040
    49   6 C     51   6 C                                 1.4218826
    51   6 C     52  16 S                                 1.7471718
    52  16 S     53   6 C                                 1.7430201
    53   6 C     54   6 C                                 1.3960713
    51   6 C     55   6 C                                 1.3658955
    54   6 C     55   6 C                                 1.4117412
    54   6 C     56   7 N                                 1.4120888
    56   7 N     57   8 O                                 1.2204024
    56   7 N     58   8 O                                 1.2152585
    53   6 C     59   6 C                                 1.4209775
    59   6 C     60   6 C                                 1.3764184
    60   6 C     61   6 C                                 1.4067204
    61   6 C     62   6 C                                 1.4133800
    63   6 C     64   6 C                                 1.3666333
    64   6 C     65   6 C                                 1.4109928
    65   6 C     66   6 C                                 1.3650549
    63   6 C     67  16 S                                 1.7456567
    66   6 C     67  16 S                                 1.7301278
    66   6 C     68   6 C                                 1.4839147
    65   6 C     69  17 Cl                                1.7217423
    62   6 C     70   6 C                                 1.3910143
    70   6 C     71   6 C                                 1.4178078
    71   6 C     72   6 C                                 1.4056288
    61   6 C     73   6 C                                 1.4175388
    72   6 C     73   6 C                                 1.3939010
    59   6 C     74  16 S                                 1.7502340
    73   6 C     74  16 S                                 1.7390160
    75   6 C     76   6 C                                 1.3652924
    76   6 C     77   6 C                                 1.4118392
    77   6 C     78   6 C                                 1.3643249
    75   6 C     79  16 S                                 1.7442933
    78   6 C     79  16 S                                 1.7308969
    78   6 C     80   6 C                                 1.4845226
    77   6 C     81  17 Cl                                1.7205191
    71   6 C     82   6 C                                 1.4256168
    82   6 C     83   6 C                                 1.3483287
    70   6 C     84  16 S                                 1.7442699
    83   6 C     84  16 S                                 1.7272813
     1   6 C     85   1 H                                 1.0724545
     2   6 C     86   1 H                                 1.0740633
     6   6 C     87   1 H                                 1.0743397
    10   6 C     88   1 H                                 1.0894324
    10   6 C     89   1 H                                 1.0895434
    10   6 C     90   1 H                                 1.0871022
    18   6 C     91   1 H                                 1.0738661
    22   6 C     92   1 H                                 1.0870135
    22   6 C     93   1 H                                 1.0895778
    22   6 C     94   1 H                                 1.0895544
    24   6 C     95   1 H                                 1.0746642
    31   6 C     96   1 H                                 1.0751359
    36   6 C     97   1 H                                 1.0756353
    48   6 C     98   1 H                                 1.0752614
    55   6 C     99   1 H                                 1.0753570
    60   6 C    100   1 H                                 1.0748981
    64   6 C    101   1 H                                 1.0738462
    68   6 C    102   1 H                                 1.0870382
    68   6 C    103   1 H                                 1.0898156
    68   6 C    104   1 H                                 1.0893642
    76   6 C    105   1 H                                 1.0738014
    80   6 C    106   1 H                                 1.0870663
    80   6 C    107   1 H                                 1.0899007
    80   6 C    108   1 H                                 1.0893176
    82   6 C    109   1 H                                 1.0736871
    83   6 C    110   1 H                                 1.0724216 (min)

 * 6 distinct bonds (by element types)

   Z      Z             #   av. dist./Å        max./Å        min./Å
   1 H    6 C          26     1.0809292     1.0899007     1.0724216
   6 C    6 C          55     1.4023281     1.4845226     1.3482274
   6 C    7 N           4     1.2769672     1.4120888     1.1465799
   7 N    8 O           4     1.2195979     1.2280202     1.2147104
   6 C   16 S          24     1.7387670     1.7599008     1.7023947
   6 C   17 Cl          4     1.7218213     1.7231231     1.7205191


optimized geometry written to: xtbopt.xyz


           -------------------------------------------------
          | TOTAL ENERGY             -226.675650660673 Eh   |
          | GRADIENT NORM               0.000848414583 Eh/α |
          | HOMO-LUMO GAP               0.411733527441 eV   |
           -------------------------------------------------

------------------------------------------------------------------------
 * finished run on 2021/06/23 at 03:55:55.399     
------------------------------------------------------------------------
 total:
 * wall-time:     0 d,  0 h,  0 min, 29.380 sec
 *  cpu-time:     0 d,  0 h,  5 min, 50.432 sec
 * ratio c/w:    11.928 speedup
 SCF:
 * wall-time:     0 d,  0 h,  0 min,  0.460 sec
 *  cpu-time:     0 d,  0 h,  0 min,  5.498 sec
 * ratio c/w:    11.955 speedup
 ANC optimizer:
 * wall-time:     0 d,  0 h,  0 min, 28.802 sec
 *  cpu-time:     0 d,  0 h,  5 min, 44.061 sec
 * ratio c/w:    11.946 speedup

