      -----------------------------------------------------------      
     |                   =====================                   |     
     |                           x T B                           |     
     |                   =====================                   |     
     |                         S. Grimme                         |     
     |          Mulliken Center for Theoretical Chemistry        |     
     |                    University of Bonn                     |     
     |                Version 6.2 RC2 (SAW190805)                |     
      -----------------------------------------------------------      

   This program is distributed in the hope that it will be useful,
   but WITHOUT ANY WARRANTY; without even the implied warranty of
   MERCHANTABILITY or FITNESS FOR A PARTICULAR PURPOSE.
   
   FOR NON-COMMERCIAL, ACADEMIA USE ONLY.
   
   Cite this work as:
   * S. Grimme, C. Bannwarth, P. Shushkov, J. Chem. Theory Comput., 2017,
     13, 1989-2009. DOI: 10.1021/acs.jctc.7b00118
   * C. Bannwarth, S. Ehlert and S. Grimme., J. Chem. Theory Comput., 2019,
     15, 1652-1671. DOI: 10.1021/acs.jctc.8b01176
   * P. Pracht, E. Caldeweyher, S. Ehlert, S. Grimme, ChemRxiv, 2019, preprint.
     DOI: 10.26434/chemrxiv.8326202.v1
   
   for DFT-D4:
   * E. Caldeweyher, C. Bannwarth and S. Grimme, J. Chem. Phys., 2017,
     147, 034112. DOI: 10.1063/1.4993215
   * E. Caldeweyher, S. Ehlert, A. Hansen, H. Neugebauer, S. Spicher,
     C. Bannwarth and S. Grimme, J. Chem. Phys., 2019, 150, 154122.
     DOI: 10.1063/1.5090222
   
   for sTDA-xTB:
   * S. Grimme and C. Bannwarth, J. Chem. Phys., 2016, 145, 054103.
     DOI: 10.1063/1.4959605
   
   in the mass-spec context:
   * V. Asgeirsson, C. Bauer and S. Grimme, Chem. Sci., 2017, 8, 4879.
     DOI: 10.1039/c7sc00601b
   
   for metadynamics refer to:
   * S. Grimme, J. Chem. Theory Comput., 2019, 155, 2847-2862
     DOI: 10.1021/acs.jctc.9b00143
   
   with help from (in alphabetical order)
   C. Bannwarth, F. Bohle, G. Brandenburg, E. Caldeweyher, M. Checinski,
   S. Dohm, S. Ehlert, S. Ehrlich, F. März, H. Neugebauer, J. Pisarek,
   P. Pracht, P. Shushkov, and S. Spicher.
   
 * started run on 2021/06/17 at 14:32:51.470     

           -------------------------------------------------
          |                Calculation Setup                |
           -------------------------------------------------

          program call               : /ihome/ghutchison/geoffh/xtb/xtb /ihome/ghutchison/blp62/GA/running_GA/opt_GA/generations/1/54_1_73_54_23_01204.xyz -opt
          hostname                   : smp-n40
          coordinate file            : /ihome/ghutchison/blp62/GA/running_GA/opt_GA/generations/1/54_1_73_54_23_01204.xyz
          omp threads                :                    12
          number of atoms            :                    91
          number of electrons        :                   312
          charge                     :                     0
          spin                       :                   0.0
          first test random number   :      0.88312417830599


########################################################################
# WARNING! Please study the warnings concerning your input carefully
#  - XTBPATH is not set, using XTBHOME instead
#  - the use of '-opt' is discouraged, please use '--opt' next time
########################################################################

           ------------------------------------------------- 
          |                 G F N 2 - x T B                 |
          | Geometry, Frequencies, Noncovalent interactions |
          |            JCTC 2019 parametrisation            |
           ------------------------------------------------- 
             KAB for C  - Si     :                1.0500
             KAB for H  - Pd     :                0.9500
             k(s)              :                1.8500
             k(p)              :                2.2300
             k(d)              :                2.2300
             k(f)              :                2.0000
             kEN (H0ij)        :               -2.0000
             D4 a1             :                0.5200
             D4 a2             :                5.0000
             D4 s6             :                1.0000
             D4 s8             :                2.7000
             D4 s9             :                5.0000
             alphaj            :                2.0000

  Z AO/shell   Hii/eV     exponent
  1     Wed Apr 25 08:07:45 CEST 2018   EN: 2.200 GM2: 0.406  GM3: 0.0800  RAES: 1.40
     1s    -10.707211    1.230000
  6     Wed Apr 25 08:07:45 CEST 2018   EN: 2.550 GM2: 0.538  GM3: 0.1500  RAES: 3.00
     2s    -13.970922    2.096432
     2p    -10.063292    1.800000
  7     Wed Apr 25 08:07:45 CEST 2018   EN: 3.040 GM2: 0.461  GM3:-0.0640  RAES: 1.90
     2s    -16.686243    2.339881
     2p    -12.523956    2.014332
  8     Wed Apr 25 08:07:45 CEST 2018   EN: 3.440 GM2: 0.452  GM3:-0.0517  RAES: 1.80
     2s    -20.229985    2.439742
     2p    -15.503117    2.137023
  9     Mon Apr 23 13:58:50 CEST 2018   EN: 3.980 GM2: 0.532  GM3: 0.1426  RAES: 2.40
     2s    -23.458179    2.416361
     2p    -15.746583    2.308399
 16     Tue Apr 24 11:44:34 CEST 2018   EN: 2.580 GM2: 0.340  GM3:-0.0502  RAES: 3.10
     3s    -20.029654    1.981333
     3p    -11.377694    2.025643
     3d     -0.420282    1.702555

           ------------------------------------------------- 
          |        Self-Consistent Charge Iterations        |
           ------------------------------------------------- 

          ...................................................
          :                      SETUP                      :
          :.................................................:
          :  # basis functions                 304          :
          :  # atomic orbitals                 300          :
          :  # shells                          158          :
          :  # electrons                       312          :
          :  max. iterations                   250          :
          :  Hamiltonian                  GFN2-xTB          :
          :  restarted?                      false          :
          :  GBSA solvation                  false          :
          :  PC potential                    false          :
          :  electronic temp.          300.0000000     K    :
          :  accuracy                    1.0000000          :
          :  -> integral cutoff          0.2500000E+02      :
          :  -> integral neglect         0.1000000E-07      :
          :  -> SCF convergence          0.1000000E-05 Eh   :
          :  -> wf. convergence          0.1000000E-03 e    :
          :  Broyden damping             0.4000000          :
          ...................................................

 iter      E             dE          RMSdq      gap      omega  full diag
   1   -176.0680937 -0.176068E+03  0.505E+00    0.84       0.0  T
   2   -176.0996326 -0.315388E-01  0.333E+00    0.96       1.0  T
   3   -175.7744080  0.325225E+00  0.283E+00    0.46       1.0  T
   4   -176.2676364 -0.493228E+00  0.988E-01    0.63       1.0  T
   5   -176.3403097 -0.726733E-01  0.289E-01    0.46       1.0  T
   6   -176.3429027 -0.259301E-02  0.161E-01    0.54       1.0  T
   7   -176.3438867 -0.983980E-03  0.871E-02    0.53       1.0  T
   8   -176.3442999 -0.413268E-03  0.296E-02    0.55       1.0  T
   9   -176.3443100 -0.100486E-04  0.208E-02    0.55       1.0  T
  10   -176.3443340 -0.240113E-04  0.997E-03    0.55       1.1  T
  11   -176.3443385 -0.450996E-05  0.557E-03    0.55       1.9  T
  12   -176.3443408 -0.232187E-05  0.193E-03    0.55       5.4  T
  13   -176.3443409 -0.852862E-07  0.122E-03    0.55       8.6  T
  14   -176.3443410 -0.262105E-07  0.731E-04    0.55      14.3  T
  15   -176.3443410 -0.261313E-07  0.277E-04    0.55      37.8  T

   *** convergence criteria satisfied after 15 iterations ***

         #    Occupation            Energy/Eh            Energy/eV
      -------------------------------------------------------------
         1        2.0000           -0.8597758             -23.3957
       ...           ...                  ...                  ...
       150        2.0000           -0.3987587             -10.8508
       151        2.0000           -0.3969580             -10.8018
       152        2.0000           -0.3944778             -10.7343
       153        2.0000           -0.3920888             -10.6693
       154        2.0000           -0.3821023             -10.3975
       155        2.0000           -0.3779533             -10.2846
       156        1.9999           -0.3703562             -10.0779 (HOMO)
       157        0.0001           -0.3502964              -9.5321 (LUMO)
       158                         -0.3337720              -9.0824
       159                         -0.3190657              -8.6822
       160                         -0.3180488              -8.6545
       161                         -0.2846962              -7.7470
       ...                                ...                  ...
       300                          0.7557624              20.5653
      -------------------------------------------------------------
                  HL-Gap            0.0200598 Eh            0.5459 eV
             Fermi-level           -0.3603262 Eh           -9.8050 eV

 SCC (total)                   0 d,  0 h,  0 min,  0.255 sec
 SCC setup                      ...        0 min,  0.002 sec (  0.927%)
 Dispersion                     ...        0 min,  0.005 sec (  2.102%)
 integral evaluation            ...        0 min,  0.020 sec (  7.677%)
 zeroth order Hamiltonian       ...        0 min,  0.001 sec (  0.527%)
 iterations                     ...        0 min,  0.205 sec ( 80.559%)
 molecular gradient             ...        0 min,  0.019 sec (  7.640%)
 printout                       ...        0 min,  0.001 sec (  0.490%)

         :::::::::::::::::::::::::::::::::::::::::::::::::::::
         ::                     SUMMARY                     ::
         :::::::::::::::::::::::::::::::::::::::::::::::::::::
         :: total energy            -174.314163017924 Eh    ::
         :: gradient norm              0.396922106312 Eh/a0 ::
         :: HOMO-LUMO gap              0.545854853552 eV    ::
         ::.................................................::
         :: SCC energy              -176.344340979156 Eh    ::
         :: -> isotropic ES            0.155372422627 Eh    ::
         :: -> anisotropic ES          0.014702224089 Eh    ::
         :: -> anisotropic XC          0.099078125095 Eh    ::
         :: -> dispersion             -0.133789879834 Eh    ::
         :: repulsion energy           2.029313079538 Eh    ::
         :: add. restraining           0.000000000000 Eh    ::
         :::::::::::::::::::::::::::::::::::::::::::::::::::::

      ----------------------------------------------------------- 
     |                   =====================                   |
     |                        A N C O P T                        |
     |                   =====================                   |
     |               Approximate Normal Coordinate               |
     |                Rational Function Optimizer                |
      ----------------------------------------------------------- 

          ...................................................
          :                      SETUP                      :
          :.................................................:
          :   optimization level            normal          :
          :   max. optcycles                   273          :
          :   ANC micro-cycles                  20          :
          :   degrees of freedom               267          :
          :.................................................:
          :   RF solver                   davidson          :
          :   input Hessian                  false          :
          :   write xtbopt.log                true          :
          :   linear?                        false          :
          :   energy convergence         0.5000000E-05 Eh   :
          :   grad. convergence          0.1000000E-02 Eh/α :
          :   maximium RF displ.         2.0000000          :
          :   Hlow (freq-cutoff)         0.5000000E-02      :
          :   Hmax (freq-cutoff)         5.0000000          :
          :   S6 in model hess.         20.0000000          :
          ...................................................

generating ANC from model Hessian ...
Using Lindh-Hessian (1995)
 Shifting diagonal of input Hessian by   5.020911413205012E-003
 Lowest  eigenvalues of input Hessian
    0.005000   -0.000000   -0.000000   -0.000000    0.000000    0.000000
    0.000000    0.005041    0.005052    0.005070    0.005136    0.005162
    0.005312    0.005348    0.005498    0.005554    0.005565    0.005774
 Highest eigenvalues
    1.997410    2.015864    2.045892    2.064394    2.128066    2.132562
 

........................................................................
.............................. CYCLE    1 ..............................
........................................................................
   1   -176.3443410 -0.176344E+03  0.163E-04    0.55       0.0  T
   2   -176.3443410  0.545157E-09  0.145E-04    0.55      72.5  T
   3   -176.3443410 -0.171212E-08  0.754E-05    0.55     139.0  T
     SCC iter.                  ...        0 min,  0.041 sec
     gradient                   ...        0 min,  0.019 sec
 * total energy  :  -174.3141629 Eh     change        0.8133134E-07 Eh
   gradient norm :     0.3969225 Eh/α   predicted     0.0000000E+00 (-100.00%)
   displ. norm   :     0.4620202 α      lambda       -0.1412067E+00
   maximum displ.:     0.1400715 α      in ANC's #180, #174, #231, ...

........................................................................
.............................. CYCLE    2 ..............................
........................................................................
   1   -176.5798753 -0.176580E+03  0.418E-01    0.51       0.0  T
   2   -176.5805799 -0.704650E-03  0.242E-01    0.61       1.0  T
   3   -176.5788395  0.174043E-02  0.180E-01    0.53       1.0  T
   4   -176.5813636 -0.252409E-02  0.411E-02    0.55       1.0  T
   5   -176.5814230 -0.594531E-04  0.225E-02    0.56       1.0  T
   6   -176.5814432 -0.202142E-04  0.116E-02    0.56       1.0  T
   7   -176.5814526 -0.934487E-05  0.470E-03    0.56       2.2  T
   8   -176.5814541 -0.155431E-05  0.229E-03    0.56       4.6  T
   9   -176.5814544 -0.255366E-06  0.115E-03    0.56       9.1  T
     SCC iter.                  ...        0 min,  0.112 sec
     gradient                   ...        0 min,  0.018 sec
 * total energy  :  -174.4081021 Eh     change       -0.9393915E-01 Eh
   gradient norm :     0.1104033 Eh/α   predicted    -0.8567528E-01 (  -8.80%)
   displ. norm   :     0.5278419 α      lambda       -0.3385669E-01
   maximum displ.:     0.1504063 α      in ANC's #35, #61, #31, ...

........................................................................
.............................. CYCLE    3 ..............................
........................................................................
   1   -176.6812984 -0.176681E+03  0.407E-01    0.50       0.0  T
   2   -176.6815180 -0.219541E-03  0.205E-01    0.54       1.0  T
   3   -176.6802914  0.122656E-02  0.134E-01    0.53       1.0  T
   4   -176.6818869 -0.159554E-02  0.327E-02    0.54       1.0  T
   5   -176.6818875 -0.516602E-06  0.209E-02    0.54       1.0  T
   6   -176.6819145 -0.270551E-04  0.560E-03    0.54       1.9  T
   7   -176.6819162 -0.171226E-05  0.270E-03    0.54       3.9  T
   8   -176.6819166 -0.390934E-06  0.141E-03    0.54       7.4  T
     SCC iter.                  ...        0 min,  0.103 sec
     gradient                   ...        0 min,  0.018 sec
 * total energy  :  -174.4309049 Eh     change       -0.2280277E-01 Eh
   gradient norm :     0.0629542 Eh/α   predicted    -0.2164492E-01 (  -5.08%)
   displ. norm   :     0.6319033 α      lambda       -0.1427935E-01
   maximum displ.:     0.2435620 α      in ANC's #35, #31, #45, ...

........................................................................
.............................. CYCLE    4 ..............................
........................................................................
   1   -176.7040228 -0.176704E+03  0.318E-01    0.50       0.0  T
   2   -176.7041792 -0.156402E-03  0.157E-01    0.53       1.0  T
   3   -176.7038457  0.333469E-03  0.734E-02    0.53       1.0  T
   4   -176.7042499 -0.404175E-03  0.277E-02    0.54       1.0  T
   5   -176.7042528 -0.284969E-05  0.169E-02    0.53       1.0  T
   6   -176.7042724 -0.196248E-04  0.474E-03    0.53       2.2  T
   7   -176.7042739 -0.155066E-05  0.182E-03    0.53       5.8  T
   8   -176.7042740 -0.104474E-06  0.103E-03    0.53      10.2  T
     SCC iter.                  ...        0 min,  0.102 sec
     gradient                   ...        0 min,  0.018 sec
 * total energy  :  -174.4405291 Eh     change       -0.9624239E-02 Eh
   gradient norm :     0.0355010 Eh/α   predicted    -0.9990582E-02 (   3.81%)
   displ. norm   :     0.7532631 α      lambda       -0.1047140E-01
   maximum displ.:     0.2439743 α      in ANC's #35, #17, #1, ...

........................................................................
.............................. CYCLE    5 ..............................
........................................................................
   1   -176.7174191 -0.176717E+03  0.452E-01    0.48       0.0  T
   2   -176.7176837 -0.264575E-03  0.243E-01    0.51       1.0  T
   3   -176.7168902  0.793443E-03  0.104E-01    0.52       1.0  T
   4   -176.7177875 -0.897236E-03  0.308E-02    0.52       1.0  T
   5   -176.7178108 -0.233195E-04  0.203E-02    0.52       1.0  T
   6   -176.7178477 -0.368718E-04  0.655E-03    0.52       1.6  T
   7   -176.7178502 -0.250641E-05  0.321E-03    0.52       3.3  T
   8   -176.7178505 -0.334020E-06  0.175E-03    0.52       6.0  T
     SCC iter.                  ...        0 min,  0.099 sec
     gradient                   ...        0 min,  0.022 sec
 * total energy  :  -174.4432061 Eh     change       -0.2677051E-02 Eh
   gradient norm :     0.1074327 Eh/α   predicted    -0.8206487E-02 ( 206.55%)
   displ. norm   :     0.5038912 α      lambda       -0.1431189E-01
   maximum displ.:     0.1903846 α      in ANC's #35, #31, #1, ...

........................................................................
.............................. CYCLE    6 ..............................
........................................................................
   1   -176.7572629 -0.176757E+03  0.310E-01    0.54       0.0  T
   2   -176.7574160 -0.153054E-03  0.173E-01    0.57       1.0  T
   3   -176.7566289  0.787012E-03  0.977E-02    0.53       1.0  T
   4   -176.7575103 -0.881387E-03  0.195E-02    0.56       1.0  T
   5   -176.7575263 -0.159646E-04  0.989E-03    0.56       1.1  T
   6   -176.7575301 -0.378733E-05  0.540E-03    0.56       1.9  T
   7   -176.7575320 -0.191124E-05  0.242E-03    0.56       4.3  T
     SCC iter.                  ...        0 min,  0.089 sec
     gradient                   ...        0 min,  0.018 sec
 * total energy  :  -174.4491913 Eh     change       -0.5985104E-02 Eh
   gradient norm :     0.0524078 Eh/α   predicted    -0.8972902E-02 (  49.92%)
   displ. norm   :     0.5219722 α      lambda       -0.5807726E-02
   maximum displ.:     0.2439895 α      in ANC's #35, #31, #29, ...

........................................................................
.............................. CYCLE    7 ..............................
........................................................................
   1   -176.7445611 -0.176745E+03  0.244E-01    0.56       0.0  T
   2   -176.7446118 -0.506644E-04  0.136E-01    0.56       1.0  T
   3   -176.7441339  0.477907E-03  0.759E-02    0.56       1.0  T
   4   -176.7446750 -0.541100E-03  0.125E-02    0.57       1.0  T
   5   -176.7446763 -0.136036E-05  0.877E-03    0.56       1.2  T
   6   -176.7446806 -0.426725E-05  0.347E-03    0.57       3.0  T
   7   -176.7446814 -0.852346E-06  0.172E-03    0.57       6.1  T
     SCC iter.                  ...        0 min,  0.087 sec
     gradient                   ...        0 min,  0.018 sec
 * total energy  :  -174.4520367 Eh     change       -0.2845422E-02 Eh
   gradient norm :     0.0284584 Eh/α   predicted    -0.3695039E-02 (  29.86%)
   displ. norm   :     0.6103827 α      lambda       -0.5548068E-02
   maximum displ.:     0.2861254 α      in ANC's #14, #26, #35, ...

........................................................................
.............................. CYCLE    8 ..............................
........................................................................
   1   -176.7480715 -0.176748E+03  0.270E-01    0.55       0.0  T
   2   -176.7481504 -0.788439E-04  0.148E-01    0.56       1.0  T
   3   -176.7480209  0.129458E-03  0.453E-02    0.56       1.0  T
   4   -176.7481852 -0.164310E-03  0.150E-02    0.57       1.0  T
   5   -176.7481866 -0.141423E-05  0.931E-03    0.56       1.1  T
   6   -176.7481930 -0.638865E-05  0.340E-03    0.56       3.1  T
   7   -176.7481936 -0.559879E-06  0.184E-03    0.56       5.7  T
   8   -176.7481937 -0.905622E-07  0.991E-04    0.56      10.6  T
     SCC iter.                  ...        0 min,  0.102 sec
     gradient                   ...        0 min,  0.018 sec
 * total energy  :  -174.4552704 Eh     change       -0.3233758E-02 Eh
   gradient norm :     0.0362913 Eh/α   predicted    -0.3807550E-02 (  17.74%)
   displ. norm   :     0.5505854 α      lambda       -0.3273006E-02
   maximum displ.:     0.2184173 α      in ANC's #14, #35, #26, ...

........................................................................
.............................. CYCLE    9 ..............................
........................................................................
   1   -176.7608404 -0.176761E+03  0.170E-01    0.54       0.0  T
   2   -176.7608699 -0.294738E-04  0.945E-02    0.55       1.0  T
   3   -176.7607103  0.159596E-03  0.515E-02    0.55       1.0  T
   4   -176.7608966 -0.186318E-03  0.145E-02    0.56       1.0  T
   5   -176.7608932  0.342830E-05  0.106E-02    0.55       1.0  T
   6   -176.7609025 -0.935131E-05  0.237E-03    0.55       4.4  T
   7   -176.7609028 -0.236393E-06  0.129E-03    0.55       8.1  T
   8   -176.7609028 -0.190571E-07  0.762E-04    0.55      13.8  T
     SCC iter.                  ...        0 min,  0.103 sec
     gradient                   ...        0 min,  0.018 sec
 * total energy  :  -174.4575157 Eh     change       -0.2245264E-02 Eh
   gradient norm :     0.0294119 Eh/α   predicted    -0.2132607E-02 (  -5.02%)
   displ. norm   :     0.5896908 α      lambda       -0.2685874E-02
   maximum displ.:     0.2275349 α      in ANC's #14, #35, #11, ...

........................................................................
.............................. CYCLE   10 ..............................
........................................................................
   1   -176.7705875 -0.176771E+03  0.179E-01    0.55       0.0  T
   2   -176.7706134 -0.259374E-04  0.101E-01    0.56       1.0  T
   3   -176.7704129  0.200548E-03  0.503E-02    0.53       1.0  T
   4   -176.7706304 -0.217515E-03  0.160E-02    0.55       1.0  T
   5   -176.7706362 -0.584831E-05  0.822E-03    0.55       1.3  T
   6   -176.7706399 -0.365526E-05  0.246E-03    0.55       4.3  T
   7   -176.7706401 -0.219795E-06  0.126E-03    0.55       8.3  T
     SCC iter.                  ...        0 min,  0.090 sec
     gradient                   ...        0 min,  0.018 sec
 * total energy  :  -174.4596115 Eh     change       -0.2095780E-02 Eh
   gradient norm :     0.0126816 Eh/α   predicted    -0.1809929E-02 ( -13.64%)
   displ. norm   :     0.6542231 α      lambda       -0.2085271E-02
   maximum displ.:     0.2828106 α      in ANC's #14, #11, #7, ...

........................................................................
.............................. CYCLE   11 ..............................
........................................................................
   1   -176.7697272 -0.176770E+03  0.215E-01    0.54       0.0  T
   2   -176.7697691 -0.418963E-04  0.118E-01    0.55       1.0  T
   3   -176.7695912  0.177967E-03  0.498E-02    0.53       1.0  T
   4   -176.7697828 -0.191603E-03  0.200E-02    0.55       1.0  T
   5   -176.7697922 -0.948127E-05  0.106E-02    0.55       1.0  T
   6   -176.7697998 -0.750824E-05  0.306E-03    0.55       3.4  T
   7   -176.7698001 -0.342588E-06  0.180E-03    0.55       5.8  T
   8   -176.7698002 -0.121015E-06  0.110E-03    0.55       9.5  T
     SCC iter.                  ...        0 min,  0.105 sec
     gradient                   ...        0 min,  0.018 sec
 * total energy  :  -174.4612126 Eh     change       -0.1601112E-02 Eh
   gradient norm :     0.0176945 Eh/α   predicted    -0.1488895E-02 (  -7.01%)
   displ. norm   :     0.6432877 α      lambda       -0.1746621E-02
   maximum displ.:     0.2759937 α      in ANC's #11, #14, #7, ...

........................................................................
.............................. CYCLE   12 ..............................
........................................................................
   1   -176.7795857 -0.176780E+03  0.217E-01    0.53       0.0  T
   2   -176.7796268 -0.410925E-04  0.117E-01    0.55       1.0  T
   3   -176.7793852  0.241612E-03  0.572E-02    0.52       1.0  T
   4   -176.7796463 -0.261090E-03  0.212E-02    0.55       1.0  T
   5   -176.7796544 -0.812306E-05  0.114E-02    0.54       1.0  T
   6   -176.7796631 -0.872100E-05  0.289E-03    0.54       3.6  T
   7   -176.7796634 -0.231926E-06  0.196E-03    0.54       5.4  T
   8   -176.7796636 -0.197446E-06  0.112E-03    0.54       9.4  T
     SCC iter.                  ...        0 min,  0.103 sec
     gradient                   ...        0 min,  0.018 sec
 * total energy  :  -174.4624748 Eh     change       -0.1262242E-02 Eh
   gradient norm :     0.0162682 Eh/α   predicted    -0.1234705E-02 (  -2.18%)
   displ. norm   :     0.6123571 α      lambda       -0.1295789E-02
   maximum displ.:     0.2630251 α      in ANC's #11, #14, #7, ...

........................................................................
.............................. CYCLE   13 ..............................
........................................................................
   1   -176.7782262 -0.176778E+03  0.204E-01    0.53       0.0  T
   2   -176.7782636 -0.374115E-04  0.109E-01    0.54       1.0  T
   3   -176.7781971  0.665051E-04  0.372E-02    0.53       1.0  T
   4   -176.7782617 -0.645699E-04  0.202E-02    0.54       1.0  T
   5   -176.7782739 -0.121992E-04  0.974E-03    0.54       1.1  T
   6   -176.7782823 -0.840124E-05  0.244E-03    0.54       4.3  T
   7   -176.7782824 -0.150083E-06  0.163E-03    0.54       6.4  T
   8   -176.7782825 -0.947588E-07  0.913E-04    0.54      11.5  T
     SCC iter.                  ...        0 min,  0.100 sec
     gradient                   ...        0 min,  0.018 sec
 * total energy  :  -174.4634540 Eh     change       -0.9791292E-03 Eh
   gradient norm :     0.0113358 Eh/α   predicted    -0.8908582E-03 (  -9.02%)
   displ. norm   :     0.5955947 α      lambda       -0.1021584E-02
   maximum displ.:     0.2840766 α      in ANC's #11, #7, #14, ...

........................................................................
.............................. CYCLE   14 ..............................
........................................................................
   1   -176.7788271 -0.176779E+03  0.194E-01    0.53       0.0  T
   2   -176.7788633 -0.361616E-04  0.101E-01    0.54       1.0  T
   3   -176.7788086  0.547233E-04  0.349E-02    0.53       1.0  T
   4   -176.7788620 -0.533967E-04  0.200E-02    0.54       1.0  T
   5   -176.7788745 -0.125521E-04  0.817E-03    0.54       1.3  T
   6   -176.7788797 -0.515307E-05  0.233E-03    0.54       4.5  T
   7   -176.7788799 -0.227824E-06  0.129E-03    0.53       8.1  T
   8   -176.7788799 -0.262890E-07  0.770E-04    0.54      13.6  T
     SCC iter.                  ...        0 min,  0.099 sec
     gradient                   ...        0 min,  0.018 sec
 * total energy  :  -174.4641941 Eh     change       -0.7401190E-03 Eh
   gradient norm :     0.0116943 Eh/α   predicted    -0.6919930E-03 (  -6.50%)
   displ. norm   :     0.5973101 α      lambda       -0.1078475E-02
   maximum displ.:     0.2959675 α      in ANC's #11, #7, #8, ...

........................................................................
.............................. CYCLE   15 ..............................
........................................................................
   1   -176.7895020 -0.176790E+03  0.186E-01    0.53       0.0  T
   2   -176.7895374 -0.353906E-04  0.953E-02    0.53       1.0  T
   3   -176.7894609  0.764530E-04  0.366E-02    0.54       1.0  T
   4   -176.7895426 -0.817471E-04  0.183E-02    0.53       1.0  T
   5   -176.7895505 -0.786860E-05  0.871E-03    0.54       1.2  T
   6   -176.7895563 -0.580137E-05  0.270E-03    0.53       3.9  T
   7   -176.7895568 -0.435800E-06  0.150E-03    0.53       7.0  T
   8   -176.7895568 -0.823813E-07  0.870E-04    0.53      12.1  T
     SCC iter.                  ...        0 min,  0.101 sec
     gradient                   ...        0 min,  0.018 sec
 * total energy  :  -174.4647702 Eh     change       -0.5760781E-03 Eh
   gradient norm :     0.0153781 Eh/α   predicted    -0.7316307E-03 (  27.00%)
   displ. norm   :     0.5140448 α      lambda       -0.8188596E-03
   maximum displ.:     0.2468964 α      in ANC's #11, #7, #8, ...

........................................................................
.............................. CYCLE   16 ..............................
........................................................................
   1   -176.7815848 -0.176782E+03  0.165E-01    0.53       0.0  T
   2   -176.7816121 -0.273276E-04  0.863E-02    0.53       1.0  T
   3   -176.7815910  0.211192E-04  0.260E-02    0.53       1.0  T
   4   -176.7816153 -0.242614E-04  0.148E-02    0.53       1.0  T
   5   -176.7816200 -0.472161E-05  0.666E-03    0.53       1.6  T
   6   -176.7816239 -0.386178E-05  0.200E-03    0.53       5.2  T
   7   -176.7816240 -0.151148E-06  0.117E-03    0.53       8.9  T
   8   -176.7816240 -0.227137E-07  0.680E-04    0.53      15.4  T
     SCC iter.                  ...        0 min,  0.102 sec
     gradient                   ...        0 min,  0.018 sec
 * total energy  :  -174.4652651 Eh     change       -0.4949669E-03 Eh
   gradient norm :     0.0137932 Eh/α   predicted    -0.5176213E-03 (   4.58%)
   displ. norm   :     0.4056305 α      lambda       -0.8391607E-03
   maximum displ.:     0.1726271 α      in ANC's #11, #8, #7, ...

........................................................................
.............................. CYCLE   17 ..............................
........................................................................
   1   -176.7835832 -0.176784E+03  0.124E-01    0.53       0.0  T
   2   -176.7836023 -0.191493E-04  0.648E-02    0.53       1.0  T
   3   -176.7835169  0.854538E-04  0.323E-02    0.53       1.0  T
   4   -176.7836114 -0.945526E-04  0.116E-02    0.53       1.0  T
   5   -176.7836127 -0.131157E-05  0.828E-03    0.53       1.3  T
   6   -176.7836189 -0.617607E-05  0.207E-03    0.53       5.1  T
   7   -176.7836192 -0.263946E-06  0.101E-03    0.53      10.4  T
   8   -176.7836192 -0.325629E-07  0.610E-04    0.53      17.2  T
     SCC iter.                  ...        0 min,  0.104 sec
     gradient                   ...        0 min,  0.018 sec
 * total energy  :  -174.4656164 Eh     change       -0.3513059E-03 Eh
   gradient norm :     0.0132329 Eh/α   predicted    -0.4886190E-03 (  39.09%)
   displ. norm   :     0.4116809 α      lambda       -0.7379653E-03
   maximum displ.:     0.1537244 α      in ANC's #11, #8, #7, ...

........................................................................
.............................. CYCLE   18 ..............................
........................................................................
   1   -176.7811175 -0.176781E+03  0.144E-01    0.52       0.0  T
   2   -176.7811409 -0.233976E-04  0.710E-02    0.53       1.0  T
   3   -176.7811329  0.798012E-05  0.186E-02    0.53       1.0  T
   4   -176.7811417 -0.875980E-05  0.118E-02    0.53       1.0  T
   5   -176.7811472 -0.556230E-05  0.420E-03    0.53       2.5  T
   6   -176.7811484 -0.120303E-05  0.162E-03    0.53       6.5  T
   7   -176.7811485 -0.772600E-07  0.929E-04    0.53      11.3  T
     SCC iter.                  ...        0 min,  0.093 sec
     gradient                   ...        0 min,  0.018 sec
 * total energy  :  -174.4659786 Eh     change       -0.3621894E-03 Eh
   gradient norm :     0.0173958 Eh/α   predicted    -0.4315180E-03 (  19.14%)
   displ. norm   :     0.3550098 α      lambda       -0.8627339E-03
   maximum displ.:     0.1253064 α      in ANC's #8, #15, #4, ...

........................................................................
.............................. CYCLE   19 ..............................
........................................................................
   1   -176.7882034 -0.176788E+03  0.125E-01    0.53       0.0  T
   2   -176.7882198 -0.164038E-04  0.648E-02    0.52       1.0  T
   3   -176.7881388  0.809797E-04  0.336E-02    0.53       1.0  T
   4   -176.7882300 -0.911556E-04  0.101E-02    0.52       1.0  T
   5   -176.7882310 -0.101296E-05  0.523E-03    0.52       2.0  T
   6   -176.7882327 -0.170745E-05  0.193E-03    0.52       5.4  T
   7   -176.7882330 -0.276161E-06  0.830E-04    0.52      12.6  T
     SCC iter.                  ...        0 min,  0.094 sec
     gradient                   ...        0 min,  0.018 sec
 * total energy  :  -174.4662885 Eh     change       -0.3098790E-03 Eh
   gradient norm :     0.0144304 Eh/α   predicted    -0.4857363E-03 (  56.75%)
   displ. norm   :     0.3609612 α      lambda       -0.6967350E-03
   maximum displ.:     0.1254875 α      in ANC's #4, #7, #8, ...

........................................................................
.............................. CYCLE   20 ..............................
........................................................................
   1   -176.7846472 -0.176785E+03  0.916E-02    0.52       0.0  T
   2   -176.7846561 -0.893569E-05  0.496E-02    0.52       1.0  T
   3   -176.7846391  0.170101E-04  0.164E-02    0.51       1.0  T
   4   -176.7846570 -0.178799E-04  0.825E-03    0.52       1.3  T
   5   -176.7846592 -0.223757E-05  0.437E-03    0.52       2.4  T
   6   -176.7846605 -0.131230E-05  0.133E-03    0.52       7.9  T
   7   -176.7846606 -0.640077E-07  0.807E-04    0.52      13.0  T
     SCC iter.                  ...        0 min,  0.092 sec
     gradient                   ...        0 min,  0.018 sec
 * total energy  :  -174.4665402 Eh     change       -0.2517472E-03 Eh
   gradient norm :     0.0173705 Eh/α   predicted    -0.3937580E-03 (  56.41%)
   displ. norm   :     0.3496620 α      lambda       -0.7827567E-03
   maximum displ.:     0.1396514 α      in ANC's #8, #7, #11, ...
 * RMSD in coord.:     0.8245719 α      energy gain  -0.1523772E+00 Eh

generating ANC from model Hessian ...
Using Lindh-Hessian (1995)
 Shifting diagonal of input Hessian by   4.983083482741025E-003
 Lowest  eigenvalues of input Hessian
   -0.000000   -0.000000    0.000000    0.000000    0.000000    0.000000
    0.005000    0.005028    0.005046    0.005101    0.005172    0.005298
    0.005396    0.005439    0.005588    0.005693    0.005844    0.005938
 Highest eigenvalues
    2.153089    2.200541    2.226001    2.308841    2.638161    2.644013
 

........................................................................
.............................. CYCLE   21 ..............................
........................................................................
   1   -176.7804277 -0.176780E+03  0.109E-01    0.51       0.0  T
   2   -176.7804387 -0.110322E-04  0.559E-02    0.52       1.0  T
   3   -176.7803522  0.864862E-04  0.332E-02    0.50       1.0  T
   4   -176.7804485 -0.962621E-04  0.103E-02    0.52       1.0  T
   5   -176.7804498 -0.136219E-05  0.520E-03    0.52       2.0  T
   6   -176.7804511 -0.123400E-05  0.209E-03    0.52       5.0  T
   7   -176.7804514 -0.295721E-06  0.993E-04    0.52      10.6  T
   8   -176.7804514 -0.325305E-07  0.624E-04    0.52      16.8  T
     SCC iter.                  ...        0 min,  0.103 sec
     gradient                   ...        0 min,  0.019 sec
 * total energy  :  -174.4668084 Eh     change       -0.2681120E-03 Eh
   gradient norm :     0.0142569 Eh/α   predicted     0.0000000E+00 (-100.00%)
   displ. norm   :     0.1292806 α      lambda       -0.4394792E-03
   maximum displ.:     0.0555203 α      in ANC's #7, #3, #9, ...

........................................................................
.............................. CYCLE   22 ..............................
........................................................................
   1   -176.7857658 -0.176786E+03  0.676E-02    0.52       0.0  T
   2   -176.7857718 -0.598068E-05  0.325E-02    0.52       1.0  T
   3   -176.7857496  0.221296E-04  0.163E-02    0.52       1.0  T
   4   -176.7857734 -0.237747E-04  0.696E-03    0.52       1.5  T
   5   -176.7857746 -0.114783E-05  0.444E-03    0.52       2.4  T
   6   -176.7857763 -0.168984E-05  0.905E-04    0.52      11.6  T
   7   -176.7857763 -0.310468E-07  0.528E-04    0.52      19.9  T
     SCC iter.                  ...        0 min,  0.091 sec
     gradient                   ...        0 min,  0.018 sec
 * total energy  :  -174.4670914 Eh     change       -0.2829939E-03 Eh
   gradient norm :     0.0048865 Eh/α   predicted    -0.2236190E-03 ( -20.98%)
   displ. norm   :     0.1209366 α      lambda       -0.1556033E-03
   maximum displ.:     0.0476747 α      in ANC's #7, #30, #3, ...

........................................................................
.............................. CYCLE   23 ..............................
........................................................................
   1   -176.7872394 -0.176787E+03  0.533E-02    0.52       0.0  T
   2   -176.7872431 -0.373558E-05  0.270E-02    0.53       1.0  T
   3   -176.7872368  0.630746E-05  0.105E-02    0.52       1.0  T
   4   -176.7872445 -0.763447E-05  0.462E-03    0.52       2.3  T
   5   -176.7872445 -0.365931E-07  0.306E-03    0.52       3.4  T
   6   -176.7872452 -0.725039E-06  0.855E-04    0.52      12.3  T
   7   -176.7872453 -0.411622E-07  0.468E-04    0.52      22.4  T
     SCC iter.                  ...        0 min,  0.097 sec
     gradient                   ...        0 min,  0.019 sec
 * total energy  :  -174.4671995 Eh     change       -0.1081922E-03 Eh
   gradient norm :     0.0034648 Eh/α   predicted    -0.7913329E-04 ( -26.86%)
   displ. norm   :     0.2380898 α      lambda       -0.1972993E-03
   maximum displ.:     0.0934841 α      in ANC's #7, #31, #3, ...

........................................................................
.............................. CYCLE   24 ..............................
........................................................................
   1   -176.7869689 -0.176787E+03  0.964E-02    0.52       0.0  T
   2   -176.7869798 -0.109243E-04  0.499E-02    0.53       1.0  T
   3   -176.7869616  0.181961E-04  0.180E-02    0.52       1.0  T
   4   -176.7869835 -0.218839E-04  0.790E-03    0.53       1.3  T
   5   -176.7869838 -0.338029E-06  0.504E-03    0.53       2.1  T
   6   -176.7869858 -0.197608E-05  0.144E-03    0.53       7.3  T
   7   -176.7869859 -0.108298E-06  0.813E-04    0.53      12.9  T
   8   -176.7869859 -0.216434E-07  0.470E-04    0.53      22.3  T
     SCC iter.                  ...        0 min,  0.099 sec
     gradient                   ...        0 min,  0.019 sec
 * total energy  :  -174.4673090 Eh     change       -0.1094317E-03 Eh
   gradient norm :     0.0069561 Eh/α   predicted    -0.1042751E-03 (  -4.71%)
   displ. norm   :     0.2384159 α      lambda       -0.1877463E-03
   maximum displ.:     0.1018354 α      in ANC's #7, #3, #9, ...

........................................................................
.............................. CYCLE   25 ..............................
........................................................................
   1   -176.7858837 -0.176786E+03  0.981E-02    0.53       0.0  T
   2   -176.7858932 -0.948160E-05  0.514E-02    0.53       1.0  T
   3   -176.7858798  0.134135E-04  0.153E-02    0.53       1.0  T
   4   -176.7858937 -0.139109E-04  0.801E-03    0.53       1.3  T
   5   -176.7858952 -0.154076E-05  0.510E-03    0.53       2.1  T
   6   -176.7858978 -0.260167E-05  0.116E-03    0.53       9.0  T
   7   -176.7858979 -0.453206E-07  0.694E-04    0.53      15.1  T
     SCC iter.                  ...        0 min,  0.090 sec
     gradient                   ...        0 min,  0.018 sec
 * total energy  :  -174.4674016 Eh     change       -0.9260731E-04 Eh
   gradient norm :     0.0085604 Eh/α   predicted    -0.9921415E-04 (   7.13%)
   displ. norm   :     0.2941965 α      lambda       -0.3087907E-03
   maximum displ.:     0.1297603 α      in ANC's #7, #3, #9, ...

........................................................................
.............................. CYCLE   26 ..............................
........................................................................
   1   -176.7854527 -0.176785E+03  0.110E-01    0.53       0.0  T
   2   -176.7854647 -0.119991E-04  0.580E-02    0.53       1.0  T
   3   -176.7854448  0.199224E-04  0.189E-02    0.53       1.0  T
   4   -176.7854676 -0.227961E-04  0.887E-03    0.53       1.2  T
   5   -176.7854697 -0.210295E-05  0.417E-03    0.53       2.5  T
   6   -176.7854709 -0.113600E-05  0.120E-03    0.53       8.7  T
   7   -176.7854709 -0.423106E-07  0.778E-04    0.53      13.5  T
     SCC iter.                  ...        0 min,  0.094 sec
     gradient                   ...        0 min,  0.018 sec
 * total energy  :  -174.4675176 Eh     change       -0.1159910E-03 Eh
   gradient norm :     0.0080028 Eh/α   predicted    -0.1677591E-03 (  44.63%)
   displ. norm   :     0.1376966 α      lambda       -0.2376461E-03
   maximum displ.:     0.0688786 α      in ANC's #7, #3, #9, ...

........................................................................
.............................. CYCLE   27 ..............................
........................................................................
   1   -176.7867539 -0.176787E+03  0.532E-02    0.53       0.0  T
   2   -176.7867573 -0.345184E-05  0.288E-02    0.53       1.0  T
   3   -176.7867441  0.132070E-04  0.129E-02    0.53       1.0  T
   4   -176.7867591 -0.149194E-04  0.401E-03    0.53       2.6  T
   5   -176.7867594 -0.320990E-06  0.266E-03    0.53       3.9  T
   6   -176.7867599 -0.552021E-06  0.708E-04    0.53      14.8  T
     SCC iter.                  ...        0 min,  0.078 sec
     gradient                   ...        0 min,  0.018 sec
 * total energy  :  -174.4676596 Eh     change       -0.1420710E-03 Eh
   gradient norm :     0.0046210 Eh/α   predicted    -0.1210765E-03 ( -14.78%)
   displ. norm   :     0.3216422 α      lambda       -0.1793486E-03
   maximum displ.:     0.1454180 α      in ANC's #7, #3, #9, ...

........................................................................
.............................. CYCLE   28 ..............................
........................................................................
   1   -176.7845883 -0.176785E+03  0.101E-01    0.53       0.0  T
   2   -176.7845977 -0.945484E-05  0.532E-02    0.53       1.0  T
   3   -176.7845826  0.150788E-04  0.173E-02    0.53       1.0  T
   4   -176.7845990 -0.163568E-04  0.866E-03    0.53       1.2  T
   5   -176.7846007 -0.171222E-05  0.430E-03    0.53       2.4  T
   6   -176.7846022 -0.148690E-05  0.109E-03    0.53       9.6  T
   7   -176.7846022 -0.262025E-07  0.718E-04    0.53      14.6  T
     SCC iter.                  ...        0 min,  0.090 sec
     gradient                   ...        0 min,  0.018 sec
 * total energy  :  -174.4677680 Eh     change       -0.1083200E-03 Eh
   gradient norm :     0.0055003 Eh/α   predicted    -0.9895550E-04 (  -8.65%)
   displ. norm   :     0.2367230 α      lambda       -0.1364820E-03
   maximum displ.:     0.1163217 α      in ANC's #7, #3, #9, ...

........................................................................
.............................. CYCLE   29 ..............................
........................................................................
   1   -176.7862315 -0.176786E+03  0.650E-02    0.53       0.0  T
   2   -176.7862355 -0.395550E-05  0.346E-02    0.53       1.0  T
   3   -176.7862145  0.210391E-04  0.172E-02    0.53       1.0  T
   4   -176.7862378 -0.233763E-04  0.574E-03    0.53       1.8  T
   5   -176.7862381 -0.303157E-06  0.334E-03    0.53       3.1  T
   6   -176.7862390 -0.860168E-06  0.910E-04    0.53      11.5  T
   7   -176.7862390 -0.459242E-07  0.462E-04    0.53      22.7  T
     SCC iter.                  ...        0 min,  0.090 sec
     gradient                   ...        0 min,  0.018 sec
 * total energy  :  -174.4678762 Eh     change       -0.1081848E-03 Eh
   gradient norm :     0.0042518 Eh/α   predicted    -0.7206570E-04 ( -33.39%)
   displ. norm   :     0.3755957 α      lambda       -0.1659222E-03
   maximum displ.:     0.1855203 α      in ANC's #7, #3, #9, ...

........................................................................
.............................. CYCLE   30 ..............................
........................................................................
   1   -176.7878828 -0.176788E+03  0.104E-01    0.53       0.0  T
   2   -176.7878928 -0.999088E-05  0.550E-02    0.53       1.0  T
   3   -176.7878686  0.241554E-04  0.202E-02    0.53       1.0  T
   4   -176.7878949 -0.262720E-04  0.916E-03    0.53       1.1  T
   5   -176.7878966 -0.171849E-05  0.459E-03    0.53       2.3  T
   6   -176.7878983 -0.167055E-05  0.126E-03    0.53       8.3  T
   7   -176.7878984 -0.762578E-07  0.744E-04    0.53      14.1  T
     SCC iter.                  ...        0 min,  0.090 sec
     gradient                   ...        0 min,  0.018 sec
 * total energy  :  -174.4679978 Eh     change       -0.1216232E-03 Eh
   gradient norm :     0.0040852 Eh/α   predicted    -0.9467079E-04 ( -22.16%)
   displ. norm   :     0.3457754 α      lambda       -0.1091152E-03
   maximum displ.:     0.1735995 α      in ANC's #7, #3, #9, ...

........................................................................
.............................. CYCLE   31 ..............................
........................................................................
   1   -176.7883049 -0.176788E+03  0.927E-02    0.53       0.0  T
   2   -176.7883127 -0.770273E-05  0.487E-02    0.53       1.0  T
   3   -176.7883020  0.106585E-04  0.147E-02    0.53       1.0  T
   4   -176.7883123 -0.103384E-04  0.842E-03    0.53       1.2  T
   5   -176.7883152 -0.290698E-05  0.313E-03    0.53       3.3  T
   6   -176.7883160 -0.803267E-06  0.106E-03    0.53       9.9  T
   7   -176.7883161 -0.520736E-07  0.641E-04    0.53      16.4  T
     SCC iter.                  ...        0 min,  0.091 sec
     gradient                   ...        0 min,  0.018 sec
 * total energy  :  -174.4680825 Eh     change       -0.8471129E-04 Eh
   gradient norm :     0.0039100 Eh/α   predicted    -0.6108112E-04 ( -27.89%)
   displ. norm   :     0.3811687 α      lambda       -0.9630810E-04
   maximum displ.:     0.1915939 α      in ANC's #7, #3, #9, ...

........................................................................
.............................. CYCLE   32 ..............................
........................................................................
   1   -176.7875473 -0.176788E+03  0.100E-01    0.53       0.0  T
   2   -176.7875561 -0.882718E-05  0.530E-02    0.53       1.0  T
   3   -176.7875511  0.496466E-05  0.127E-02    0.53       1.0  T
   4   -176.7875534 -0.228478E-05  0.941E-03    0.53       1.1  T
   5   -176.7875588 -0.538855E-05  0.290E-03    0.53       3.6  T
   6   -176.7875593 -0.535501E-06  0.103E-03    0.53      10.2  T
   7   -176.7875594 -0.251700E-07  0.674E-04    0.53      15.5  T
   8   -176.7875594 -0.937058E-08  0.369E-04    0.53      28.4  T
     SCC iter.                  ...        0 min,  0.102 sec
     gradient                   ...        0 min,  0.019 sec
 * total energy  :  -174.4681557 Eh     change       -0.7317186E-04 Eh
   gradient norm :     0.0034929 Eh/α   predicted    -0.5515219E-04 ( -24.63%)
   displ. norm   :     0.3720109 α      lambda       -0.1311093E-03
   maximum displ.:     0.2010562 α      in ANC's #3, #7, #9, ...

........................................................................
.............................. CYCLE   33 ..............................
........................................................................
   1   -176.7902074 -0.176790E+03  0.946E-02    0.53       0.0  T
   2   -176.7902151 -0.770782E-05  0.513E-02    0.53       1.0  T
   3   -176.7901988  0.163046E-04  0.160E-02    0.52       1.0  T
   4   -176.7902138 -0.150073E-04  0.898E-03    0.53       1.2  T
   5   -176.7902177 -0.389554E-05  0.393E-03    0.53       2.7  T
   6   -176.7902188 -0.109422E-05  0.129E-03    0.53       8.1  T
   7   -176.7902188 -0.768804E-07  0.792E-04    0.53      13.2  T
   8   -176.7902189 -0.185548E-07  0.467E-04    0.53      22.5  T
     SCC iter.                  ...        0 min,  0.105 sec
     gradient                   ...        0 min,  0.019 sec
 * total energy  :  -174.4682074 Eh     change       -0.5174663E-04 Eh
   gradient norm :     0.0053972 Eh/α   predicted    -0.7462717E-04 (  44.22%)
   displ. norm   :     0.2976165 α      lambda       -0.9342067E-04
   maximum displ.:     0.1548093 α      in ANC's #3, #7, #9, ...

........................................................................
.............................. CYCLE   34 ..............................
........................................................................
   1   -176.7878864 -0.176788E+03  0.771E-02    0.53       0.0  T
   2   -176.7878916 -0.518060E-05  0.414E-02    0.53       1.0  T
   3   -176.7878811  0.105114E-04  0.128E-02    0.53       1.0  T
   4   -176.7878910 -0.991811E-05  0.728E-03    0.53       1.4  T
   5   -176.7878935 -0.249446E-05  0.294E-03    0.53       3.6  T
   6   -176.7878941 -0.588795E-06  0.112E-03    0.53       9.4  T
     SCC iter.                  ...        0 min,  0.078 sec
     gradient                   ...        0 min,  0.018 sec
 * total energy  :  -174.4682668 Eh     change       -0.5937589E-04 Eh
   gradient norm :     0.0030319 Eh/α   predicted    -0.5085055E-04 ( -14.36%)
   displ. norm   :     0.1290251 α      lambda       -0.3638796E-04
   maximum displ.:     0.0754235 α      in ANC's #3, #7, #4, ...

........................................................................
.............................. CYCLE   35 ..............................
........................................................................
   1   -176.7882266 -0.176788E+03  0.338E-02    0.53       0.0  T
   2   -176.7882274 -0.866704E-06  0.189E-02    0.53       1.0  T
   3   -176.7882204  0.699688E-05  0.876E-03    0.53       1.2  T
   4   -176.7882276 -0.719029E-05  0.333E-03    0.53       3.1  T
   5   -176.7882281 -0.434351E-06  0.168E-03    0.53       6.2  T
   6   -176.7882283 -0.206752E-06  0.583E-04    0.53      18.0  T
   7   -176.7882283 -0.124544E-07  0.362E-04    0.53      29.0  T
     SCC iter.                  ...        0 min,  0.093 sec
     gradient                   ...        0 min,  0.019 sec
 * total energy  :  -174.4682982 Eh     change       -0.3137189E-04 Eh
   gradient norm :     0.0024891 Eh/α   predicted    -0.1849941E-04 ( -41.03%)
   displ. norm   :     0.2345658 α      lambda       -0.8723747E-04
   maximum displ.:     0.1336399 α      in ANC's #3, #4, #7, ...

........................................................................
.............................. CYCLE   36 ..............................
........................................................................
   1   -176.7898895 -0.176790E+03  0.695E-02    0.53       0.0  T
   2   -176.7898940 -0.450494E-05  0.390E-02    0.53       1.0  T
   3   -176.7898717  0.223429E-04  0.173E-02    0.53       1.0  T
   4   -176.7898941 -0.224772E-04  0.763E-03    0.53       1.4  T
   5   -176.7898962 -0.209948E-05  0.414E-03    0.53       2.5  T
   6   -176.7898975 -0.127493E-05  0.124E-03    0.53       8.5  T
   7   -176.7898976 -0.608724E-07  0.759E-04    0.53      13.8  T
   8   -176.7898976 -0.222141E-07  0.456E-04    0.53      23.0  T
     SCC iter.                  ...        0 min,  0.107 sec
     gradient                   ...        0 min,  0.019 sec
 * total energy  :  -174.4683593 Eh     change       -0.6115450E-04 Eh
   gradient norm :     0.0020747 Eh/α   predicted    -0.4602113E-04 ( -24.75%)
   displ. norm   :     0.2326425 α      lambda       -0.4470125E-04
   maximum displ.:     0.1396153 α      in ANC's #3, #4, #7, ...

........................................................................
.............................. CYCLE   37 ..............................
........................................................................
   1   -176.7894923 -0.176789E+03  0.625E-02    0.53       0.0  T
   2   -176.7894955 -0.320797E-05  0.352E-02    0.53       1.0  T
   3   -176.7894842  0.113213E-04  0.129E-02    0.53       1.0  T
   4   -176.7894955 -0.113224E-04  0.619E-03    0.53       1.7  T
   5   -176.7894967 -0.117916E-05  0.348E-03    0.53       3.0  T
   6   -176.7894977 -0.955332E-06  0.100E-03    0.53      10.5  T
   7   -176.7894977 -0.287086E-07  0.639E-04    0.53      16.4  T
   8   -176.7894977 -0.118443E-07  0.398E-04    0.53      26.3  T
     SCC iter.                  ...        0 min,  0.103 sec
     gradient                   ...        0 min,  0.019 sec
 * total energy  :  -174.4683934 Eh     change       -0.3414201E-04 Eh
   gradient norm :     0.0023914 Eh/α   predicted    -0.2356368E-04 ( -30.98%)
   displ. norm   :     0.1796402 α      lambda       -0.3501921E-04
   maximum displ.:     0.1094799 α      in ANC's #3, #4, #8, ...

........................................................................
.............................. CYCLE   38 ..............................
........................................................................
   1   -176.7894875 -0.176789E+03  0.471E-02    0.53       0.0  T
   2   -176.7894893 -0.179157E-05  0.262E-02    0.53       1.0  T
   3   -176.7894842  0.509471E-05  0.933E-03    0.53       1.1  T
   4   -176.7894894 -0.523450E-05  0.454E-03    0.53       2.3  T
   5   -176.7894899 -0.437205E-06  0.267E-03    0.53       3.9  T
   6   -176.7894904 -0.556188E-06  0.724E-04    0.53      14.5  T
   7   -176.7894904 -0.117210E-07  0.491E-04    0.53      21.4  T
     SCC iter.                  ...        0 min,  0.094 sec
     gradient                   ...        0 min,  0.019 sec
 * total energy  :  -174.4684233 Eh     change       -0.2984138E-04 Eh
   gradient norm :     0.0020107 Eh/α   predicted    -0.1807729E-04 ( -39.42%)
   displ. norm   :     0.2001374 α      lambda       -0.4293775E-04
   maximum displ.:     0.1234322 α      in ANC's #3, #4, #8, ...

........................................................................
.............................. CYCLE   39 ..............................
........................................................................
   1   -176.7893053 -0.176789E+03  0.528E-02    0.53       0.0  T
   2   -176.7893075 -0.219536E-05  0.287E-02    0.53       1.0  T
   3   -176.7892990  0.855945E-05  0.117E-02    0.53       1.0  T
   4   -176.7893081 -0.907047E-05  0.514E-03    0.53       2.0  T
   5   -176.7893087 -0.617863E-06  0.271E-03    0.53       3.9  T
   6   -176.7893092 -0.504270E-06  0.683E-04    0.53      15.3  T
   7   -176.7893092 -0.517528E-08  0.454E-04    0.53      23.1  T
     SCC iter.                  ...        0 min,  0.091 sec
     gradient                   ...        0 min,  0.019 sec
 * total energy  :  -174.4684583 Eh     change       -0.3504049E-04 Eh
   gradient norm :     0.0015929 Eh/α   predicted    -0.2233087E-04 ( -36.27%)
   displ. norm   :     0.3079749 α      lambda       -0.3754031E-04
   maximum displ.:     0.1944124 α      in ANC's #3, #4, #8, ...

........................................................................
.............................. CYCLE   40 ..............................
........................................................................
   1   -176.7888110 -0.176789E+03  0.836E-02    0.54       0.0  T
   2   -176.7888165 -0.551885E-05  0.443E-02    0.53       1.0  T
   3   -176.7888010  0.155111E-04  0.165E-02    0.54       1.0  T
   4   -176.7888169 -0.159182E-04  0.819E-03    0.53       1.3  T
   5   -176.7888189 -0.197314E-05  0.381E-03    0.53       2.8  T
   6   -176.7888199 -0.101476E-05  0.945E-04    0.53      11.1  T
   7   -176.7888199 -0.110532E-07  0.596E-04    0.53      17.6  T
   8   -176.7888199 -0.455651E-08  0.297E-04    0.53      35.3  T
     SCC iter.                  ...        0 min,  0.103 sec
     gradient                   ...        0 min,  0.019 sec
 * total energy  :  -174.4684983 Eh     change       -0.3994875E-04 Eh
   gradient norm :     0.0020623 Eh/α   predicted    -0.1956225E-04 ( -51.03%)
   displ. norm   :     0.1152296 α      lambda       -0.1967278E-04
   maximum displ.:     0.0767076 α      in ANC's #3, #4, #8, ...

........................................................................
.............................. CYCLE   41 ..............................
........................................................................
   1   -176.7888726 -0.176789E+03  0.339E-02    0.53       0.0  T
   2   -176.7888735 -0.931864E-06  0.175E-02    0.53       1.0  T
   3   -176.7888724  0.108087E-05  0.503E-03    0.53       2.1  T
   4   -176.7888730 -0.545214E-06  0.360E-03    0.53       2.9  T
   5   -176.7888737 -0.784473E-06  0.122E-03    0.53       8.6  T
   6   -176.7888739 -0.123039E-06  0.396E-04    0.53      26.5  T
   7   -176.7888739 -0.405299E-08  0.272E-04    0.53      38.5  T
     SCC iter.                  ...        0 min,  0.093 sec
     gradient                   ...        0 min,  0.019 sec
 * total energy  :  -174.4685161 Eh     change       -0.1781837E-04 Eh
   gradient norm :     0.0018260 Eh/α   predicted    -0.9968869E-05 ( -44.05%)
   displ. norm   :     0.2267298 α      lambda       -0.3461471E-04
   maximum displ.:     0.1511467 α      in ANC's #3, #4, #10, ...

........................................................................
.............................. CYCLE   42 ..............................
........................................................................
   1   -176.7894963 -0.176789E+03  0.769E-02    0.53       0.0  T
   2   -176.7895016 -0.533016E-05  0.392E-02    0.53       1.0  T
   3   -176.7894993  0.230055E-05  0.976E-03    0.53       1.1  T
   4   -176.7894972  0.216593E-05  0.827E-03    0.53       1.3  T
   5   -176.7895027 -0.550405E-05  0.267E-03    0.53       3.9  T
   6   -176.7895034 -0.689223E-06  0.764E-04    0.53      13.7  T
   7   -176.7895034 -0.159952E-07  0.500E-04    0.53      21.0  T
     SCC iter.                  ...        0 min,  0.093 sec
     gradient                   ...        0 min,  0.019 sec
 * total energy  :  -174.4685576 Eh     change       -0.4153689E-04 Eh
   gradient norm :     0.0014371 Eh/α   predicted    -0.1770413E-04 ( -57.38%)
   displ. norm   :     0.2743706 α      lambda       -0.3411914E-04
   maximum displ.:     0.1856849 α      in ANC's #3, #4, #10, ...
 * RMSD in coord.:     0.4762224 α      energy gain  -0.2017387E-02 Eh

generating ANC from model Hessian ...
Using Lindh-Hessian (1995)
 Shifting diagonal of input Hessian by   4.981224217623663E-003
 Lowest  eigenvalues of input Hessian
   -0.000000   -0.000000   -0.000000   -0.000000   -0.000000    0.000000
    0.005000    0.005021    0.005047    0.005101    0.005158    0.005291
    0.005313    0.005422    0.005519    0.005667    0.005809    0.005978
 Highest eigenvalues
    2.161910    2.201630    2.227829    2.320528    2.648219    2.649399
 

........................................................................
.............................. CYCLE   43 ..............................
........................................................................
   1   -176.7889700 -0.176789E+03  0.940E-02    0.53       0.0  T
   2   -176.7889779 -0.796691E-05  0.483E-02    0.53       1.0  T
   3   -176.7889751  0.287440E-05  0.119E-02    0.54       1.0  T
   4   -176.7889724  0.269945E-05  0.970E-03    0.53       1.1  T
   5   -176.7889795 -0.711488E-05  0.322E-03    0.53       3.3  T
   6   -176.7889805 -0.105459E-05  0.937E-04    0.53      11.2  T
   7   -176.7889806 -0.254862E-07  0.590E-04    0.53      17.8  T
   8   -176.7889806 -0.683383E-08  0.358E-04    0.53      29.3  T
     SCC iter.                  ...        0 min,  0.105 sec
     gradient                   ...        0 min,  0.019 sec
 * total energy  :  -174.4685967 Eh     change       -0.3904456E-04 Eh
   gradient norm :     0.0019279 Eh/α   predicted     0.0000000E+00 (-100.00%)
   displ. norm   :     0.0909700 α      lambda       -0.3107023E-04
   maximum displ.:     0.0479565 α      in ANC's #3, #14, #7, ...

........................................................................
.............................. CYCLE   44 ..............................
........................................................................
   1   -176.7889670 -0.176789E+03  0.626E-02    0.53       0.0  T
   2   -176.7889707 -0.367628E-05  0.341E-02    0.53       1.0  T
   3   -176.7889673  0.332182E-05  0.721E-03    0.53       1.5  T
   4   -176.7889721 -0.479498E-05  0.256E-03    0.53       4.1  T
   5   -176.7889723 -0.209618E-06  0.138E-03    0.53       7.6  T
   6   -176.7889725 -0.144248E-06  0.458E-04    0.53      22.9  T
   7   -176.7889725 -0.117357E-07  0.238E-04    0.53      44.0  T
     SCC iter.                  ...        0 min,  0.090 sec
     gradient                   ...        0 min,  0.019 sec
 * total energy  :  -174.4685652 Eh     change        0.3146089E-04 Eh
   gradient norm :     0.0039646 Eh/α   predicted    -0.1560115E-04 (-149.59%)
   displ. norm   :     0.0530251 α      lambda       -0.8631736E-04
   maximum displ.:     0.0314768 α      in ANC's #8, #3, #12, ...

........................................................................
.............................. CYCLE   45 ..............................
........................................................................
   1   -176.7896359 -0.176790E+03  0.403E-02    0.53       0.0  T
   2   -176.7896373 -0.144399E-05  0.220E-02    0.53       1.0  T
   3   -176.7896376 -0.269301E-06  0.226E-03    0.53       4.6  T
   4   -176.7896378 -0.167822E-06  0.152E-03    0.53       6.9  T
   5   -176.7896379 -0.128739E-06  0.693E-04    0.53      15.1  T
   6   -176.7896379 -0.440402E-07  0.249E-04    0.53      42.0  T
     SCC iter.                  ...        0 min,  0.081 sec
     gradient                   ...        0 min,  0.019 sec
 * total energy  :  -174.4686116 Eh     change       -0.4641999E-04 Eh
   gradient norm :     0.0023879 Eh/α   predicted    -0.4328336E-04 (  -6.76%)
   displ. norm   :     0.0771595 α      lambda       -0.8734458E-04
   maximum displ.:     0.0255841 α      in ANC's #36, #3, #25, ...

........................................................................
.............................. CYCLE   46 ..............................
........................................................................
   1   -176.7895713 -0.176790E+03  0.565E-02    0.53       0.0  T
   2   -176.7895750 -0.374971E-05  0.309E-02    0.53       1.0  T
   3   -176.7895708  0.423413E-05  0.816E-03    0.53       1.3  T
   4   -176.7895769 -0.612340E-05  0.177E-03    0.53       5.9  T
   5   -176.7895770 -0.293542E-07  0.129E-03    0.53       8.1  T
   6   -176.7895771 -0.131514E-06  0.398E-04    0.53      26.3  T
   7   -176.7895771 -0.852475E-08  0.214E-04    0.53      49.0  T
     SCC iter.                  ...        0 min,  0.093 sec
     gradient                   ...        0 min,  0.019 sec
 * total energy  :  -174.4686084 Eh     change        0.3212473E-05 Eh
   gradient norm :     0.0029301 Eh/α   predicted    -0.4393534E-04 (*******%)
   displ. norm   :     0.0383668 α      lambda       -0.5829111E-04
   maximum displ.:     0.0153830 α      in ANC's #22, #36, #23, ...

........................................................................
.............................. CYCLE   47 ..............................
........................................................................
   1   -176.7895304 -0.176790E+03  0.295E-02    0.53       0.0  T
   2   -176.7895315 -0.104064E-05  0.162E-02    0.53       1.0  T
   3   -176.7895307  0.795594E-06  0.373E-03    0.53       2.8  T
   4   -176.7895320 -0.129814E-05  0.774E-04    0.53      13.5  T
   5   -176.7895320 -0.231228E-07  0.514E-04    0.53      20.4  T
   6   -176.7895320 -0.190275E-07  0.163E-04    0.53      64.4  T
     SCC iter.                  ...        0 min,  0.080 sec
     gradient                   ...        0 min,  0.019 sec
 * total energy  :  -174.4686418 Eh     change       -0.3342409E-04 Eh
   gradient norm :     0.0009599 Eh/α   predicted    -0.2918830E-04 ( -12.67%)
   displ. norm   :     0.0609157 α      lambda       -0.1005207E-04
   maximum displ.:     0.0366091 α      in ANC's #3, #8, #4, ...

........................................................................
.............................. CYCLE   48 ..............................
........................................................................
   1   -176.7892311 -0.176789E+03  0.225E-02    0.53       0.0  T
   2   -176.7892315 -0.442822E-06  0.118E-02    0.53       1.0  T
   3   -176.7892305  0.100686E-05  0.403E-03    0.53       2.6  T
   4   -176.7892316 -0.106915E-05  0.196E-03    0.53       5.3  T
   5   -176.7892317 -0.116007E-06  0.885E-04    0.53      11.8  T
   6   -176.7892318 -0.623461E-07  0.237E-04    0.53      44.2  T
     SCC iter.                  ...        0 min,  0.079 sec
     gradient                   ...        0 min,  0.019 sec
 * total energy  :  -174.4686544 Eh     change       -0.1252049E-04 Eh
   gradient norm :     0.0009878 Eh/α   predicted    -0.5035454E-05 ( -59.78%)
   displ. norm   :     0.1558576 α      lambda       -0.2079372E-04
   maximum displ.:     0.0859448 α      in ANC's #3, #8, #4, ...

........................................................................
.............................. CYCLE   49 ..............................
........................................................................
   1   -176.7890190 -0.176789E+03  0.545E-02    0.53       0.0  T
   2   -176.7890214 -0.241906E-05  0.282E-02    0.53       1.0  T
   3   -176.7890141  0.726011E-05  0.107E-02    0.53       1.0  T
   4   -176.7890218 -0.769520E-05  0.498E-03    0.53       2.1  T
   5   -176.7890224 -0.562047E-06  0.238E-03    0.53       4.4  T
   6   -176.7890228 -0.462600E-06  0.611E-04    0.53      17.1  T
   7   -176.7890229 -0.141178E-07  0.395E-04    0.53      26.6  T
     SCC iter.                  ...        0 min,  0.090 sec
     gradient                   ...        0 min,  0.019 sec
 * total energy  :  -174.4686818 Eh     change       -0.2739775E-04 Eh
   gradient norm :     0.0009605 Eh/α   predicted    -0.1051118E-04 ( -61.63%)
   displ. norm   :     0.3034593 α      lambda       -0.3483755E-04
   maximum displ.:     0.1650488 α      in ANC's #3, #8, #4, ...

........................................................................
.............................. CYCLE   50 ..............................
........................................................................
   1   -176.7882644 -0.176788E+03  0.106E-01    0.53       0.0  T
   2   -176.7882735 -0.910406E-05  0.544E-02    0.53       1.0  T
   3   -176.7882488  0.246795E-04  0.200E-02    0.53       1.0  T
   4   -176.7882747 -0.258177E-04  0.974E-03    0.53       1.1  T
   5   -176.7882773 -0.260986E-05  0.431E-03    0.53       2.4  T
   6   -176.7882787 -0.144939E-05  0.104E-03    0.53      10.1  T
   7   -176.7882788 -0.285274E-07  0.706E-04    0.53      14.8  T
   8   -176.7882788 -0.136200E-07  0.402E-04    0.53      26.1  T
     SCC iter.                  ...        0 min,  0.104 sec
     gradient                   ...        0 min,  0.019 sec
 * total energy  :  -174.4687232 Eh     change       -0.4140611E-04 Eh
   gradient norm :     0.0014096 Eh/α   predicted    -0.1813336E-04 ( -56.21%)
   displ. norm   :     0.3070539 α      lambda       -0.2888870E-04
   maximum displ.:     0.1714011 α      in ANC's #3, #8, #4, ...

........................................................................
.............................. CYCLE   51 ..............................
........................................................................
   1   -176.7880794 -0.176788E+03  0.107E-01    0.53       0.0  T
   2   -176.7880889 -0.953454E-05  0.545E-02    0.53       1.0  T
   3   -176.7880695  0.193911E-04  0.185E-02    0.53       1.0  T
   4   -176.7880889 -0.193402E-04  0.994E-03    0.53       1.1  T
   5   -176.7880917 -0.286672E-05  0.465E-03    0.53       2.3  T
   6   -176.7880937 -0.191448E-05  0.114E-03    0.53       9.2  T
   7   -176.7880937 -0.563224E-07  0.718E-04    0.53      14.6  T
   8   -176.7880937 -0.179499E-07  0.375E-04    0.53      27.9  T
     SCC iter.                  ...        0 min,  0.102 sec
     gradient                   ...        0 min,  0.019 sec
 * total energy  :  -174.4687549 Eh     change       -0.3171473E-04 Eh
   gradient norm :     0.0012930 Eh/α   predicted    -0.1505024E-04 ( -52.54%)
   displ. norm   :     0.2310141 α      lambda       -0.2130053E-04
   maximum displ.:     0.1350980 α      in ANC's #3, #8, #4, ...

........................................................................
.............................. CYCLE   52 ..............................
........................................................................
   1   -176.7886728 -0.176789E+03  0.818E-02    0.53       0.0  T
   2   -176.7886784 -0.565607E-05  0.412E-02    0.53       1.0  T
   3   -176.7886711  0.732380E-05  0.124E-02    0.53       1.0  T
   4   -176.7886775 -0.644411E-05  0.768E-03    0.53       1.4  T
   5   -176.7886799 -0.241217E-05  0.318E-03    0.53       3.3  T
   6   -176.7886808 -0.820594E-06  0.701E-04    0.53      15.0  T
   7   -176.7886808 -0.150723E-07  0.479E-04    0.53      21.9  T
     SCC iter.                  ...        0 min,  0.099 sec
     gradient                   ...        0 min,  0.021 sec
 * total energy  :  -174.4687809 Eh     change       -0.2604198E-04 Eh
   gradient norm :     0.0013214 Eh/α   predicted    -0.1090703E-04 ( -58.12%)
   displ. norm   :     0.2009266 α      lambda       -0.2064535E-04
   maximum displ.:     0.1223644 α      in ANC's #3, #8, #4, ...

........................................................................
.............................. CYCLE   53 ..............................
........................................................................
   1   -176.7888527 -0.176789E+03  0.721E-02    0.53       0.0  T
   2   -176.7888572 -0.446554E-05  0.361E-02    0.53       1.0  T
   3   -176.7888533  0.386280E-05  0.981E-03    0.53       1.1  T
   4   -176.7888556 -0.230357E-05  0.695E-03    0.53       1.5  T
   5   -176.7888581 -0.246378E-05  0.279E-03    0.53       3.8  T
   6   -176.7888588 -0.706311E-06  0.563E-04    0.53      18.6  T
   7   -176.7888588 -0.140010E-07  0.362E-04    0.53      29.0  T
     SCC iter.                  ...        0 min,  0.096 sec
     gradient                   ...        0 min,  0.019 sec
 * total energy  :  -174.4688084 Eh     change       -0.2746652E-04 Eh
   gradient norm :     0.0009140 Eh/α   predicted    -0.1050912E-04 ( -61.74%)
   displ. norm   :     0.2472095 α      lambda       -0.2752734E-04
   maximum displ.:     0.1529767 α      in ANC's #3, #8, #4, ...

........................................................................
.............................. CYCLE   54 ..............................
........................................................................
   1   -176.7889591 -0.176789E+03  0.886E-02    0.53       0.0  T
   2   -176.7889657 -0.663911E-05  0.446E-02    0.53       1.0  T
   3   -176.7889602  0.551450E-05  0.121E-02    0.53       1.0  T
   4   -176.7889634 -0.318169E-05  0.861E-03    0.53       1.2  T
   5   -176.7889670 -0.364937E-05  0.331E-03    0.53       3.2  T
   6   -176.7889681 -0.102359E-05  0.638E-04    0.53      16.4  T
   7   -176.7889681 -0.199440E-07  0.382E-04    0.53      27.5  T
   8   -176.7889681 -0.355996E-08  0.250E-04    0.53      41.9  T
     SCC iter.                  ...        0 min,  0.104 sec
     gradient                   ...        0 min,  0.019 sec
 * total energy  :  -174.4688441 Eh     change       -0.3574561E-04 Eh
   gradient norm :     0.0010036 Eh/α   predicted    -0.1414257E-04 ( -60.44%)
   displ. norm   :     0.2842903 α      lambda       -0.2940570E-04
   maximum displ.:     0.1792197 α      in ANC's #3, #4, #8, ...

........................................................................
.............................. CYCLE   55 ..............................
........................................................................
   1   -176.7881965 -0.176788E+03  0.991E-02    0.52       0.0  T
   2   -176.7882044 -0.785664E-05  0.503E-02    0.53       1.0  T
   3   -176.7881915  0.128953E-04  0.154E-02    0.52       1.0  T
   4   -176.7882017 -0.102791E-04  0.972E-03    0.53       1.1  T
   5   -176.7882063 -0.460684E-05  0.377E-03    0.53       2.8  T
   6   -176.7882077 -0.131212E-05  0.719E-04    0.53      14.6  T
   7   -176.7882077 -0.245005E-07  0.426E-04    0.53      24.6  T
   8   -176.7882077 -0.413814E-08  0.271E-04    0.53      38.6  T
     SCC iter.                  ...        0 min,  0.103 sec
     gradient                   ...        0 min,  0.019 sec
 * total energy  :  -174.4688810 Eh     change       -0.3683098E-04 Eh
   gradient norm :     0.0009885 Eh/α   predicted    -0.1523427E-04 ( -58.64%)
   displ. norm   :     0.2562374 α      lambda       -0.2439842E-04
   maximum displ.:     0.1655551 α      in ANC's #3, #4, #8, ...

........................................................................
.............................. CYCLE   56 ..............................
........................................................................
   1   -176.7880618 -0.176788E+03  0.853E-02    0.52       0.0  T
   2   -176.7880673 -0.549751E-05  0.438E-02    0.52       1.0  T
   3   -176.7880544  0.129416E-04  0.151E-02    0.52       1.0  T
   4   -176.7880666 -0.121773E-04  0.818E-03    0.53       1.3  T
   5   -176.7880689 -0.232284E-05  0.347E-03    0.52       3.0  T
   6   -176.7880700 -0.110594E-05  0.752E-04    0.52      13.9  T
   7   -176.7880700 -0.324212E-07  0.444E-04    0.52      23.6  T
   8   -176.7880700 -0.805767E-08  0.261E-04    0.52      40.1  T
     SCC iter.                  ...        0 min,  0.103 sec
     gradient                   ...        0 min,  0.019 sec
 * total energy  :  -174.4689117 Eh     change       -0.3072489E-04 Eh
   gradient norm :     0.0011190 Eh/α   predicted    -0.1255549E-04 ( -59.14%)
   displ. norm   :     0.2189267 α      lambda       -0.2128343E-04
   maximum displ.:     0.1455751 α      in ANC's #3, #4, #8, ...

........................................................................
.............................. CYCLE   57 ..............................
........................................................................
   1   -176.7882710 -0.176788E+03  0.693E-02    0.52       0.0  T
   2   -176.7882743 -0.328600E-05  0.360E-02    0.52       1.0  T
   3   -176.7882578  0.164141E-04  0.149E-02    0.52       1.0  T
   4   -176.7882744 -0.166074E-04  0.661E-03    0.52       1.6  T
   5   -176.7882758 -0.139385E-05  0.282E-03    0.52       3.7  T
   6   -176.7882765 -0.689535E-06  0.660E-04    0.52      15.9  T
   7   -176.7882766 -0.240976E-07  0.405E-04    0.52      25.9  T
     SCC iter.                  ...        0 min,  0.089 sec
     gradient                   ...        0 min,  0.019 sec
 * total energy  :  -174.4689397 Eh     change       -0.2801281E-04 Eh
   gradient norm :     0.0011020 Eh/α   predicted    -0.1086902E-04 ( -61.20%)
   displ. norm   :     0.2070429 α      lambda       -0.2164050E-04
   maximum displ.:     0.1412040 α      in ANC's #3, #4, #5, ...

........................................................................
.............................. CYCLE   58 ..............................
........................................................................
   1   -176.7878483 -0.176788E+03  0.631E-02    0.52       0.0  T
   2   -176.7878510 -0.270211E-05  0.330E-02    0.52       1.0  T
   3   -176.7878357  0.153080E-04  0.145E-02    0.52       1.0  T
   4   -176.7878516 -0.158471E-04  0.592E-03    0.52       1.8  T
   5   -176.7878525 -0.946913E-06  0.251E-03    0.52       4.2  T
   6   -176.7878531 -0.539323E-06  0.708E-04    0.52      14.8  T
   7   -176.7878531 -0.319410E-07  0.420E-04    0.52      24.9  T
     SCC iter.                  ...        0 min,  0.087 sec
     gradient                   ...        0 min,  0.018 sec
 * total energy  :  -174.4689691 Eh     change       -0.2940148E-04 Eh
   gradient norm :     0.0010168 Eh/α   predicted    -0.1103109E-04 ( -62.48%)
   displ. norm   :     0.2190621 α      lambda       -0.2482244E-04
   maximum displ.:     0.1518048 α      in ANC's #3, #4, #5, ...

........................................................................
.............................. CYCLE   59 ..............................
........................................................................
   1   -176.7880376 -0.176788E+03  0.636E-02    0.52       0.0  T
   2   -176.7880404 -0.276594E-05  0.334E-02    0.52       1.0  T
   3   -176.7880237  0.167198E-04  0.148E-02    0.51       1.0  T
   4   -176.7880410 -0.173576E-04  0.600E-03    0.52       1.7  T
   5   -176.7880421 -0.101220E-05  0.246E-03    0.52       4.3  T
   6   -176.7880425 -0.493902E-06  0.766E-04    0.52      13.7  T
   7   -176.7880426 -0.366529E-07  0.463E-04    0.52      22.6  T
     SCC iter.                  ...        0 min,  0.082 sec
     gradient                   ...        0 min,  0.018 sec
 * total energy  :  -174.4690020 Eh     change       -0.3290413E-04 Eh
   gradient norm :     0.0008507 Eh/α   predicted    -0.1268061E-04 ( -61.46%)
   displ. norm   :     0.2557861 α      lambda       -0.2788057E-04
   maximum displ.:     0.1787039 α      in ANC's #3, #4, #5, ...

........................................................................
.............................. CYCLE   60 ..............................
........................................................................
   1   -176.7878644 -0.176788E+03  0.731E-02    0.52       0.0  T
   2   -176.7878684 -0.397120E-05  0.384E-02    0.52       1.0  T
   3   -176.7878526  0.158020E-04  0.149E-02    0.51       1.0  T
[...]
       158                         -0.3191917              -8.6856
       159                         -0.3133709              -8.5273
       160                         -0.3091900              -8.4135
       161                         -0.2800589              -7.6208
       162                         -0.2723930              -7.4122
       163                         -0.2551428              -6.9428
       164                         -0.2453640              -6.6767
       165                         -0.2296798              -6.2499
       166                         -0.2277645              -6.1978
       167                         -0.2263200              -6.1585
       ...                                ...                  ...
       300                          1.1835750              32.2067
      -------------------------------------------------------------
                  HL-Gap            0.0155367 Eh            0.4228 eV
             Fermi-level           -0.3555388 Eh           -9.6747 eV

     #   Z        covCN         q      C6AA      α(0)
     1   6 C      3.644     0.031    20.383     6.489
     2   8 O      1.705    -0.254    18.202     5.760
     3   6 C      2.862     0.124    25.267     8.239
     4   6 C      2.905    -0.088    30.217     9.013
     5   6 C      3.354     0.071    23.723     7.664
     6   7 N      1.853    -0.264    27.712     7.802
     7  16 S      2.671     0.328   128.391    19.071
     8   7 N      1.855    -0.277    28.039     7.848
     9   6 C      3.332     0.066    24.245     7.808
    10   6 C      2.963    -0.021    28.529     8.761
    11   6 C      2.970     0.022    27.505     8.603
    12   6 C      2.906    -0.036    28.900     8.815
    13   6 C      2.913    -0.036    28.894     8.814
    14   6 C      2.952     0.006    27.880     8.660
    15   6 C      3.053    -0.004    28.079     8.690
    16   6 C      3.005    -0.040    28.974     8.830
    17   6 C      3.085     0.020    27.473     8.592
    18   6 C      1.900     0.114    28.298     8.591
    19   7 N      0.911    -0.236    26.184     7.401
    20   6 C      2.989    -0.047    29.151     8.857
    21   6 C      3.081     0.025    27.352     8.574
    22   6 C      3.078     0.029    27.282     8.563
    23   6 C      2.985    -0.048    29.186     8.862
    24   6 C      3.083     0.022    27.421     8.584
    25   6 C      1.900     0.114    28.288     8.590
    26   7 N      0.911    -0.233    26.102     7.389
    27   6 C      3.003    -0.045    29.110     8.850
    28   6 C      3.049     0.002    27.932     8.668
    29   6 C      2.895    -0.037    28.920     8.817
    30   6 C      2.907    -0.026    28.660     8.778
    31   6 C      2.958    -0.024    28.592     8.771
    32   6 C      2.851     0.125    25.255     8.237
    33   8 O      1.704    -0.244    18.048     5.736
    34   6 C      3.635     0.031    20.422     6.503
    35   6 C      2.868     0.103    25.715     8.312
    36   8 O      1.709    -0.277    18.591     5.822
    37   6 C      3.649     0.042    20.185     6.454
    38   6 C      2.994    -0.026    28.629     8.777
    39   6 C      3.017     0.009    27.802     8.649
    40  16 S      2.325     0.002   140.987    19.984
    41   6 C      2.933    -0.056    29.381     8.890
    42   6 C      3.084     0.123    25.208     8.231
    43   6 C      3.136     0.003    27.723     8.618
    44  16 S      2.035    -0.110   145.674    20.314
    45   6 C      3.794    -0.024    21.008     6.527
    46   6 C      3.744     0.087    19.205     6.252
    47   8 O      1.704    -0.278    18.605     5.824
    48   6 C      3.356     0.065    23.798     7.670
    49   7 N      1.864    -0.260    27.617     7.789
    50  16 S      2.675     0.337   128.074    19.047
    51   7 N      1.856    -0.263    27.700     7.801
    52   6 C      3.348     0.064    23.984     7.723
    53   6 C      3.824     0.046    19.792     6.331
    54   7 N      1.835    -0.223    26.717     7.660
    55   6 C      2.718     0.247    22.861     7.827
    56   9 F      0.789    -0.175    10.976     3.913
    57   6 C      2.719     0.244    22.914     7.836
    58   9 F      0.789    -0.178    11.007     3.919
    59   7 N      1.844    -0.225    26.751     7.665
    60   6 C      3.830     0.035    19.970     6.358
    61   6 C      2.859     0.127    25.215     8.231
    62   8 O      1.704    -0.254    18.208     5.761
    63   6 C      3.638     0.032    20.394     6.496
    64   1 H      0.924     0.048     2.345     2.395
    65   1 H      0.924     0.050     2.326     2.385
    66   1 H      0.925     0.068     2.103     2.268
    67   1 H      0.926     0.062     2.177     2.307
    68   1 H      0.926     0.065     2.136     2.286
    69   1 H      0.926     0.050     2.325     2.384
    70   1 H      0.926     0.054     2.271     2.357
    71   1 H      0.926     0.051     2.302     2.373
    72   1 H      0.926     0.037     2.492     2.468
    73   1 H      0.926     0.042     2.427     2.436
    74   1 H      0.926     0.070     2.087     2.259
    75   1 H      0.925     0.065     2.141     2.288
    76   1 H      0.924     0.061     2.184     2.311
    77   1 H      0.925     0.060     2.200     2.320
    78   1 H      0.924     0.064     2.152     2.294
    79   1 H      0.924     0.039     2.462     2.454
    80   1 H      0.925     0.066     2.134     2.285
    81   1 H      0.924     0.037     2.489     2.467
    82   1 H      0.927     0.067     2.121     2.277
    83   1 H      0.925     0.061     2.192     2.315
    84   1 H      0.925     0.063     2.166     2.301
    85   1 H      0.923     0.041     2.436     2.441
    86   1 H      0.924     0.060     2.199     2.319
    87   1 H      0.923     0.071     2.078     2.255
    88   1 H      0.923     0.090     1.882     2.146
    89   1 H      0.924     0.063     2.159     2.298
    90   1 H      0.924     0.048     2.346     2.395
    91   1 H      0.924     0.062     2.181     2.309

 Mol. C6AA /au·bohr⁶  :     144875.897737
 Mol. C8AA /au·bohr⁸  :    3951468.751708
 Mol. α(0) /au        :        599.306419


Wiberg/Mayer (AO) data.
largest (>0.10) Wiberg bond orders for each atom
          total WBO             WBO to atom ...
     1  C   3.939        O    2 0.979    H   66 0.979    H   64 0.975    H   65 0.975
     2  O   2.240        C    3 1.075    C    1 0.979
     3  C   3.938        C    4 1.491    C   61 1.177    O    2 1.075
     4  C   3.967        C    3 1.491    C    5 1.245    H   67 0.960
     5  C   3.977        N    6 1.387    C    4 1.245    C    9 1.161
     6  N   3.079        S    7 1.422    C    5 1.387    N    8 0.161
     7  S   3.151        N    6 1.422    N    8 1.402
     8  N   3.087        S    7 1.402    C    9 1.393    N    6 0.161
     9  C   3.973        N    8 1.393    C   10 1.198    C    5 1.161
    10  C   3.980        C   61 1.420    C    9 1.198    C   11 1.091
    11  C   3.929        C   12 1.679    C   10 1.091    C   60 0.971
    12  C   3.980        C   11 1.679    C   13 1.180    H   68 0.959
    13  C   3.980        C   14 1.639    C   12 1.180    H   69 0.960
    14  C   3.966        C   13 1.639    C   15 1.133    C   53 0.960
    15  C   3.971        C   16 1.615    C   14 1.133    C   21 1.040
    16  C   3.923        C   15 1.615    C   17 1.115    H   70 0.965
    17  C   3.922        C   20 1.510    C   18 1.128    C   16 1.115
    18  C   3.946        N   19 2.770    C   17 1.128
    19  N   2.950        C   18 2.770
    20  C   3.959        C   17 1.510    C   21 1.196    H   71 0.965
    21  C   3.936        C   22 1.477    C   20 1.196    C   15 1.040
    22  C   3.940        C   21 1.477    C   23 1.196    C   28 1.036
    23  C   3.948        C   24 1.501    C   22 1.196    H   72 0.970
    24  C   3.931        C   23 1.501    C   27 1.130    C   25 1.125
    25  C   3.946        N   26 2.774    C   24 1.125
    26  N   2.952        C   25 2.774
    27  C   3.906        C   28 1.571    C   24 1.130    H   73 0.971
    28  C   3.974        C   27 1.571    C   29 1.198    C   22 1.036
    29  C   3.940        C   30 1.620    C   28 1.198    H   74 0.950
    30  C   3.967        C   29 1.620    C   31 1.192    H   75 0.956
    31  C   3.938        C   32 1.328    C   30 1.192    C   52 1.184
    32  C   3.897        C   31 1.328    C   35 1.246    O   33 1.099
    33  O   2.252        C   32 1.099    C   34 0.963
    34  C   3.928        H   77 0.979    H   78 0.975    H   76 0.974    O   33 0.963
    35  C   3.935        C   38 1.389    C   32 1.246    O   36 1.019
    36  O   2.168        C   35 1.019    C   37 0.967
    37  C   3.940        H   81 0.980    H   80 0.979    H   79 0.974    O   36 0.967
    38  C   3.934        C   35 1.389    C   48 1.183    C   39 1.137
    39  C   3.937        C   43 1.433    C   38 1.137    S   40 1.125
    40  S   2.650        C   41 1.196    C   39 1.125
    41  C   3.915        C   42 1.527    S   40 1.196    H   82 0.966
    42  C   3.933        C   41 1.527    C   43 1.211    O   47 1.039
    43  C   3.927        C   39 1.433    C   42 1.211    S   44 1.069
    44  S   2.333        C   43 1.069    C   45 0.987
    45  C   3.982        C   46 1.007    S   44 0.987    H   84 0.973    H   83 0.971
    46  C   3.950        C   45 1.007    O   47 0.973    H   85 0.968    H   86 0.963
    47  O   2.200        C   42 1.039    C   46 0.973
    48  C   3.973        N   49 1.401    C   38 1.183    C   52 1.172
    49  N   3.091        S   50 1.411    C   48 1.401    N   51 0.157
    50  S   3.142        N   51 1.413    N   49 1.411
    51  N   3.074        S   50 1.413    C   52 1.402    N   49 0.157
    52  C   3.971        N   51 1.402    C   31 1.184    C   48 1.172
    53  C   3.973        N   54 1.003    C   60 0.963    C   14 0.960    H   87 0.931
    54  N   3.087        C   55 1.782    C   53 1.003    F   56 0.108
    55  C   3.904        N   54 1.782    C   57 0.998    F   56 0.995
    56  F   1.163        C   55 0.995    N   54 0.108
    57  C   3.904        N   59 1.782    C   55 0.998    F   58 0.991
    58  F   1.159        C   57 0.991    N   59 0.106
    59  N   3.086        C   57 1.782    C   60 0.996    F   58 0.106
    60  C   3.970        N   59 0.996    C   11 0.971    C   53 0.963    H   88 0.909
    61  C   3.931        C   10 1.420    C    3 1.177    O   62 1.082
    62  O   2.223        C   61 1.082    C   63 0.963
    63  C   3.932        H   90 0.982    H   89 0.977    H   91 0.975    O   62 0.963
    64  H   0.997        C    1 0.975
    65  H   0.997        C    1 0.975
    66  H   0.995        C    1 0.979
    67  H   0.996        C    4 0.960
    68  H   0.994        C   12 0.959
    69  H   0.996        C   13 0.960
    70  H   0.996        C   16 0.965
    71  H   0.997        C   20 0.965
    72  H   0.998        C   23 0.970
    73  H   0.997        C   27 0.971
    74  H   0.994        C   29 0.950
    75  H   0.995        C   30 0.956
    76  H   0.993        C   34 0.974
    77  H   0.995        C   34 0.979
    78  H   0.994        C   34 0.975
    79  H   0.998        C   37 0.974
    80  H   0.995        C   37 0.979
    81  H   0.997        C   37 0.980
    82  H   0.995        C   41 0.966
    83  H   0.995        C   45 0.971
    84  H   0.995        C   45 0.973
    85  H   0.998        C   46 0.968
    86  H   0.995        C   46 0.963
    87  H   0.994        C   53 0.931
    88  H   0.988        C   60 0.909
    89  H   0.995        C   63 0.977
    90  H   0.997        C   63 0.982
    91  H   0.995        C   63 0.975

molecular dipole:
                 x           y           z       tot (Debye)
 q only:       -1.314       1.438       1.108
   full:       -1.189       2.234       0.851       6.786
molecular quadrupole (traceless):
                xx          xy          yy          xz          yz          zz
 q only:       34.804      -4.483     -55.000      46.933       2.519      20.196
  q+dip:       53.603     -11.793     -79.329      68.527      11.529      25.725
   full:       50.866     -10.820     -73.463      67.073      15.764      22.596

           -------------------------------------------------
          |                Geometry Summary                 |
           -------------------------------------------------

      molecular mass/u    :      914.9926000
   center of mass at/Å    :       -3.3110126      -5.4764661       1.0320101
  moments of inertia/u·Å² :        0.7592661E+04   0.4195692E+05   0.4507511E+05
rotational constants/cm⁻¹ :        0.2220254E-02   0.4017843E-03   0.3739899E-03

 * 84 selected distances

     #   Z        #   Z                                     value/Å
     1   6 C      2   8 O                                 1.4080291
     2   8 O      3   6 C                                 1.3598092
     3   6 C      4   6 C                                 1.3709993
     4   6 C      5   6 C                                 1.4011972
     5   6 C      6   7 N                                 1.3312160
     6   7 N      7  16 S                                 1.6075093
     7  16 S      8   7 N                                 1.6136182
     5   6 C      9   6 C                                 1.4362782
     8   7 N      9   6 C                                 1.3334560
     9   6 C     10   6 C                                 1.4182241
    11   6 C     12   6 C                                 1.3458047
    12   6 C     13   6 C                                 1.4283975
    13   6 C     14   6 C                                 1.3533858
    15   6 C     16   6 C                                 1.3622124
    18   6 C     19   7 N                                 1.1487954
    17   6 C     20   6 C                                 1.3720559
    20   6 C     21   6 C                                 1.4302982
    21   6 C     22   6 C                                 1.3743811
    22   6 C     23   6 C                                 1.4310173
    23   6 C     24   6 C                                 1.3738544
    25   6 C     26   7 N                                 1.1483537
    24   6 C     27   6 C                                 1.4422294
    27   6 C     28   6 C                                 1.3670515
    28   6 C     29   6 C                                 1.4243622
    29   6 C     30   6 C                                 1.3546824
    30   6 C     31   6 C                                 1.4310341
    31   6 C     32   6 C                                 1.4058465
    32   6 C     33   8 O                                 1.3531728
    33   8 O     34   6 C                                 1.4180599
    32   6 C     35   6 C                                 1.4247391
    35   6 C     36   8 O                                 1.3783448
    36   8 O     37   6 C                                 1.4140710
    35   6 C     38   6 C                                 1.3929604
    39   6 C     40  16 S                                 1.7414393
    40  16 S     41   6 C                                 1.7125923
    41   6 C     42   6 C                                 1.3639383
    39   6 C     43   6 C                                 1.3835040
    42   6 C     43   6 C                                 1.4234867
    43   6 C     44  16 S                                 1.7521674 (max)
    45   6 C     46   6 C                                 1.5179133
    42   6 C     47   8 O                                 1.3641662
    46   6 C     47   8 O                                 1.4108271
    38   6 C     48   6 C                                 1.4172216
    48   6 C     49   7 N                                 1.3292263
    49   7 N     50  16 S                                 1.6096049
    50  16 S     51   7 N                                 1.6106051
    31   6 C     52   6 C                                 1.4205609
    48   6 C     52   6 C                                 1.4321953
    51   7 N     52   6 C                                 1.3312732
    54   7 N     55   6 C                                 1.2569409
    55   6 C     56   9 F                                 1.3318311
    57   6 C     58   9 F                                 1.3326186
    57   6 C     59   7 N                                 1.2559080
    10   6 C     61   6 C                                 1.3916678
    61   6 C     62   8 O                                 1.3575504
    62   8 O     63   6 C                                 1.4167710
     1   6 C     64   1 H                                 1.0939970
     1   6 C     65   1 H                                 1.0938414
     1   6 C     66   1 H                                 1.0887695
     4   6 C     67   1 H                                 1.0759167
    12   6 C     68   1 H                                 1.0773394
    13   6 C     69   1 H                                 1.0797361
    16   6 C     70   1 H                                 1.0715282
    20   6 C     71   1 H                                 1.0723253
    23   6 C     72   1 H                                 1.0722323
    27   6 C     73   1 H                                 1.0730755
    29   6 C     74   1 H                                 1.0768059
    30   6 C     75   1 H                                 1.0816920
    34   6 C     76   1 H                                 1.0912315
    34   6 C     77   1 H                                 1.0899740
    34   6 C     78   1 H                                 1.0914901
    37   6 C     79   1 H                                 1.0928103
    37   6 C     80   1 H                                 1.0885040
    37   6 C     81   1 H                                 1.0952803
    41   6 C     82   1 H                                 1.0703614 (min)
    45   6 C     83   1 H                                 1.0876499
    45   6 C     84   1 H                                 1.0904960
    46   6 C     85   1 H                                 1.0989799
    46   6 C     86   1 H                                 1.0929277
    53   6 C     87   1 H                                 1.1005151
    60   6 C     88   1 H                                 1.0989984
    63   6 C     89   1 H                                 1.0904384
    63   6 C     90   1 H                                 1.0910908
    63   6 C     91   1 H                                 1.0915887

 * 7 distinct bonds (by element types)

   Z      Z             #   av. dist./Å        max./Å        min./Å
   1 H    6 C          28     1.0864141     1.1005151     1.0703614
   6 C    6 C          29     1.4031552     1.5179133     1.3458047
   6 C    7 N           8     1.2668962     1.3334560     1.1483537
   6 C    8 O          10     1.3880802     1.4180599     1.3531728
   6 C    9 F           2     1.3322249     1.3326186     1.3318311
   6 C   16 S           3     1.7353997     1.7521674     1.7125923
   7 N   16 S           4     1.6103344     1.6136182     1.6075093


optimized geometry written to: xtbopt.xyz


           -------------------------------------------------
          | TOTAL ENERGY             -174.475689636834 Eh   |
          | GRADIENT NORM               0.000477418229 Eh/α |
          | HOMO-LUMO GAP               0.422775193593 eV   |
           -------------------------------------------------

------------------------------------------------------------------------
 * finished run on 2021/06/17 at 14:33:19.211     
------------------------------------------------------------------------
 total:
 * wall-time:     0 d,  0 h,  0 min, 27.741 sec
 *  cpu-time:     0 d,  0 h,  5 min, 32.669 sec
 * ratio c/w:    11.992 speedup
 SCF:
 * wall-time:     0 d,  0 h,  0 min,  0.256 sec
 *  cpu-time:     0 d,  0 h,  0 min,  3.040 sec
 * ratio c/w:    11.883 speedup
 ANC optimizer:
 * wall-time:     0 d,  0 h,  0 min, 27.436 sec
 *  cpu-time:     0 d,  0 h,  5 min, 29.144 sec
 * ratio c/w:    11.997 speedup

