      -----------------------------------------------------------      
     |                   =====================                   |     
     |                           x T B                           |     
     |                   =====================                   |     
     |                         S. Grimme                         |     
     |          Mulliken Center for Theoretical Chemistry        |     
     |                    University of Bonn                     |     
     |                Version 6.2 RC2 (SAW190805)                |     
      -----------------------------------------------------------      

   This program is distributed in the hope that it will be useful,
   but WITHOUT ANY WARRANTY; without even the implied warranty of
   MERCHANTABILITY or FITNESS FOR A PARTICULAR PURPOSE.
   
   FOR NON-COMMERCIAL, ACADEMIA USE ONLY.
   
   Cite this work as:
   * S. Grimme, C. Bannwarth, P. Shushkov, J. Chem. Theory Comput., 2017,
     13, 1989-2009. DOI: 10.1021/acs.jctc.7b00118
   * C. Bannwarth, S. Ehlert and S. Grimme., J. Chem. Theory Comput., 2019,
     15, 1652-1671. DOI: 10.1021/acs.jctc.8b01176
   * P. Pracht, E. Caldeweyher, S. Ehlert, S. Grimme, ChemRxiv, 2019, preprint.
     DOI: 10.26434/chemrxiv.8326202.v1
   
   for DFT-D4:
   * E. Caldeweyher, C. Bannwarth and S. Grimme, J. Chem. Phys., 2017,
     147, 034112. DOI: 10.1063/1.4993215
   * E. Caldeweyher, S. Ehlert, A. Hansen, H. Neugebauer, S. Spicher,
     C. Bannwarth and S. Grimme, J. Chem. Phys., 2019, 150, 154122.
     DOI: 10.1063/1.5090222
   
   for sTDA-xTB:
   * S. Grimme and C. Bannwarth, J. Chem. Phys., 2016, 145, 054103.
     DOI: 10.1063/1.4959605
   
   in the mass-spec context:
   * V. Asgeirsson, C. Bauer and S. Grimme, Chem. Sci., 2017, 8, 4879.
     DOI: 10.1039/c7sc00601b
   
   for metadynamics refer to:
   * S. Grimme, J. Chem. Theory Comput., 2019, 155, 2847-2862
     DOI: 10.1021/acs.jctc.9b00143
   
   with help from (in alphabetical order)
   C. Bannwarth, F. Bohle, G. Brandenburg, E. Caldeweyher, M. Checinski,
   S. Dohm, S. Ehlert, S. Ehrlich, F. März, H. Neugebauer, J. Pisarek,
   P. Pracht, P. Shushkov, and S. Spicher.
   
 * started run on 2021/06/25 at 22:04:07.744     

           -------------------------------------------------
          |                Calculation Setup                |
           -------------------------------------------------

          program call               : /ihome/ghutchison/geoffh/xtb/xtb /ihome/ghutchison/blp62/GA/running_GA/opt_GA/generations/48/62_62_63_62_62_00200.xyz -opt
          hostname                   : smp-n62
          coordinate file            : /ihome/ghutchison/blp62/GA/running_GA/opt_GA/generations/48/62_62_63_62_62_00200.xyz
          omp threads                :                    12
          number of atoms            :                   146
          number of electrons        :                   468
          charge                     :                     0
          spin                       :                   0.0
          first test random number   :      0.64963223748782


########################################################################
# WARNING! Please study the warnings concerning your input carefully
#  - XTBPATH is not set, using XTBHOME instead
#  - the use of '-opt' is discouraged, please use '--opt' next time
########################################################################

           ------------------------------------------------- 
          |                 G F N 2 - x T B                 |
          | Geometry, Frequencies, Noncovalent interactions |
          |            JCTC 2019 parametrisation            |
           ------------------------------------------------- 
             KAB for C  - Si     :                1.0500
             KAB for H  - Pd     :                0.9500
             k(s)              :                1.8500
             k(p)              :                2.2300
             k(d)              :                2.2300
             k(f)              :                2.0000
             kEN (H0ij)        :               -2.0000
             D4 a1             :                0.5200
             D4 a2             :                5.0000
             D4 s6             :                1.0000
             D4 s8             :                2.7000
             D4 s9             :                5.0000
             alphaj            :                2.0000

  Z AO/shell   Hii/eV     exponent
  1     Wed Apr 25 08:07:45 CEST 2018   EN: 2.200 GM2: 0.406  GM3: 0.0800  RAES: 1.40
     1s    -10.707211    1.230000
  6     Wed Apr 25 08:07:45 CEST 2018   EN: 2.550 GM2: 0.538  GM3: 0.1500  RAES: 3.00
     2s    -13.970922    2.096432
     2p    -10.063292    1.800000
  8     Wed Apr 25 08:07:45 CEST 2018   EN: 3.440 GM2: 0.452  GM3:-0.0517  RAES: 1.80
     2s    -20.229985    2.439742
     2p    -15.503117    2.137023
 16     Tue Apr 24 11:44:34 CEST 2018   EN: 2.580 GM2: 0.340  GM3:-0.0502  RAES: 3.10
     3s    -20.029654    1.981333
     3p    -11.377694    2.025643
     3d     -0.420282    1.702555

           ------------------------------------------------- 
          |        Self-Consistent Charge Iterations        |
           ------------------------------------------------- 

          ...................................................
          :                      SETUP                      :
          :.................................................:
          :  # basis functions                 476          :
          :  # atomic orbitals                 470          :
          :  # shells                          250          :
          :  # electrons                       468          :
          :  max. iterations                   250          :
          :  Hamiltonian                  GFN2-xTB          :
          :  restarted?                      false          :
          :  GBSA solvation                  false          :
          :  PC potential                    false          :
          :  electronic temp.          300.0000000     K    :
          :  accuracy                    1.0000000          :
          :  -> integral cutoff          0.2500000E+02      :
          :  -> integral neglect         0.1000000E-07      :
          :  -> SCF convergence          0.1000000E-05 Eh   :
          :  -> wf. convergence          0.1000000E-03 e    :
          :  Broyden damping             0.4000000          :
          ...................................................

 iter      E             dE          RMSdq      gap      omega  full diag
   1   -259.4353007 -0.259435E+03  0.494E+00    1.77       0.0  T
   2   -259.6149015 -0.179601E+00  0.289E+00    1.06       1.0  T
   3   -259.3640158  0.250886E+00  0.195E+00    1.71       1.0  T
   4   -259.7091824 -0.345167E+00  0.654E-01    1.15       1.0  T
   5   -259.7655297 -0.563473E-01  0.246E-01    1.27       1.0  T
   6   -259.7725351 -0.700536E-02  0.113E-01    1.20       1.0  T
   7   -259.7741012 -0.156610E-02  0.352E-02    1.23       1.0  T
   8   -259.7741632 -0.620114E-04  0.154E-02    1.22       1.0  T
   9   -259.7741712 -0.807192E-05  0.898E-03    1.23       1.0  T
  10   -259.7741770 -0.571794E-05  0.332E-03    1.22       2.5  T
  11   -259.7741774 -0.457258E-06  0.165E-03    1.22       5.0  T
  12   -259.7741776 -0.178063E-06  0.797E-04    1.22      10.4  T
  13   -259.7741776 -0.910848E-08  0.422E-04    1.22      19.6  T

   *** convergence criteria satisfied after 13 iterations ***

         #    Occupation            Energy/Eh            Energy/eV
      -------------------------------------------------------------
         1        2.0000           -0.7642544             -20.7964
       ...           ...                  ...                  ...
       228        2.0000           -0.3914621             -10.6522
       229        2.0000           -0.3893116             -10.5937
       230        2.0000           -0.3863733             -10.5138
       231        2.0000           -0.3849848             -10.4760
       232        2.0000           -0.3828641             -10.4183
       233        2.0000           -0.3743212             -10.1858
       234        2.0000           -0.3499733              -9.5233 (HOMO)
       235                         -0.3050453              -8.3007 (LUMO)
       236                         -0.3028250              -8.2403
       237                         -0.2994738              -8.1491
       238                         -0.2986537              -8.1268
       239                         -0.2960074              -8.0548
       ...                                ...                  ...
       470                          0.7590185              20.6539
      -------------------------------------------------------------
                  HL-Gap            0.0449280 Eh            1.2226 eV
             Fermi-level           -0.3275549 Eh           -8.9132 eV

 SCC (total)                   0 d,  0 h,  0 min,  0.494 sec
 SCC setup                      ...        0 min,  0.005 sec (  0.967%)
 Dispersion                     ...        0 min,  0.015 sec (  3.006%)
 integral evaluation            ...        0 min,  0.044 sec (  8.968%)
 zeroth order Hamiltonian       ...        0 min,  0.002 sec (  0.437%)
 iterations                     ...        0 min,  0.386 sec ( 78.080%)
 molecular gradient             ...        0 min,  0.040 sec (  8.062%)
 printout                       ...        0 min,  0.002 sec (  0.438%)

         :::::::::::::::::::::::::::::::::::::::::::::::::::::
         ::                     SUMMARY                     ::
         :::::::::::::::::::::::::::::::::::::::::::::::::::::
         :: total energy            -255.978647669169 Eh    ::
         :: gradient norm              0.182141681935 Eh/a0 ::
         :: HOMO-LUMO gap              1.222552909531 eV    ::
         ::.................................................::
         :: SCC energy              -259.774177610501 Eh    ::
         :: -> isotropic ES            0.213389635764 Eh    ::
         :: -> anisotropic ES          0.010227461615 Eh    ::
         :: -> anisotropic XC          0.120451289285 Eh    ::
         :: -> dispersion             -0.218405662411 Eh    ::
         :: repulsion energy           3.795896342134 Eh    ::
         :: add. restraining           0.000000000000 Eh    ::
         :::::::::::::::::::::::::::::::::::::::::::::::::::::

      ----------------------------------------------------------- 
     |                   =====================                   |
     |                        A N C O P T                        |
     |                   =====================                   |
     |               Approximate Normal Coordinate               |
     |                Rational Function Optimizer                |
      ----------------------------------------------------------- 

          ...................................................
          :                      SETUP                      :
          :.................................................:
          :   optimization level            normal          :
          :   max. optcycles                   438          :
          :   ANC micro-cycles                  20          :
          :   degrees of freedom               432          :
          :.................................................:
          :   RF solver                   davidson          :
          :   input Hessian                  false          :
          :   write xtbopt.log                true          :
          :   linear?                        false          :
          :   energy convergence         0.5000000E-05 Eh   :
          :   grad. convergence          0.1000000E-02 Eh/α :
          :   maximium RF displ.         2.0000000          :
          :   Hlow (freq-cutoff)         0.5000000E-02      :
          :   Hmax (freq-cutoff)         5.0000000          :
          :   S6 in model hess.         20.0000000          :
          ...................................................

generating ANC from model Hessian ...
Using Lindh-Hessian (1995)
 Shifting diagonal of input Hessian by   5.001853455400016E-003
 Lowest  eigenvalues of input Hessian
    0.005000   -0.000000   -0.000000   -0.000000   -0.000000    0.000000
    0.000000    0.005003    0.005006    0.005029    0.005044    0.005065
    0.005069    0.005072    0.005093    0.005120    0.005164    0.005204
 Highest eigenvalues
    2.076992    2.092089    2.094647    2.117867    2.122065    2.140365
 

........................................................................
.............................. CYCLE    1 ..............................
........................................................................
   1   -259.7741776 -0.259774E+03  0.137E-04    1.22       0.0  T
   2   -259.7741776 -0.275406E-09  0.105E-04    1.22      78.7  T
   3   -259.7741776 -0.104177E-08  0.566E-05    1.22     146.3  T
     SCC iter.                  ...        0 min,  0.094 sec
     gradient                   ...        0 min,  0.040 sec
 * total energy  :  -255.9786475 Eh     change        0.1252816E-06 Eh
   gradient norm :     0.1821484 Eh/α   predicted     0.0000000E+00 (-100.00%)
   displ. norm   :     0.5427906 α      lambda       -0.5290038E-01
   maximum displ.:     0.1087106 α      in ANC's #139, #96, #141, ...

........................................................................
.............................. CYCLE    2 ..............................
........................................................................
   1   -259.9469741 -0.259947E+03  0.283E-01    1.30       0.0  T
   2   -259.9474787 -0.504626E-03  0.150E-01    1.29       1.0  T
   3   -259.9467615  0.717237E-03  0.899E-02    1.30       1.0  T
   4   -259.9476741 -0.912628E-03  0.313E-02    1.28       1.0  T
   5   -259.9476919 -0.177903E-04  0.213E-02    1.30       1.0  T
   6   -259.9477563 -0.643971E-04  0.733E-03    1.29       1.1  T
   7   -259.9477609 -0.464536E-05  0.292E-03    1.29       2.8  T
   8   -259.9477619 -0.961113E-06  0.880E-04    1.29       9.4  T
     SCC iter.                  ...        0 min,  0.250 sec
     gradient                   ...        0 min,  0.046 sec
 * total energy  :  -256.0171650 Eh     change       -0.3851746E-01 Eh
   gradient norm :     0.0820183 Eh/α   predicted    -0.3424309E-01 ( -11.10%)
   displ. norm   :     0.5948987 α      lambda       -0.2308640E-01
   maximum displ.:     0.1541070 α      in ANC's #44, #41, #52, ...

........................................................................
.............................. CYCLE    3 ..............................
........................................................................
   1   -260.0575886 -0.260058E+03  0.208E-01    1.34       0.0  T
   2   -260.0579091 -0.320544E-03  0.109E-01    1.34       1.0  T
   3   -260.0575850  0.324174E-03  0.639E-02    1.35       1.0  T
   4   -260.0580240 -0.439003E-03  0.224E-02    1.34       1.0  T
   5   -260.0580295 -0.555175E-05  0.154E-02    1.35       1.0  T
   6   -260.0580629 -0.334221E-04  0.565E-03    1.34       1.5  T
   7   -260.0580661 -0.311883E-05  0.229E-03    1.34       3.6  T
   8   -260.0580666 -0.563731E-06  0.787E-04    1.34      10.5  T
     SCC iter.                  ...        0 min,  0.207 sec
     gradient                   ...        0 min,  0.039 sec
 * total energy  :  -256.0329917 Eh     change       -0.1582668E-01 Eh
   gradient norm :     0.0244324 Eh/α   predicted    -0.1562839E-01 (  -1.25%)
   displ. norm   :     0.6661567 α      lambda       -0.1004066E-01
   maximum displ.:     0.2101241 α      in ANC's #44, #52, #41, ...

........................................................................
.............................. CYCLE    4 ..............................
........................................................................
   1   -260.0874547 -0.260087E+03  0.158E-01    1.34       0.0  T
   2   -260.0875161 -0.613797E-04  0.834E-02    1.35       1.0  T
   3   -260.0874424  0.737430E-04  0.309E-02    1.35       1.0  T
   4   -260.0875395 -0.971378E-04  0.118E-02    1.36       1.0  T
   5   -260.0875414 -0.187863E-05  0.539E-03    1.36       1.5  T
   6   -260.0875438 -0.240281E-05  0.178E-03    1.36       4.6  T
     SCC iter.                  ...        0 min,  0.177 sec
     gradient                   ...        0 min,  0.039 sec
 * total energy  :  -256.0410604 Eh     change       -0.8068742E-02 Eh
   gradient norm :     0.0200391 Eh/α   predicted    -0.7248201E-02 ( -10.17%)
   displ. norm   :     0.7677226 α      lambda       -0.7964388E-02
   maximum displ.:     0.2271562 α      in ANC's #20, #44, #19, ...

........................................................................
.............................. CYCLE    5 ..............................
........................................................................
   1   -260.1089510 -0.260109E+03  0.160E-01    1.34       0.0  T
   2   -260.1090089 -0.578805E-04  0.867E-02    1.35       1.0  T
   3   -260.1089406  0.682410E-04  0.295E-02    1.35       1.0  T
   4   -260.1090250 -0.844011E-04  0.126E-02    1.36       1.0  T
   5   -260.1090255 -0.519031E-06  0.781E-03    1.35       1.1  T
   6   -260.1090321 -0.660758E-05  0.374E-03    1.35       2.2  T
   7   -260.1090344 -0.222430E-05  0.128E-03    1.35       6.4  T
   8   -260.1090345 -0.978168E-07  0.691E-04    1.35      12.0  T
     SCC iter.                  ...        0 min,  0.229 sec
     gradient                   ...        0 min,  0.039 sec
 * total energy  :  -256.0479002 Eh     change       -0.6839805E-02 Eh
   gradient norm :     0.0175808 Eh/α   predicted    -0.6329293E-02 (  -7.46%)
   displ. norm   :     0.8306024 α      lambda       -0.6933490E-02
   maximum displ.:     0.2707441 α      in ANC's #20, #19, #14, ...

........................................................................
.............................. CYCLE    6 ..............................
........................................................................
   1   -260.1235721 -0.260124E+03  0.173E-01    1.34       0.0  T
   2   -260.1236331 -0.610483E-04  0.943E-02    1.34       1.0  T
   3   -260.1235611  0.720089E-04  0.308E-02    1.35       1.0  T
   4   -260.1236513 -0.901796E-04  0.132E-02    1.35       1.0  T
   5   -260.1236574 -0.605423E-05  0.556E-03    1.35       1.5  T
   6   -260.1236591 -0.168935E-05  0.276E-03    1.35       3.0  T
   7   -260.1236599 -0.798724E-06  0.151E-03    1.35       5.5  T
     SCC iter.                  ...        0 min,  0.205 sec
     gradient                   ...        0 min,  0.039 sec
 * total energy  :  -256.0541481 Eh     change       -0.6247912E-02 Eh
   gradient norm :     0.0163820 Eh/α   predicted    -0.5858457E-02 (  -6.23%)
   displ. norm   :     0.8716657 α      lambda       -0.6438759E-02
   maximum displ.:     0.2989424 α      in ANC's #20, #19, #14, ...

........................................................................
.............................. CYCLE    7 ..............................
........................................................................
   1   -260.1358478 -0.260136E+03  0.186E-01    1.33       0.0  T
   2   -260.1359098 -0.620315E-04  0.102E-01    1.34       1.0  T
   3   -260.1358298  0.800521E-04  0.317E-02    1.34       1.0  T
   4   -260.1359223 -0.925568E-04  0.150E-02    1.34       1.0  T
   5   -260.1359238 -0.146995E-05  0.941E-03    1.34       1.0  T
   6   -260.1359370 -0.132050E-04  0.355E-03    1.34       2.3  T
   7   -260.1359387 -0.173534E-05  0.147E-03    1.34       5.6  T
   8   -260.1359388 -0.115302E-06  0.772E-04    1.34      10.7  T
     SCC iter.                  ...        0 min,  0.210 sec
     gradient                   ...        0 min,  0.039 sec
 * total energy  :  -256.0601395 Eh     change       -0.5991352E-02 Eh
   gradient norm :     0.0177394 Eh/α   predicted    -0.5665477E-02 (  -5.44%)
   displ. norm   :     0.8985230 α      lambda       -0.6218591E-02
   maximum displ.:     0.3125164 α      in ANC's #20, #19, #14, ...

........................................................................
.............................. CYCLE    8 ..............................
........................................................................
   1   -260.1485704 -0.260149E+03  0.196E-01    1.34       0.0  T
   2   -260.1486277 -0.572402E-04  0.107E-01    1.33       1.0  T
   3   -260.1485533  0.744062E-04  0.311E-02    1.34       1.0  T
   4   -260.1486343 -0.810341E-04  0.160E-02    1.33       1.0  T
   5   -260.1486328  0.155341E-05  0.113E-02    1.34       1.0  T
   6   -260.1486553 -0.225346E-04  0.266E-03    1.33       3.1  T
   7   -260.1486560 -0.687732E-06  0.134E-03    1.33       6.2  T
   8   -260.1486560 -0.601486E-07  0.694E-04    1.33      11.9  T
     SCC iter.                  ...        0 min,  0.227 sec
     gradient                   ...        0 min,  0.039 sec
 * total energy  :  -256.0660123 Eh     change       -0.5872777E-02 Eh
   gradient norm :     0.0165171 Eh/α   predicted    -0.5619564E-02 (  -4.31%)
   displ. norm   :     0.9184611 α      lambda       -0.6026417E-02
   maximum displ.:     0.3172826 α      in ANC's #20, #19, #14, ...

........................................................................
.............................. CYCLE    9 ..............................
........................................................................
   1   -260.1594030 -0.260159E+03  0.202E-01    1.34       0.0  T
   2   -260.1594628 -0.597497E-04  0.111E-01    1.33       1.0  T
   3   -260.1593813  0.814314E-04  0.325E-02    1.34       1.0  T
   4   -260.1594710 -0.896369E-04  0.165E-02    1.33       1.0  T
   5   -260.1594669  0.403030E-05  0.121E-02    1.34       1.0  T
   6   -260.1594933 -0.264080E-04  0.247E-03    1.33       3.4  T
   7   -260.1594938 -0.470950E-06  0.136E-03    1.33       6.1  T
   8   -260.1594939 -0.572182E-07  0.663E-04    1.33      12.5  T
     SCC iter.                  ...        0 min,  0.228 sec
     gradient                   ...        0 min,  0.039 sec
 * total energy  :  -256.0717312 Eh     change       -0.5718942E-02 Eh
   gradient norm :     0.0157110 Eh/α   predicted    -0.5555066E-02 (  -2.87%)
   displ. norm   :     0.9268527 α      lambda       -0.5827086E-02
   maximum displ.:     0.3158510 α      in ANC's #20, #14, #19, ...

........................................................................
.............................. CYCLE   10 ..............................
........................................................................
   1   -260.1729330 -0.260173E+03  0.198E-01    1.34       0.0  T
   2   -260.1729995 -0.664734E-04  0.109E-01    1.34       1.0  T
   3   -260.1729470  0.524664E-04  0.299E-02    1.34       1.0  T
   4   -260.1730155 -0.684974E-04  0.140E-02    1.33       1.0  T
   5   -260.1730140  0.149030E-05  0.848E-03    1.34       1.0  T
   6   -260.1730250 -0.109724E-04  0.296E-03    1.34       2.8  T
   7   -260.1730261 -0.113305E-05  0.138E-03    1.34       6.0  T
   8   -260.1730262 -0.101513E-06  0.730E-04    1.34      11.3  T
     SCC iter.                  ...        0 min,  0.235 sec
     gradient                   ...        0 min,  0.046 sec
 * total energy  :  -256.0771694 Eh     change       -0.5438142E-02 Eh
   gradient norm :     0.0158084 Eh/α   predicted    -0.5416451E-02 (  -0.40%)
   displ. norm   :     0.9381666 α      lambda       -0.5693804E-02
   maximum displ.:     0.3070946 α      in ANC's #14, #20, #15, ...

........................................................................
.............................. CYCLE   11 ..............................
........................................................................
   1   -260.1766217 -0.260177E+03  0.204E-01    1.35       0.0  T
   2   -260.1767201 -0.984021E-04  0.114E-01    1.34       1.0  T
   3   -260.1766028  0.117235E-03  0.385E-02    1.34       1.0  T
   4   -260.1767540 -0.151177E-03  0.153E-02    1.34       1.0  T
   5   -260.1767592 -0.521213E-05  0.716E-03    1.34       1.2  T
   6   -260.1767630 -0.372746E-05  0.336E-03    1.34       2.5  T
   7   -260.1767641 -0.112745E-05  0.187E-03    1.34       4.4  T
   8   -260.1767644 -0.364055E-06  0.932E-04    1.34       8.9  T
     SCC iter.                  ...        0 min,  0.225 sec
     gradient                   ...        0 min,  0.039 sec
 * total energy  :  -256.0822380 Eh     change       -0.5068617E-02 Eh
   gradient norm :     0.0243522 Eh/α   predicted    -0.5352621E-02 (   5.60%)
   displ. norm   :     0.9011722 α      lambda       -0.5269830E-02
   maximum displ.:     0.3150164 α      in ANC's #14, #15, #19, ...

........................................................................
.............................. CYCLE   12 ..............................
........................................................................
   1   -260.1846955 -0.260185E+03  0.188E-01    1.35       0.0  T
   2   -260.1847603 -0.647509E-04  0.103E-01    1.35       1.0  T
   3   -260.1846898  0.704764E-04  0.310E-02    1.35       1.0  T
   4   -260.1847772 -0.873873E-04  0.136E-02    1.35       1.0  T
   5   -260.1847737  0.343846E-05  0.910E-03    1.34       1.0  T
   6   -260.1847862 -0.124776E-04  0.293E-03    1.35       2.8  T
   7   -260.1847873 -0.107017E-05  0.132E-03    1.35       6.2  T
   8   -260.1847874 -0.110149E-06  0.690E-04    1.35      12.0  T
     SCC iter.                  ...        0 min,  0.229 sec
     gradient                   ...        0 min,  0.039 sec
 * total energy  :  -256.0871256 Eh     change       -0.4887609E-02 Eh
   gradient norm :     0.0130733 Eh/α   predicted    -0.4774755E-02 (  -2.31%)
   displ. norm   :     0.9189562 α      lambda       -0.5042453E-02
   maximum displ.:     0.3272383 α      in ANC's #15, #14, #19, ...

........................................................................
.............................. CYCLE   13 ..............................
........................................................................
   1   -260.1994342 -0.260199E+03  0.183E-01    1.35       0.0  T
   2   -260.1994869 -0.527208E-04  0.102E-01    1.35       1.0  T
   3   -260.1993465  0.140412E-03  0.348E-02    1.35       1.0  T
   4   -260.1994829 -0.136394E-03  0.171E-02    1.36       1.0  T
   5   -260.1995022 -0.192718E-04  0.100E-02    1.35       1.0  T
   6   -260.1995159 -0.136956E-04  0.246E-03    1.35       3.4  T
   7   -260.1995164 -0.468934E-06  0.126E-03    1.35       6.6  T
   8   -260.1995164 -0.645394E-07  0.666E-04    1.35      12.4  T
     SCC iter.                  ...        0 min,  0.254 sec
     gradient                   ...        0 min,  0.039 sec
 * total energy  :  -256.0917679 Eh     change       -0.4642289E-02 Eh
   gradient norm :     0.0179032 Eh/α   predicted    -0.4650355E-02 (   0.17%)
   displ. norm   :     0.9277168 α      lambda       -0.4871674E-02
   maximum displ.:     0.3325169 α      in ANC's #14, #15, #19, ...

........................................................................
.............................. CYCLE   14 ..............................
........................................................................
   1   -260.2073159 -0.260207E+03  0.195E-01    1.35       0.0  T
   2   -260.2074269 -0.111047E-03  0.107E-01    1.35       1.0  T
   3   -260.2072398  0.187101E-03  0.410E-02    1.35       1.0  T
   4   -260.2074245 -0.184662E-03  0.193E-02    1.36       1.0  T
   5   -260.2074494 -0.249394E-04  0.117E-02    1.35       1.0  T
   6   -260.2074683 -0.188519E-04  0.340E-03    1.35       2.4  T
   7   -260.2074692 -0.924923E-06  0.145E-03    1.35       5.7  T
   8   -260.2074693 -0.135843E-06  0.760E-04    1.35      10.9  T
     SCC iter.                  ...        0 min,  0.224 sec
     gradient                   ...        0 min,  0.040 sec
 * total energy  :  -256.0960053 Eh     change       -0.4237453E-02 Eh
   gradient norm :     0.0218236 Eh/α   predicted    -0.4532266E-02 (   6.96%)
   displ. norm   :     0.9035878 α      lambda       -0.4917136E-02
   maximum displ.:     0.3365791 α      in ANC's #15, #14, #19, ...

........................................................................
.............................. CYCLE   15 ..............................
........................................................................
   1   -260.1971382 -0.260197E+03  0.203E-01    1.30       0.0  T
   2   -260.1972885 -0.150254E-03  0.114E-01    1.32       1.0  T
   3   -260.1971023  0.186182E-03  0.459E-02    1.32       1.0  T
   4   -260.1973224 -0.220125E-03  0.172E-02    1.33       1.0  T
   5   -260.1973231 -0.638543E-06  0.122E-02    1.32       1.0  T
   6   -260.1973413 -0.182514E-04  0.505E-03    1.32       1.6  T
   7   -260.1973442 -0.293127E-05  0.207E-03    1.32       4.0  T
   8   -260.1973446 -0.386714E-06  0.960E-04    1.32       8.6  T
     SCC iter.                  ...        0 min,  0.236 sec
     gradient                   ...        0 min,  0.039 sec
 * total energy  :  -256.0995189 Eh     change       -0.3513530E-02 Eh
   gradient norm :     0.0389410 Eh/α   predicted    -0.4465917E-02 (  27.11%)
   displ. norm   :     0.7744342 α      lambda       -0.4702209E-02
   maximum displ.:     0.3054273 α      in ANC's #15, #14, #19, ...

........................................................................
.............................. CYCLE   16 ..............................
........................................................................
   1   -260.2140372 -0.260214E+03  0.158E-01    1.38       0.0  T
   2   -260.2141460 -0.108774E-03  0.857E-02    1.37       1.0  T
   3   -260.2139969  0.149121E-03  0.347E-02    1.37       1.0  T
   4   -260.2141413 -0.144414E-03  0.170E-02    1.37       1.0  T
   5   -260.2141688 -0.275256E-04  0.899E-03    1.37       1.0  T
   6   -260.2141779 -0.907540E-05  0.357E-03    1.37       2.3  T
   7   -260.2141793 -0.144077E-05  0.131E-03    1.37       6.3  T
   8   -260.2141795 -0.143440E-06  0.581E-04    1.37      14.2  T
     SCC iter.                  ...        0 min,  0.223 sec
     gradient                   ...        0 min,  0.039 sec
 * total energy  :  -256.1031924 Eh     change       -0.3673512E-02 Eh
   gradient norm :     0.0221307 Eh/α   predicted    -0.3761174E-02 (   2.39%)
   displ. norm   :     0.8531878 α      lambda       -0.4097656E-02
   maximum displ.:     0.3289948 α      in ANC's #15, #14, #19, ...

........................................................................
.............................. CYCLE   17 ..............................
........................................................................
   1   -260.2236669 -0.260224E+03  0.173E-01    1.33       0.0  T
   2   -260.2237513 -0.844077E-04  0.954E-02    1.35       1.0  T
   3   -260.2236128  0.138436E-03  0.359E-02    1.34       1.0  T
   4   -260.2237600 -0.147165E-03  0.154E-02    1.35       1.0  T
   5   -260.2237678 -0.774655E-05  0.103E-02    1.35       1.0  T
   6   -260.2237831 -0.152926E-04  0.326E-03    1.35       2.5  T
   7   -260.2237841 -0.107323E-05  0.131E-03    1.35       6.3  T
   8   -260.2237842 -0.122836E-06  0.664E-04    1.35      12.5  T
     SCC iter.                  ...        0 min,  0.227 sec
     gradient                   ...        0 min,  0.039 sec
 * total energy  :  -256.1066107 Eh     change       -0.3418337E-02 Eh
   gradient norm :     0.0181381 Eh/α   predicted    -0.3540230E-02 (   3.57%)
   displ. norm   :     0.8993769 α      lambda       -0.3780381E-02
   maximum displ.:     0.3581916 α      in ANC's #15, #14, #20, ...

........................................................................
.............................. CYCLE   18 ..............................
........................................................................
   1   -260.2241075 -0.260224E+03  0.192E-01    1.36       0.0  T
   2   -260.2241659 -0.583525E-04  0.104E-01    1.36       1.0  T
   3   -260.2240575  0.108394E-03  0.349E-02    1.36       1.0  T
   4   -260.2241865 -0.129012E-03  0.141E-02    1.36       1.0  T
   5   -260.2241816  0.490983E-05  0.931E-03    1.36       1.0  T
   6   -260.2241954 -0.137837E-04  0.299E-03    1.36       2.8  T
   7   -260.2241966 -0.119426E-05  0.130E-03    1.36       6.3  T
   8   -260.2241967 -0.112157E-06  0.680E-04    1.36      12.2  T
     SCC iter.                  ...        0 min,  0.225 sec
     gradient                   ...        0 min,  0.040 sec
 * total energy  :  -256.1099835 Eh     change       -0.3372782E-02 Eh
   gradient norm :     0.0143472 Eh/α   predicted    -0.3419127E-02 (   1.37%)
   displ. norm   :     0.8881756 α      lambda       -0.3604429E-02
   maximum displ.:     0.3851692 α      in ANC's #15, #14, #11, ...

........................................................................
.............................. CYCLE   19 ..............................
........................................................................
   1   -260.2414235 -0.260241E+03  0.174E-01    1.36       0.0  T
   2   -260.2414682 -0.446837E-04  0.956E-02    1.36       1.0  T
   3   -260.2413953  0.728250E-04  0.286E-02    1.36       1.0  T
   4   -260.2414830 -0.877029E-04  0.123E-02    1.36       1.0  T
   5   -260.2414848 -0.179201E-05  0.619E-03    1.36       1.3  T
   6   -260.2414898 -0.494949E-05  0.261E-03    1.36       3.2  T
   7   -260.2414908 -0.979943E-06  0.112E-03    1.36       7.4  T
   8   -260.2414908 -0.848421E-07  0.593E-04    1.36      14.0  T
     SCC iter.                  ...        0 min,  0.209 sec
     gradient                   ...        0 min,  0.040 sec
 * total energy  :  -256.1130115 Eh     change       -0.3028048E-02 Eh
   gradient norm :     0.0233958 Eh/α   predicted    -0.3223903E-02 (   6.47%)
   displ. norm   :     0.8621574 α      lambda       -0.3672184E-02
   maximum displ.:     0.3665563 α      in ANC's #15, #14, #11, ...

........................................................................
.............................. CYCLE   20 ..............................
........................................................................
   1   -260.2405071 -0.260241E+03  0.193E-01    1.35       0.0  T
   2   -260.2405997 -0.926168E-04  0.103E-01    1.35       1.0  T
   3   -260.2404595  0.140200E-03  0.370E-02    1.35       1.0  T
   4   -260.2406235 -0.164019E-03  0.146E-02    1.35       1.0  T
   5   -260.2406253 -0.178278E-05  0.882E-03    1.36       1.0  T
   6   -260.2406353 -0.100462E-04  0.368E-03    1.35       2.2  T
   7   -260.2406374 -0.204986E-05  0.123E-03    1.35       6.7  T
   8   -260.2406375 -0.147835E-06  0.618E-04    1.35      13.4  T
     SCC iter.                  ...        0 min,  0.228 sec
     gradient                   ...        0 min,  0.040 sec
 * total energy  :  -256.1160940 Eh     change       -0.3082457E-02 Eh
   gradient norm :     0.0142445 Eh/α   predicted    -0.3200895E-02 (   3.84%)
   displ. norm   :     0.8858913 α      lambda       -0.3286868E-02
   maximum displ.:     0.3945025 α      in ANC's #15, #14, #11, ...
 * RMSD in coord.:     1.2501134 α      energy gain  -0.1374463E+00 Eh

generating ANC from model Hessian ...
Using Lindh-Hessian (1995)
 Shifting diagonal of input Hessian by   5.009705756436182E-003
 Lowest  eigenvalues of input Hessian
    0.005000   -0.000000   -0.000000   -0.000000   -0.000000    0.000000
    0.000000    0.005013    0.005016    0.005057    0.005077    0.005084
    0.005089    0.005095    0.005146    0.005180    0.005221    0.005225
 Highest eigenvalues
    2.207538    2.219465    2.220784    2.223900    2.231876    2.248730
 

........................................................................
.............................. CYCLE   21 ..............................
........................................................................
   1   -260.2485738 -0.260249E+03  0.173E-01    1.36       0.0  T
   2   -260.2486186 -0.448385E-04  0.956E-02    1.36       1.0  T
   3   -260.2485518  0.667919E-04  0.277E-02    1.37       1.0  T
   4   -260.2486317 -0.798456E-04  0.111E-02    1.36       1.0  T
   5   -260.2486344 -0.271591E-05  0.515E-03    1.36       1.6  T
   6   -260.2486368 -0.244571E-05  0.241E-03    1.36       3.4  T
   7   -260.2486377 -0.872398E-06  0.105E-03    1.36       7.9  T
   8   -260.2486378 -0.877579E-07  0.570E-04    1.36      14.5  T
   9   -260.2486378 -0.123269E-07  0.240E-04    1.36      34.5  T
     SCC iter.                  ...        0 min,  0.265 sec
     gradient                   ...        0 min,  0.041 sec
 * total energy  :  -256.1189282 Eh     change       -0.2834203E-02 Eh
   gradient norm :     0.0188343 Eh/α   predicted     0.0000000E+00 (-100.00%)
   displ. norm   :     0.4448759 α      lambda       -0.1887413E-02
   maximum displ.:     0.2705816 α      in ANC's #15, #17, #16, ...

........................................................................
.............................. CYCLE   22 ..............................
........................................................................
   1   -260.2522823 -0.260252E+03  0.937E-02    1.34       0.0  T
   2   -260.2522956 -0.132542E-04  0.511E-02    1.35       1.0  T
   3   -260.2522774  0.181514E-04  0.141E-02    1.35       1.0  T
   4   -260.2522970 -0.195994E-04  0.705E-03    1.35       1.2  T
   5   -260.2522982 -0.116863E-05  0.420E-03    1.35       2.0  T
   6   -260.2523008 -0.262422E-05  0.142E-03    1.35       5.8  T
   7   -260.2523011 -0.293082E-06  0.536E-04    1.35      15.4  T
     SCC iter.                  ...        0 min,  0.196 sec
     gradient                   ...        0 min,  0.040 sec
 * total energy  :  -256.1206233 Eh     change       -0.1695119E-02 Eh
   gradient norm :     0.0070396 Eh/α   predicted    -0.1130480E-02 ( -33.31%)
   displ. norm   :     0.4628863 α      lambda       -0.1634885E-02
   maximum displ.:     0.2544705 α      in ANC's #15, #17, #16, ...

........................................................................
.............................. CYCLE   23 ..............................
........................................................................
   1   -260.2548300 -0.260255E+03  0.982E-02    1.33       0.0  T
   2   -260.2548409 -0.109505E-04  0.546E-02    1.34       1.0  T
   3   -260.2548153  0.256159E-04  0.154E-02    1.34       1.0  T
   4   -260.2548408 -0.255286E-04  0.742E-03    1.34       1.1  T
   5   -260.2548432 -0.238120E-05  0.448E-03    1.34       1.8  T
   6   -260.2548462 -0.298563E-05  0.131E-03    1.34       6.3  T
   7   -260.2548464 -0.209636E-06  0.527E-04    1.34      15.7  T
     SCC iter.                  ...        0 min,  0.197 sec
     gradient                   ...        0 min,  0.040 sec
 * total energy  :  -256.1221603 Eh     change       -0.1537016E-02 Eh
   gradient norm :     0.0071737 Eh/α   predicted    -0.9925951E-03 ( -35.42%)
   displ. norm   :     0.8227455 α      lambda       -0.2638891E-02
   maximum displ.:     0.4308168 α      in ANC's #15, #17, #16, ...

........................................................................
.............................. CYCLE   24 ..............................
........................................................................
   1   -260.2552280 -0.260255E+03  0.169E-01    1.32       0.0  T
   2   -260.2552546 -0.265699E-04  0.944E-02    1.33       1.0  T
   3   -260.2551760  0.786555E-04  0.264E-02    1.32       1.0  T
   4   -260.2552539 -0.779282E-04  0.125E-02    1.33       1.0  T
   5   -260.2552604 -0.655012E-05  0.774E-03    1.33       1.1  T
   6   -260.2552696 -0.913848E-05  0.196E-03    1.33       4.2  T
   7   -260.2552700 -0.396573E-06  0.889E-04    1.33       9.3  T
   8   -260.2552700 -0.209915E-07  0.488E-04    1.33      17.0  T
     SCC iter.                  ...        0 min,  0.215 sec
     gradient                   ...        0 min,  0.040 sec
 * total energy  :  -256.1246590 Eh     change       -0.2498705E-02 Eh
   gradient norm :     0.0138890 Eh/α   predicted    -0.2212613E-02 ( -11.45%)
   displ. norm   :     0.8910084 α      lambda       -0.2714602E-02
   maximum displ.:     0.4726803 α      in ANC's #15, #17, #16, ...

........................................................................
.............................. CYCLE   25 ..............................
........................................................................
   1   -260.2551194 -0.260255E+03  0.174E-01    1.32       0.0  T
   2   -260.2551450 -0.256021E-04  0.976E-02    1.32       1.0  T
   3   -260.2550693  0.756602E-04  0.262E-02    1.32       1.0  T
   4   -260.2551446 -0.752808E-04  0.123E-02    1.32       1.0  T
   5   -260.2551496 -0.505057E-05  0.785E-03    1.32       1.1  T
   6   -260.2551595 -0.982102E-05  0.185E-03    1.32       4.5  T
   7   -260.2551598 -0.339293E-06  0.876E-04    1.32       9.5  T
   8   -260.2551598 -0.233823E-07  0.483E-04    1.32      17.1  T
     SCC iter.                  ...        0 min,  0.250 sec
     gradient                   ...        0 min,  0.040 sec
 * total energy  :  -256.1272441 Eh     change       -0.2585024E-02 Eh
   gradient norm :     0.0152925 Eh/α   predicted    -0.2434861E-02 (  -5.81%)
   displ. norm   :     0.8879311 α      lambda       -0.2674479E-02
   maximum displ.:     0.4858317 α      in ANC's #15, #17, #16, ...

........................................................................
.............................. CYCLE   26 ..............................
........................................................................
   1   -260.2584241 -0.260258E+03  0.165E-01    1.32       0.0  T
   2   -260.2584486 -0.244398E-04  0.925E-02    1.32       1.0  T
   3   -260.2583938  0.547660E-04  0.237E-02    1.32       1.0  T
   4   -260.2584513 -0.574427E-04  0.106E-02    1.32       1.0  T
   5   -260.2584523 -0.103714E-05  0.704E-03    1.32       1.2  T
   6   -260.2584605 -0.823848E-05  0.185E-03    1.32       4.5  T
   7   -260.2584609 -0.390616E-06  0.822E-04    1.32      10.1  T
   8   -260.2584610 -0.266521E-07  0.465E-04    1.32      17.8  T
     SCC iter.                  ...        0 min,  0.233 sec
     gradient                   ...        0 min,  0.040 sec
 * total energy  :  -256.1297785 Eh     change       -0.2534462E-02 Eh
   gradient norm :     0.0111765 Eh/α   predicted    -0.2391547E-02 (  -5.64%)
   displ. norm   :     0.8910545 α      lambda       -0.2595971E-02
   maximum displ.:     0.5060084 α      in ANC's #15, #17, #5, ...

........................................................................
.............................. CYCLE   27 ..............................
........................................................................
   1   -260.2644959 -0.260264E+03  0.159E-01    1.32       0.0  T
   2   -260.2645192 -0.232300E-04  0.893E-02    1.32       1.0  T
   3   -260.2644846  0.346099E-04  0.208E-02    1.32       1.0  T
   4   -260.2645240 -0.394335E-04  0.923E-03    1.32       1.0  T
   5   -260.2645254 -0.143856E-05  0.491E-03    1.32       1.7  T
   6   -260.2645288 -0.342119E-05  0.193E-03    1.32       4.3  T
   7   -260.2645294 -0.530291E-06  0.799E-04    1.32      10.4  T
   8   -260.2645294 -0.328170E-07  0.452E-04    1.32      18.3  T
     SCC iter.                  ...        0 min,  0.234 sec
     gradient                   ...        0 min,  0.040 sec
 * total energy  :  -256.1322259 Eh     change       -0.2447376E-02 Eh
   gradient norm :     0.0075484 Eh/α   predicted    -0.2328566E-02 (  -4.85%)
   displ. norm   :     0.9065249 α      lambda       -0.2450420E-02
   maximum displ.:     0.5280036 α      in ANC's #15, #17, #5, ...

........................................................................
.............................. CYCLE   28 ..............................
........................................................................
   1   -260.2686141 -0.260269E+03  0.160E-01    1.32       0.0  T
   2   -260.2686352 -0.211377E-04  0.899E-02    1.32       1.0  T
   3   -260.2686115  0.237726E-04  0.191E-02    1.32       1.0  T
   4   -260.2686398 -0.282941E-04  0.909E-03    1.32       1.0  T
   5   -260.2686430 -0.328295E-05  0.328E-03    1.32       2.5  T
   6   -260.2686441 -0.106956E-05  0.157E-03    1.32       5.3  T
   7   -260.2686444 -0.302100E-06  0.805E-04    1.32      10.3  T
     SCC iter.                  ...        0 min,  0.206 sec
     gradient                   ...        0 min,  0.040 sec
 * total energy  :  -256.1345465 Eh     change       -0.2320633E-02 Eh
   gradient norm :     0.0084022 Eh/α   predicted    -0.2232071E-02 (  -3.82%)
   displ. norm   :     0.9054392 α      lambda       -0.2322340E-02
   maximum displ.:     0.5459239 α      in ANC's #15, #17, #12, ...

........................................................................
.............................. CYCLE   29 ..............................
........................................................................
   1   -260.2750093 -0.260275E+03  0.157E-01    1.31       0.0  T
   2   -260.2750301 -0.208414E-04  0.873E-02    1.32       1.0  T
   3   -260.2750115  0.185983E-04  0.176E-02    1.32       1.0  T
   4   -260.2750333 -0.217286E-04  0.903E-03    1.32       1.0  T
   5   -260.2750375 -0.419514E-05  0.282E-03    1.32       2.9  T
   6   -260.2750382 -0.721328E-06  0.139E-03    1.32       5.9  T
   7   -260.2750384 -0.219925E-06  0.734E-04    1.32      11.3  T
     SCC iter.                  ...        0 min,  0.182 sec
     gradient                   ...        0 min,  0.040 sec
 * total energy  :  -256.1367287 Eh     change       -0.2182214E-02 Eh
   gradient norm :     0.0094232 Eh/α   predicted    -0.2113122E-02 (  -3.17%)
   displ. norm   :     0.9254188 α      lambda       -0.2205163E-02
   maximum displ.:     0.5580992 α      in ANC's #15, #17, #12, ...

........................................................................
.............................. CYCLE   30 ..............................
........................................................................
   1   -260.2729722 -0.260273E+03  0.165E-01    1.30       0.0  T
   2   -260.2729947 -0.225218E-04  0.918E-02    1.31       1.0  T
   3   -260.2729740  0.207173E-04  0.184E-02    1.31       1.0  T
   4   -260.2729950 -0.210310E-04  0.103E-02    1.31       1.0  T
   5   -260.2729995 -0.448575E-05  0.502E-03    1.31       1.6  T
   6   -260.2730035 -0.397530E-05  0.172E-03    1.31       4.8  T
   7   -260.2730039 -0.371782E-06  0.763E-04    1.31      10.8  T
   8   -260.2730039 -0.199065E-07  0.416E-04    1.31      19.9  T
     SCC iter.                  ...        0 min,  0.239 sec
     gradient                   ...        0 min,  0.040 sec
 * total energy  :  -256.1387612 Eh     change       -0.2032508E-02 Eh
   gradient norm :     0.0110056 Eh/α   predicted    -0.2046833E-02 (   0.70%)
   displ. norm   :     0.8954727 α      lambda       -0.2111871E-02
   maximum displ.:     0.5696762 α      in ANC's #15, #17, #12, ...

........................................................................
.............................. CYCLE   31 ..............................
........................................................................
   1   -260.2823359 -0.260282E+03  0.152E-01    1.30       0.0  T
   2   -260.2823562 -0.202544E-04  0.839E-02    1.31       1.0  T
   3   -260.2823359  0.202517E-04  0.171E-02    1.30       1.0  T
   4   -260.2823550 -0.190482E-04  0.988E-03    1.31       1.0  T
   5   -260.2823592 -0.420295E-05  0.519E-03    1.31       1.6  T
   6   -260.2823637 -0.456902E-05  0.146E-03    1.31       5.7  T
   7   -260.2823640 -0.277120E-06  0.626E-04    1.31      13.2  T
   8   -260.2823640 -0.122745E-07  0.359E-04    1.31      23.0  T
     SCC iter.                  ...        0 min,  0.230 sec
     gradient                   ...        0 min,  0.040 sec
 * total energy  :  -256.1407032 Eh     change       -0.1941970E-02 Eh
   gradient norm :     0.0076641 Eh/α   predicted    -0.1902661E-02 (  -2.02%)
   displ. norm   :     0.9332735 α      lambda       -0.1989061E-02
   maximum displ.:     0.5848211 α      in ANC's #15, #17, #12, ...

........................................................................
.............................. CYCLE   32 ..............................
........................................................................
   1   -260.2783540 -0.260278E+03  0.159E-01    1.29       0.0  T
   2   -260.2783733 -0.193266E-04  0.884E-02    1.30       1.0  T
   3   -260.2783344  0.389332E-04  0.199E-02    1.29       1.0  T
   4   -260.2783682 -0.338441E-04  0.114E-02    1.30       1.0  T
   5   -260.2783756 -0.736089E-05  0.645E-03    1.30       1.3  T
   6   -260.2783824 -0.683192E-05  0.136E-03    1.30       6.1  T
   7   -260.2783826 -0.189726E-06  0.625E-04    1.30      13.2  T
   8   -260.2783826 -0.898774E-08  0.347E-04    1.30      23.8  T
     SCC iter.                  ...        0 min,  0.224 sec
     gradient                   ...        0 min,  0.040 sec
 * total energy  :  -256.1424329 Eh     change       -0.1729700E-02 Eh
   gradient norm :     0.0105173 Eh/α   predicted    -0.1860768E-02 (   7.58%)
   displ. norm   :     0.8758108 α      lambda       -0.1918956E-02
   maximum displ.:     0.5755832 α      in ANC's #15, #17, #12, ...

........................................................................
.............................. CYCLE   33 ..............................
........................................................................
   1   -260.2837546 -0.260284E+03  0.148E-01    1.29       0.0  T
   2   -260.2837738 -0.192602E-04  0.822E-02    1.29       1.0  T
   3   -260.2837449  0.289311E-04  0.181E-02    1.29       1.0  T
   4   -260.2837704 -0.255198E-04  0.106E-02    1.30       1.0  T
   5   -260.2837763 -0.591602E-05  0.582E-03    1.29       1.4  T
   6   -260.2837818 -0.552074E-05  0.147E-03    1.30       5.6  T
   7   -260.2837821 -0.257222E-06  0.615E-04    1.29      13.5  T
   8   -260.2837821 -0.878572E-08  0.352E-04    1.30      23.5  T
     SCC iter.                  ...        0 min,  0.256 sec
     gradient                   ...        0 min,  0.040 sec
 * total energy  :  -256.1441072 Eh     change       -0.1674329E-02 Eh
   gradient norm :     0.0073170 Eh/α   predicted    -0.1695446E-02 (   1.26%)
   displ. norm   :     0.8897653 α      lambda       -0.1668509E-02
   maximum displ.:     0.5920712 α      in ANC's #15, #17, #12, ...

........................................................................
.............................. CYCLE   34 ..............................
........................................................................
   1   -260.2912630 -0.260291E+03  0.148E-01    1.28       0.0  T
   2   -260.2912810 -0.180520E-04  0.816E-02    1.29       1.0  T
   3   -260.2912510  0.300452E-04  0.189E-02    1.29       1.0  T
   4   -260.2912818 -0.307856E-04  0.970E-03    1.29       1.0  T
   5   -260.2912841 -0.233468E-05  0.540E-03    1.29       1.5  T
   6   -260.2912890 -0.491032E-05  0.146E-03    1.29       5.7  T
   7   -260.2912893 -0.282580E-06  0.575E-04    1.29      14.4  T
   8   -260.2912893 -0.888446E-08  0.329E-04    1.29      25.1  T
     SCC iter.                  ...        0 min,  0.232 sec
     gradient                   ...        0 min,  0.040 sec
 * total energy  :  -256.1456193 Eh     change       -0.1512055E-02 Eh
   gradient norm :     0.0062198 Eh/α   predicted    -0.1494720E-02 (  -1.15%)
   displ. norm   :     0.9173689 α      lambda       -0.1573490E-02
   maximum displ.:     0.6096482 α      in ANC's #15, #17, #9, ...

........................................................................
.............................. CYCLE   35 ..............................
........................................................................
   1   -260.2914175 -0.260291E+03  0.151E-01    1.28       0.0  T
   2   -260.2914360 -0.184909E-04  0.836E-02    1.29       1.0  T
   3   -260.2914050  0.309887E-04  0.189E-02    1.28       1.0  T
   4   -260.2914362 -0.311486E-04  0.995E-03    1.29       1.0  T
   5   -260.2914386 -0.245585E-05  0.580E-03    1.29       1.4  T
   6   -260.2914445 -0.585101E-05  0.135E-03    1.29       6.1  T
   7   -260.2914447 -0.210202E-06  0.596E-04    1.29      13.9  T
   8   -260.2914447 -0.885893E-08  0.324E-04    1.29      25.6  T
     SCC iter.                  ...        0 min,  0.250 sec
     gradient                   ...        0 min,  0.046 sec
 * total energy  :  -256.1469518 Eh     change       -0.1332519E-02 Eh
   gradient norm :     0.0107241 Eh/α   predicted    -0.1448848E-02 (   8.73%)
   displ. norm   :     0.8702529 α      lambda       -0.1452275E-02
   maximum displ.:     0.5815556 α      in ANC's #15, #17, #9, ...

........................................................................
.............................. CYCLE   36 ..............................
........................................................................
   1   -260.2890440 -0.260289E+03  0.148E-01    1.28       0.0  T
   2   -260.2890647 -0.207053E-04  0.823E-02    1.28       1.0  T
   3   -260.2890425  0.221965E-04  0.175E-02    1.28       1.0  T
   4   -260.2890640 -0.214477E-04  0.989E-03    1.29       1.0  T
   5   -260.2890680 -0.403007E-05  0.524E-03    1.28       1.6  T
   6   -260.2890724 -0.437665E-05  0.158E-03    1.28       5.2  T
   7   -260.2890727 -0.315984E-06  0.663E-04    1.28      12.5  T
   8   -260.2890727 -0.175488E-07  0.365E-04    1.28      22.7  T
     SCC iter.                  ...        0 min,  0.221 sec
     gradient                   ...        0 min,  0.040 sec
 * total energy  :  -256.1481817 Eh     change       -0.1229880E-02 Eh
   gradient norm :     0.0088189 Eh/α   predicted    -0.1276078E-02 (   3.76%)
   displ. norm   :     0.8374228 α      lambda       -0.1329277E-02
   maximum displ.:     0.5689703 α      in ANC's #15, #9, #5, ...

........................................................................
.............................. CYCLE   37 ..............................
........................................................................
   1   -260.3053086 -0.260305E+03  0.138E-01    1.28       0.0  T
   2   -260.3053255 -0.169262E-04  0.757E-02    1.28       1.0  T
   3   -260.3053068  0.187463E-04  0.171E-02    1.28       1.0  T
   4   -260.3053295 -0.227633E-04  0.842E-03    1.28       1.0  T
   5   -260.3053324 -0.291108E-05  0.253E-03    1.28       3.3  T
   6   -260.3053331 -0.705434E-06  0.785E-04    1.28      10.5  T
     SCC iter.                  ...        0 min,  0.175 sec
     gradient                   ...        0 min,  0.040 sec
 * total energy  :  -256.1492490 Eh     change       -0.1067305E-02 Eh
   gradient norm :     0.0078633 Eh/α   predicted    -0.1130735E-02 (   5.94%)
   displ. norm   :     0.8794025 α      lambda       -0.1213172E-02
   maximum displ.:     0.5841705 α      in ANC's #15, #17, #9, ...

........................................................................
.............................. CYCLE   38 ..............................
........................................................................
   1   -260.2961291 -0.260296E+03  0.152E-01    1.27       0.0  T
   2   -260.2961494 -0.202590E-04  0.838E-02    1.28       1.0  T
   3   -260.2961231  0.262688E-04  0.195E-02    1.28       1.0  T
   4   -260.2961541 -0.309837E-04  0.918E-03    1.28       1.0  T
   5   -260.2961571 -0.305325E-05  0.305E-03    1.28       2.7  T
   6   -260.2961582 -0.106677E-05  0.127E-03    1.28       6.5  T
   7   -260.2961584 -0.168594E-06  0.741E-04    1.28      11.2  T
     SCC iter.                  ...        0 min,  0.198 sec
     gradient                   ...        0 min,  0.041 sec
 * total energy  :  -256.1502565 Eh     change       -0.1007445E-02 Eh
   gradient norm :     0.0076895 Eh/α   predicted    -0.1075690E-02 (   6.77%)
   displ. norm   :     0.8398315 α      lambda       -0.1017625E-02
   maximum displ.:     0.5597931 α      in ANC's #15, #9, #5, ...

........................................................................
.............................. CYCLE   39 ..............................
........................................................................
   1   -260.2980933 -0.260298E+03  0.143E-01    1.27       0.0  T
   2   -260.2981121 -0.188308E-04  0.786E-02    1.28       1.0  T
   3   -260.2980946  0.175829E-04  0.168E-02    1.28       1.0  T
   4   -260.2981147 -0.201135E-04  0.893E-03    1.28       1.0  T
   5   -260.2981182 -0.355032E-05  0.339E-03    1.28       2.4  T
   6   -260.2981197 -0.147885E-05  0.128E-03    1.28       6.4  T
   7   -260.2981199 -0.189046E-06  0.688E-04    1.28      12.0  T
     SCC iter.                  ...        0 min,  0.201 sec
     gradient                   ...        0 min,  0.041 sec
 * total energy  :  -256.1511079 Eh     change       -0.8514515E-03 Eh
   gradient norm :     0.0088665 Eh/α   predicted    -0.8676926E-03 (   1.91%)
   displ. norm   :     0.8285386 α      lambda       -0.9889526E-03
   maximum displ.:     0.5422878 α      in ANC's #15, #9, #11, ...

........................................................................
.............................. CYCLE   40 ..............................
........................................................................
   1   -260.2989314 -0.260299E+03  0.143E-01    1.27       0.0  T
   2   -260.2989561 -0.246838E-04  0.790E-02    1.28       1.0  T
   3   -260.2989337  0.223162E-04  0.183E-02    1.28       1.0  T
   4   -260.2989614 -0.276340E-04  0.893E-03    1.28       1.0  T
   5   -260.2989648 -0.337920E-05  0.305E-03    1.28       2.7  T
   6   -260.2989657 -0.945677E-06  0.108E-03    1.28       7.7  T
   7   -260.2989658 -0.608381E-07  0.603E-04    1.28      13.7  T
     SCC iter.                  ...        0 min,  0.193 sec
     gradient                   ...        0 min,  0.041 sec
 * total energy  :  -256.1518650 Eh     change       -0.7571263E-03 Eh
   gradient norm :     0.0122633 Eh/α   predicted    -0.8339267E-03 (  10.14%)
   displ. norm   :     0.7528013 α      lambda       -0.9789432E-03
   maximum displ.:     0.4708086 α      in ANC's #15, #9, #5, ...

........................................................................
.............................. CYCLE   41 ..............................
........................................................................
   1   -260.3085728 -0.260309E+03  0.134E-01    1.28       0.0  T
   2   -260.3085957 -0.228966E-04  0.734E-02    1.28       1.0  T
   3   -260.3085663  0.294788E-04  0.188E-02    1.28       1.0  T
   4   -260.3085992 -0.329229E-04  0.897E-03    1.28       1.0  T
   5   -260.3086003 -0.112567E-05  0.545E-03    1.28       1.5  T
   6   -260.3086045 -0.422340E-05  0.182E-03    1.28       4.5  T
   7   -260.3086050 -0.452914E-06  0.717E-04    1.28      11.5  T
   8   -260.3086050 -0.240199E-07  0.411E-04    1.28      20.1  T
     SCC iter.                  ...        0 min,  0.244 sec
     gradient                   ...        0 min,  0.041 sec
 * total energy  :  -256.1525482 Eh     change       -0.6831994E-03 Eh
   gradient norm :     0.0110144 Eh/α   predicted    -0.7668640E-03 (  12.25%)
   displ. norm   :     0.7436499 α      lambda       -0.8633485E-03
   maximum displ.:     0.4629672 α      in ANC's #15, #9, #11, ...

........................................................................
.............................. CYCLE   42 ..............................
........................................................................
   1   -260.3123362 -0.260312E+03  0.139E-01    1.28       0.0  T
   2   -260.3123697 -0.334962E-04  0.758E-02    1.28       1.0  T
   3   -260.3123305  0.392127E-04  0.220E-02    1.28       1.0  T
   4   -260.3123748 -0.443077E-04  0.102E-02    1.28       1.0  T
   5   -260.3123752 -0.337702E-06  0.666E-03    1.28       1.2  T
   6   -260.3123814 -0.627356E-05  0.215E-03    1.28       3.9  T
   7   -260.3123820 -0.562512E-06  0.877E-04    1.28       9.4  T
   8   -260.3123821 -0.490062E-07  0.479E-04    1.28      17.3  T
     SCC iter.                  ...        0 min,  0.234 sec
     gradient                   ...        0 min,  0.041 sec
 * total energy  :  -256.1530603 Eh     change       -0.5121037E-03 Eh
   gradient norm :     0.0156719 Eh/α   predicted    -0.6703987E-03 (  30.91%)
   displ. norm   :     0.6812542 α      lambda       -0.8978791E-03
   maximum displ.:     0.4254772 α      in ANC's #15, #9, #5, ...
 * RMSD in coord.:     1.4430699 α      energy gain  -0.3696634E-01 Eh

generating ANC from model Hessian ...
Using Lindh-Hessian (1995)
 Shifting diagonal of input Hessian by   5.017999439620555E-003
 Lowest  eigenvalues of input Hessian
    0.005000    0.005016   -0.000000   -0.000000   -0.000000   -0.000000
    0.000000    0.000000    0.005022    0.005074    0.005085    0.005103
    0.005112    0.005132    0.005192    0.005226    0.005256    0.005288
 Highest eigenvalues
    2.207776    2.208350    2.217082    2.218673    2.234241    2.234293
 

........................................................................
.............................. CYCLE   43 ..............................
........................................................................
   1   -260.2998460 -0.260300E+03  0.124E-01    1.28       0.0  T
   2   -260.2998647 -0.186725E-04  0.677E-02    1.28       1.0  T
   3   -260.2998441  0.206035E-04  0.161E-02    1.28       1.0  T
   4   -260.2998653 -0.212293E-04  0.855E-03    1.28       1.0  T
   5   -260.2998672 -0.188664E-05  0.507E-03    1.28       1.6  T
   6   -260.2998712 -0.400463E-05  0.152E-03    1.28       5.4  T
   7   -260.2998715 -0.308412E-06  0.596E-04    1.28      13.9  T
   8   -260.2998715 -0.170476E-07  0.326E-04    1.28      25.4  T
     SCC iter.                  ...        0 min,  0.239 sec
     gradient                   ...        0 min,  0.043 sec
 * total energy  :  -256.1535513 Eh     change       -0.4910109E-03 Eh
   gradient norm :     0.0105438 Eh/α   predicted     0.0000000E+00 (-100.00%)
   displ. norm   :     0.1570596 α      lambda       -0.3777827E-03
   maximum displ.:     0.0702426 α      in ANC's #11, #14, #4, ...

........................................................................
.............................. CYCLE   44 ..............................
........................................................................
   1   -260.3083287 -0.260308E+03  0.388E-02    1.29       0.0  T
   2   -260.3083310 -0.226769E-05  0.215E-02    1.28       1.0  T
   3   -260.3083268  0.415227E-05  0.633E-03    1.29       1.3  T
   4   -260.3083316 -0.480664E-05  0.259E-03    1.28       3.2  T
   5   -260.3083318 -0.159165E-06  0.137E-03    1.28       6.0  T
   6   -260.3083320 -0.224863E-06  0.610E-04    1.28      13.6  T
     SCC iter.                  ...        0 min,  0.182 sec
     gradient                   ...        0 min,  0.041 sec
 * total energy  :  -256.1538285 Eh     change       -0.2771871E-03 Eh
   gradient norm :     0.0037029 Eh/α   predicted    -0.1935508E-03 ( -30.17%)
   displ. norm   :     0.1535808 α      lambda       -0.1903106E-03
   maximum displ.:     0.0620253 α      in ANC's #11, #14, #41, ...

........................................................................
.............................. CYCLE   45 ..............................
........................................................................
   1   -260.3127850 -0.260313E+03  0.393E-02    1.29       0.0  T
   2   -260.3127870 -0.200839E-05  0.218E-02    1.29       1.0  T
   3   -260.3127834  0.360231E-05  0.591E-03    1.29       1.4  T
   4   -260.3127876 -0.416497E-05  0.266E-03    1.29       3.1  T
   5   -260.3127878 -0.244963E-06  0.126E-03    1.29       6.5  T
   6   -260.3127880 -0.203400E-06  0.574E-04    1.29      14.4  T
   7   -260.3127881 -0.422605E-07  0.252E-04    1.29      32.9  T
     SCC iter.                  ...        0 min,  0.206 sec
     gradient                   ...        0 min,  0.043 sec
 * total energy  :  -256.1539832 Eh     change       -0.1546480E-03 Eh
   gradient norm :     0.0027649 Eh/α   predicted    -0.9740023E-04 ( -37.02%)
   displ. norm   :     0.3675716 α      lambda       -0.3255083E-03
   maximum displ.:     0.1492517 α      in ANC's #11, #14, #4, ...

........................................................................
.............................. CYCLE   46 ..............................
........................................................................
   1   -260.3158501 -0.260316E+03  0.856E-02    1.29       0.0  T
   2   -260.3158576 -0.750200E-05  0.488E-02    1.29       1.0  T
   3   -260.3158404  0.171871E-04  0.123E-02    1.29       1.0  T
   4   -260.3158608 -0.203919E-04  0.477E-03    1.29       1.7  T
   5   -260.3158618 -0.102192E-05  0.175E-03    1.29       4.7  T
   6   -260.3158620 -0.238896E-06  0.876E-04    1.29       9.4  T
   7   -260.3158621 -0.433698E-07  0.583E-04    1.29      14.2  T
     SCC iter.                  ...        0 min,  0.211 sec
     gradient                   ...        0 min,  0.043 sec
 * total energy  :  -256.1542389 Eh     change       -0.2557034E-03 Eh
   gradient norm :     0.0072783 Eh/α   predicted    -0.1847593E-03 ( -27.74%)
   displ. norm   :     0.4765398 α      lambda       -0.3407841E-03
   maximum displ.:     0.1992933 α      in ANC's #11, #14, #4, ...

........................................................................
.............................. CYCLE   47 ..............................
........................................................................
   1   -260.3148910 -0.260315E+03  0.111E-01    1.30       0.0  T
   2   -260.3149030 -0.120217E-04  0.629E-02    1.29       1.0  T
   3   -260.3148756  0.273975E-04  0.162E-02    1.30       1.0  T
   4   -260.3149067 -0.311167E-04  0.695E-03    1.29       1.2  T
   5   -260.3149070 -0.213751E-06  0.450E-03    1.30       1.8  T
   6   -260.3149101 -0.313740E-05  0.138E-03    1.30       6.0  T
   7   -260.3149103 -0.197449E-06  0.680E-04    1.30      12.2  T
   8   -260.3149103 -0.172151E-07  0.333E-04    1.30      24.9  T
     SCC iter.                  ...        0 min,  0.242 sec
     gradient                   ...        0 min,  0.041 sec
 * total energy  :  -256.1545234 Eh     change       -0.2845678E-03 Eh
   gradient norm :     0.0097110 Eh/α   predicted    -0.2090876E-03 ( -26.52%)
   displ. norm   :     0.5577554 α      lambda       -0.4006018E-03
   maximum displ.:     0.2405628 α      in ANC's #11, #14, #4, ...

........................................................................
.............................. CYCLE   48 ..............................
........................................................................
   1   -260.3114871 -0.260311E+03  0.124E-01    1.30       0.0  T
   2   -260.3115007 -0.135903E-04  0.705E-02    1.30       1.0  T
   3   -260.3114480  0.527239E-04  0.206E-02    1.31       1.0  T
   4   -260.3115040 -0.560098E-04  0.830E-03    1.30       1.0  T
   5   -260.3115048 -0.789648E-06  0.596E-03    1.30       1.4  T
   6   -260.3115101 -0.538735E-05  0.142E-03    1.30       5.8  T
   7   -260.3115103 -0.169867E-06  0.735E-04    1.30      11.3  T
   8   -260.3115103 -0.154575E-07  0.371E-04    1.30      22.3  T
     SCC iter.                  ...        0 min,  0.240 sec
     gradient                   ...        0 min,  0.041 sec
 * total energy  :  -256.1548630 Eh     change       -0.3395335E-03 Eh
   gradient norm :     0.0086061 Eh/α   predicted    -0.2626244E-03 ( -22.65%)
   displ. norm   :     0.5821585 α      lambda       -0.4353389E-03
   maximum displ.:     0.2621056 α      in ANC's #11, #14, #4, ...

........................................................................
.............................. CYCLE   49 ..............................
........................................................................
   1   -260.3085480 -0.260309E+03  0.125E-01    1.31       0.0  T
   2   -260.3085613 -0.132859E-04  0.710E-02    1.30       1.0  T
   3   -260.3084753  0.860299E-04  0.249E-02    1.32       1.0  T
   4   -260.3085652 -0.899172E-04  0.905E-03    1.30       1.0  T
   5   -260.3085678 -0.260124E-05  0.614E-03    1.31       1.3  T
   6   -260.3085729 -0.510681E-05  0.145E-03    1.31       5.7  T
   7   -260.3085731 -0.178763E-06  0.730E-04    1.31      11.3  T
   8   -260.3085731 -0.140254E-07  0.384E-04    1.31      21.5  T
     SCC iter.                  ...        0 min,  0.239 sec
     gradient                   ...        0 min,  0.041 sec
 * total energy  :  -256.1552218 Eh     change       -0.3588562E-03 Eh
   gradient norm :     0.0053513 Eh/α   predicted    -0.2914595E-03 ( -18.78%)
   displ. norm   :     0.5951576 α      lambda       -0.3835226E-03
   maximum displ.:     0.2788501 α      in ANC's #11, #14, #4, ...

........................................................................
.............................. CYCLE   50 ..............................
........................................................................
   1   -260.3073069 -0.260307E+03  0.122E-01    1.31       0.0  T
   2   -260.3073174 -0.104992E-04  0.694E-02    1.31       1.0  T
   3   -260.3072187  0.987225E-04  0.259E-02    1.32       1.0  T
   4   -260.3073218 -0.103065E-03  0.879E-03    1.31       1.0  T
   5   -260.3073250 -0.320930E-05  0.577E-03    1.31       1.4  T
   6   -260.3073292 -0.416977E-05  0.138E-03    1.31       6.0  T
   7   -260.3073293 -0.152407E-06  0.710E-04    1.31      11.7  T
   8   -260.3073293 -0.110656E-07  0.366E-04    1.31      22.6  T
     SCC iter.                  ...        0 min,  0.239 sec
     gradient                   ...        0 min,  0.041 sec
 * total energy  :  -256.1555402 Eh     change       -0.3183986E-03 Eh
   gradient norm :     0.0056351 Eh/α   predicted    -0.2596900E-03 ( -18.44%)
   displ. norm   :     0.6008990 α      lambda       -0.3570947E-03
   maximum displ.:     0.2910120 α      in ANC's #11, #14, #4, ...

........................................................................
.............................. CYCLE   51 ..............................
........................................................................
   1   -260.3087199 -0.260309E+03  0.120E-01    1.31       0.0  T
   2   -260.3087297 -0.980850E-05  0.678E-02    1.31       1.0  T
   3   -260.3086376  0.921568E-04  0.247E-02    1.32       1.0  T
   4   -260.3087324 -0.948264E-04  0.901E-03    1.31       1.0  T
   5   -260.3087367 -0.432746E-05  0.543E-03    1.31       1.5  T
   6   -260.3087403 -0.358017E-05  0.127E-03    1.31       6.5  T
   7   -260.3087404 -0.135250E-06  0.648E-04    1.31      12.8  T
   8   -260.3087404 -0.844534E-08  0.346E-04    1.31      23.9  T
     SCC iter.                  ...        0 min,  0.240 sec
     gradient                   ...        0 min,  0.041 sec
 * total energy  :  -256.1558425 Eh     change       -0.3022587E-03 Eh
   gradient norm :     0.0067787 Eh/α   predicted    -0.2430194E-03 ( -19.60%)
   displ. norm   :     0.6567146 α      lambda       -0.3570637E-03
   maximum displ.:     0.3234088 α      in ANC's #11, #14, #15, ...

........................................................................
.............................. CYCLE   52 ..............................
........................................................................
   1   -260.3089788 -0.260309E+03  0.130E-01    1.31       0.0  T
   2   -260.3089903 -0.115915E-04  0.740E-02    1.31       1.0  T
   3   -260.3088999  0.904850E-04  0.246E-02    1.32       1.0  T
   4   -260.3089915 -0.916528E-04  0.984E-03    1.31       1.0  T
   5   -260.3089977 -0.614252E-05  0.561E-03    1.31       1.5  T
   6   -260.3090016 -0.389926E-05  0.133E-03    1.31       6.2  T
   7   -260.3090017 -0.126282E-06  0.745E-04    1.31      11.1  T
   8   -260.3090017 -0.161873E-07  0.365E-04    1.31      22.7  T
     SCC iter.                  ...        0 min,  0.235 sec
     gradient                   ...        0 min,  0.041 sec
 * total energy  :  -256.1561402 Eh     change       -0.2976992E-03 Eh
   gradient norm :     0.0073974 Eh/α   predicted    -0.2555817E-03 ( -14.15%)
   displ. norm   :     0.6317477 α      lambda       -0.4307269E-03
   maximum displ.:     0.3208123 α      in ANC's #11, #4, #15, ...

........................................................................
.............................. CYCLE   53 ..............................
........................................................................
   1   -260.3180583 -0.260318E+03  0.123E-01    1.31       0.0  T
   2   -260.3180733 -0.149317E-04  0.679E-02    1.31       1.0  T
   3   -260.3180118  0.614836E-04  0.213E-02    1.32       1.0  T
   4   -260.3180699 -0.580709E-04  0.103E-02    1.31       1.0  T
   5   -260.3180788 -0.893698E-05  0.513E-03    1.32       1.6  T
   6   -260.3180819 -0.313725E-05  0.130E-03    1.31       6.4  T
   7   -260.3180821 -0.172874E-06  0.573E-04    1.31      14.4  T
   8   -260.3180821 -0.120073E-07  0.337E-04    1.31      24.6  T
     SCC iter.                  ...        0 min,  0.228 sec
     gradient                   ...        0 min,  0.041 sec
 * total energy  :  -256.1564131 Eh     change       -0.2729404E-03 Eh
   gradient norm :     0.0101261 Eh/α   predicted    -0.3013264E-03 (  10.40%)
   displ. norm   :     0.6773275 α      lambda       -0.3449372E-03
   maximum displ.:     0.3397238 α      in ANC's #11, #14, #4, ...

........................................................................
.............................. CYCLE   54 ..............................
........................................................................
   1   -260.3117750 -0.260312E+03  0.135E-01    1.31       0.0  T
   2   -260.3117889 -0.138653E-04  0.763E-02    1.31       1.0  T
   3   -260.3117277  0.611494E-04  0.212E-02    1.32       1.0  T
   4   -260.3117865 -0.587905E-04  0.101E-02    1.31       1.0  T
   5   -260.3117941 -0.759112E-05  0.550E-03    1.31       1.5  T
   6   -260.3117982 -0.406279E-05  0.127E-03    1.31       6.5  T
   7   -260.3117983 -0.108727E-06  0.725E-04    1.31      11.4  T
   8   -260.3117983 -0.192603E-07  0.377E-04    1.31      22.0  T
     SCC iter.                  ...        0 min,  0.227 sec
     gradient                   ...        0 min,  0.048 sec
 * total energy  :  -256.1566726 Eh     change       -0.2594705E-03 Eh
   gradient norm :     0.0059315 Eh/α   predicted    -0.2515930E-03 (  -3.04%)
   displ. norm   :     0.5372244 α      lambda       -0.2589334E-03
   maximum displ.:     0.2808227 α      in ANC's #11, #4, #14, ...

........................................................................
.............................. CYCLE   55 ..............................
........................................................................
   1   -260.3126676 -0.260313E+03  0.102E-01    1.31       0.0  T
   2   -260.3126779 -0.102698E-04  0.573E-02    1.31       1.0  T
   3   -260.3126531  0.248251E-04  0.149E-02    1.31       1.0  T
   4   -260.3126770 -0.239070E-04  0.743E-03    1.31       1.1  T
   5   -260.3126797 -0.266628E-05  0.461E-03    1.31       1.8  T
   6   -260.3126829 -0.325327E-05  0.102E-03    1.31       8.1  T
   7   -260.3126830 -0.763739E-07  0.536E-04    1.31      15.4  T
   8   -260.3126830 -0.128434E-07  0.296E-04    1.31      27.9  T
     SCC iter.                  ...        0 min,  0.227 sec
     gradient                   ...        0 min,  0.041 sec
 * total energy  :  -256.1568709 Eh     change       -0.1982488E-03 Eh
   gradient norm :     0.0079653 Eh/α   predicted    -0.1668380E-03 ( -15.84%)
   displ. norm   :     0.5586161 α      lambda       -0.2894957E-03
   maximum displ.:     0.2944237 α      in ANC's #11, #4, #6, ...

........................................................................
.............................. CYCLE   56 ..............................
........................................................................
   1   -260.3125096 -0.260313E+03  0.104E-01    1.31       0.0  T
   2   -260.3125179 -0.832196E-05  0.585E-02    1.31       1.0  T
   3   -260.3125024  0.155370E-04  0.130E-02    1.31       1.0  T
   4   -260.3125191 -0.167167E-04  0.604E-03    1.31       1.4  T
   5   -260.3125197 -0.639094E-06  0.362E-03    1.31       2.3  T
   6   -260.3125218 -0.209781E-05  0.108E-03    1.31       7.7  T
   7   -260.3125220 -0.155031E-06  0.432E-04    1.31      19.2  T
     SCC iter.                  ...        0 min,  0.188 sec
     gradient                   ...        0 min,  0.041 sec
 * total energy  :  -256.1571002 Eh     change       -0.2293747E-03 Eh
   gradient norm :     0.0055248 Eh/α   predicted    -0.1899199E-03 ( -17.20%)
   displ. norm   :     0.5473928 α      lambda       -0.2768188E-03
   maximum displ.:     0.2909572 α      in ANC's #11, #6, #4, ...

........................................................................
.............................. CYCLE   57 ..............................
........................................................................
   1   -260.3166412 -0.260317E+03  0.991E-02    1.31       0.0  T
   2   -260.3166498 -0.866813E-05  0.552E-02    1.31       1.0  T
   3   -260.3166422  0.764342E-05  0.112E-02    1.31       1.0  T
   4   -260.3166514 -0.921344E-05  0.560E-03    1.31       1.5  T
   5   -260.3166528 -0.144634E-05  0.191E-03    1.31       4.3  T
   6   -260.3166532 -0.389028E-06  0.857E-04    1.31       9.7  T
     SCC iter.                  ...        0 min,  0.160 sec
     gradient                   ...        0 min,  0.041 sec
 * total energy  :  -256.1572996 Eh     change       -0.1993584E-03 Eh
   gradient norm :     0.0057615 Eh/α   predicted    -0.1798827E-03 (  -9.77%)
   displ. norm   :     0.7108507 α      lambda       -0.2438234E-03
   maximum displ.:     0.3867246 α      in ANC's #11, #4, #6, ...

........................................................................
.............................. CYCLE   58 ..............................
........................................................................
   1   -260.3110771 -0.260311E+03  0.126E-01    1.31       0.0  T
   2   -260.3110869 -0.978369E-05  0.714E-02    1.31       1.0  T
   3   -260.3110681  0.187421E-04  0.141E-02    1.31       1.0  T
   4   -260.3110861 -0.180057E-04  0.756E-03    1.31       1.1  T
   5   -260.3110884 -0.224941E-05  0.474E-03    1.31       1.7  T
   6   -260.3110920 -0.365502E-05  0.103E-03    1.31       8.1  T
   7   -260.3110921 -0.844154E-07  0.571E-04    1.31      14.5  T
   8   -260.3110921 -0.695923E-08  0.266E-04    1.31      31.1  T
     SCC iter.                  ...        0 min,  0.217 sec
     gradient                   ...        0 min,  0.041 sec
 * total energy  :  -256.1574816 Eh     change       -0.1820339E-03 Eh
   gradient norm :     0.0057284 Eh/α   predicted    -0.1835195E-03 (   0.82%)
   displ. norm   :     0.5170194 α      lambda       -0.2107095E-03
   maximum displ.:     0.2863984 α      in ANC's #11, #6, #4, ...

........................................................................
.............................. CYCLE   59 ..............................
........................................................................
   1   -260.3140464 -0.260314E+03  0.847E-02    1.31       0.0  T
   2   -260.3140518 -0.544035E-05  0.477E-02    1.31       1.0  T
   3   -260.3140430  0.885417E-05  0.105E-02    1.31       1.0  T
   4   -260.3140529 -0.997268E-05  0.490E-03    1.31       1.7  T
   5   -260.3140535 -0.544128E-06  0.258E-03    1.31       3.2  T
   6   -260.3140545 -0.104562E-05  0.849E-04    1.31       9.7  T
     SCC iter.                  ...        0 min,  0.160 sec
     gradient                   ...        0 min,  0.041 sec
[...]
    11  O   2.065        C   10 1.804
    12  C   3.989        C   13 1.388    C   17 1.386    C   10 1.002    C   15 0.104
    13  C   3.987        C   14 1.450    C   12 1.388    H  102 0.967    C   16 0.109
    14  C   3.990        C   13 1.450    C   15 1.433    H  103 0.970    C   17 0.108
    15  C   3.991        C   16 1.436    C   14 1.433    H  104 0.971    C   12 0.104
    16  C   3.992        C   17 1.447    C   15 1.436    H  105 0.971    C   13 0.109
    17  C   3.992        C   16 1.447    C   12 1.386    H  106 0.969    C   14 0.108
    18  C   3.988        C   19 1.463    C    2 1.378    H  107 0.961
    19  C   3.991        C   18 1.463    C   20 1.381    H  108 0.967    C    1 0.101
    20  C   3.985        C   19 1.381    C   21 1.379    C   22 1.039
    21  C   3.989        C    1 1.470    C   20 1.379    H  109 0.968
    22  C   3.985        C   42 1.425    C   23 1.325    C   20 1.039
    23  C   3.962        C   39 1.371    C   22 1.325    C   24 1.016
    24  C   3.923        O   25 1.776    C   23 1.016    C   26 1.013
    25  O   2.046        C   24 1.776
    26  C   3.980        C   27 1.554    C   30 1.192    C   24 1.013
    27  C   3.952        C   26 1.554    S   28 1.228    H  110 0.969
    28  S   2.696        C   27 1.228    C   29 1.204
    29  C   3.950        C   30 1.587    S   28 1.204    H  111 0.968
    30  C   3.981        C   29 1.587    C   26 1.192    C   31 0.992
    31  C   3.928        O   32 1.779    C   33 1.039    C   30 0.992
    32  O   2.051        C   31 1.779
    33  C   3.989        C   38 1.375    C   34 1.371    C   31 1.039
    34  C   3.991        C   35 1.460    C   33 1.371    H  112 0.967    C   37 0.106
    35  C   3.992        C   34 1.460    C   36 1.427    H  113 0.970    C   38 0.105
    36  C   3.990        C   37 1.433    C   35 1.427    H  114 0.970
    37  C   3.991        C   38 1.454    C   36 1.433    H  115 0.970    C   34 0.106
    38  C   3.987        C   37 1.454    C   33 1.375    H  116 0.967    C   35 0.105
    39  C   3.984        C   40 1.477    C   23 1.371    H  117 0.962
    40  C   3.969        C   39 1.477    C   41 1.341    H  118 0.963
    41  C   3.983        C   42 1.364    C   40 1.341    C   43 1.106
    42  C   3.966        C   22 1.425    C   41 1.364    H  119 0.959
    43  C   3.923        C   44 1.542    C   41 1.106    S   48 1.059
    44  C   3.975        C   43 1.542    C   45 1.285    H  120 0.943
    45  C   3.965        C   54 1.390    C   44 1.285    C   46 1.048
    46  C   3.985        C   47 1.588    C   49 1.179    C   45 1.048
    47  C   3.948        C   46 1.588    S   48 1.180    H  121 0.959
    48  S   2.566        C   47 1.180    C   43 1.059
    49  C   3.922        C   50 1.351    C   46 1.179    S   53 1.145
    50  C   3.976        C   49 1.351    C   51 1.241    C   54 1.151
    51  C   3.976        C   52 1.640    C   50 1.241    H  122 0.949
    52  C   3.925        C   51 1.640    S   53 1.164    H  123 0.970
    53  S   2.578        C   52 1.164    C   49 1.145
    54  C   3.953        C   45 1.390    C   50 1.151    C   55 1.149
    55  C   3.989        C   56 1.723    C   54 1.149    H  124 0.949
    56  C   3.945        C   55 1.723    C   57 1.112    H  125 0.955
    57  C   3.985        C   77 1.368    C   58 1.318    C   56 1.112
    58  C   3.968        C   74 1.400    C   57 1.318    C   59 1.002
    59  C   3.928        O   60 1.773    C   61 1.030    C   58 1.002
    60  O   2.076        C   59 1.773
    61  C   3.979        C   62 1.540    C   65 1.185    C   59 1.030
    62  C   3.958        C   61 1.540    S   63 1.245    H  126 0.966    C   64 0.101
    63  S   2.682        C   62 1.245    C   64 1.171
    64  C   3.946        C   65 1.624    S   63 1.171    H  127 0.969    C   62 0.101
    65  C   3.985        C   64 1.624    C   61 1.185    C   66 0.967
    66  C   3.925        O   67 1.805    C   68 1.026    C   65 0.967
    67  O   2.073        C   66 1.805
    68  C   3.988        C   73 1.379    C   69 1.374    C   66 1.026    C   71 0.101
    69  C   3.986        C   70 1.457    C   68 1.374    H  128 0.966    C   72 0.106
    70  C   3.991        C   69 1.457    C   71 1.432    H  129 0.970    C   73 0.106
    71  C   3.990        C   70 1.432    C   72 1.430    H  130 0.971    C   68 0.101
    72  C   3.993        C   73 1.458    C   71 1.430    H  131 0.971    C   69 0.106
    73  C   3.992        C   72 1.458    C   68 1.379    H  132 0.967    C   70 0.106
    74  C   3.987        C   75 1.443    C   58 1.400    H  133 0.968
    75  C   3.975        C   74 1.443    C   76 1.381    H  134 0.968
    76  C   3.987        C   77 1.420    C   75 1.381    C   78 1.016
    77  C   3.977        C   76 1.420    C   57 1.368    H  135 0.963
    78  C   3.984        C   98 1.403    C   79 1.353    C   76 1.016    C   96 0.104
    79  C   3.987        C   95 1.387    C   78 1.353    C   80 1.004    C   97 0.102
    80  C   3.931        O   81 1.804    C   82 1.012    C   79 1.004
    81  O   2.065        C   80 1.804
    82  C   3.981        C   83 1.561    C   86 1.189    C   80 1.012
    83  C   3.953        C   82 1.561    S   84 1.227    H  136 0.967
    84  S   2.687        C   83 1.227    C   85 1.196
    85  C   3.949        C   86 1.589    S   84 1.196    H  137 0.969
    86  C   3.983        C   85 1.589    C   82 1.189    C   87 0.990
    87  C   3.928        O   88 1.783    C   89 1.034    C   86 0.990
    88  O   2.057        C   87 1.783
    89  C   3.987        C   90 1.377    C   94 1.371    C   87 1.034
    90  C   3.991        C   91 1.457    C   89 1.377    H  138 0.965    C   93 0.106
    91  C   3.992        C   90 1.457    C   92 1.432    H  139 0.970    C   94 0.104
    92  C   3.988        C   91 1.432    C   93 1.426    H  140 0.969
    93  C   3.986        C   94 1.461    C   92 1.426    H  141 0.961    C   90 0.106
    94  C   3.987        C   93 1.461    C   89 1.371    H  142 0.961    C   91 0.104
    95  C   3.991        C   96 1.450    C   79 1.387    H  143 0.968    C   98 0.107
    96  C   3.990        C   95 1.450    C   97 1.427    H  144 0.970    C   78 0.104
    97  C   3.990        C   98 1.445    C   96 1.427    H  145 0.970    C   79 0.102
    98  C   3.989        C   97 1.445    C   78 1.403    H  146 0.969    C   95 0.107
    99  H   0.995        C    1 0.964
   100  H   0.992        C    6 0.958
   101  H   0.995        C    8 0.967
   102  H   0.997        C   13 0.967
   103  H   0.998        C   14 0.970
   104  H   0.998        C   15 0.971
   105  H   0.998        C   16 0.971
   106  H   0.999        C   17 0.969
   107  H   0.996        C   18 0.961
   108  H   0.998        C   19 0.967
   109  H   0.998        C   21 0.968
   110  H   0.996        C   27 0.969
   111  H   0.995        C   29 0.968
   112  H   0.999        C   34 0.967
   113  H   0.998        C   35 0.970
   114  H   0.998        C   36 0.970
   115  H   0.998        C   37 0.970
   116  H   0.997        C   38 0.967
   117  H   0.996        C   39 0.962
   118  H   0.997        C   40 0.963
   119  H   0.997        C   42 0.959
   120  H   0.996        C   44 0.943
   121  H   0.995        C   47 0.959
   122  H   0.994        C   51 0.949
   123  H   0.997        C   52 0.970
   124  H   0.993        C   55 0.949
   125  H   0.998        C   56 0.955
   126  H   0.995        C   62 0.966
   127  H   0.996        C   64 0.969
   128  H   0.996        C   69 0.966
   129  H   0.998        C   70 0.970
   130  H   0.998        C   71 0.971
   131  H   0.998        C   72 0.971
   132  H   0.999        C   73 0.967
   133  H   0.996        C   74 0.968
   134  H   0.997        C   75 0.968
   135  H   0.996        C   77 0.963
   136  H   0.995        C   83 0.967
   137  H   0.996        C   85 0.969
   138  H   0.999        C   90 0.965
   139  H   0.998        C   91 0.970
   140  H   0.998        C   92 0.969
   141  H   0.994        C   93 0.961
   142  H   0.997        C   94 0.961
   143  H   0.998        C   95 0.968
   144  H   0.998        C   96 0.970
   145  H   0.997        C   97 0.970
   146  H   0.998        C   98 0.969

molecular dipole:
                 x           y           z       tot (Debye)
 q only:        0.808       3.125       1.887
   full:        0.615       3.489       2.546      11.089
molecular quadrupole (traceless):
                xx          xy          yy          xz          yz          zz
 q only:       47.641     -55.739      10.807     -10.146     -26.387     -58.447
  q+dip:       42.853     -55.190      12.147     -23.289     -33.759     -55.000
   full:       55.159     -62.290       6.362     -22.922     -32.947     -61.521

           -------------------------------------------------
          |                Geometry Summary                 |
           -------------------------------------------------

      molecular mass/u    :     1377.6584000
   center of mass at/Å    :       -4.7886213      -4.1097497       0.7310431
  moments of inertia/u·Å² :        0.2322168E+05   0.6059698E+05   0.7619587E+05
rotational constants/cm⁻¹ :        0.7259439E-03   0.2781926E-03   0.2212408E-03

 * 138 selected distances

     #   Z        #   Z                                     value/Å
     1   6 C      2   6 C                                 1.3959341
     3   6 C      4   8 O                                 1.2140272
     5   6 C      6   6 C                                 1.3608794
     6   6 C      7  16 S                                 1.7212422
     7  16 S      8   6 C                                 1.7119172
     5   6 C      9   6 C                                 1.4334261
     8   6 C      9   6 C                                 1.3649675
    10   6 C     11   8 O                                 1.2120715
    12   6 C     13   6 C                                 1.3913368
    13   6 C     14   6 C                                 1.3818294
    14   6 C     15   6 C                                 1.3859687
    15   6 C     16   6 C                                 1.3846962
    12   6 C     17   6 C                                 1.3924445
    16   6 C     17   6 C                                 1.3829060
     2   6 C     18   6 C                                 1.3926640
    18   6 C     19   6 C                                 1.3801664
    19   6 C     20   6 C                                 1.3933811
     1   6 C     21   6 C                                 1.3768357
    20   6 C     21   6 C                                 1.3931534
    22   6 C     23   6 C                                 1.4024348
    24   6 C     25   8 O                                 1.2153113
    26   6 C     27   6 C                                 1.3680497
    27   6 C     28  16 S                                 1.7098854
    28  16 S     29   6 C                                 1.7142475
    26   6 C     30   6 C                                 1.4314457
    29   6 C     30   6 C                                 1.3623432
    31   6 C     32   8 O                                 1.2165301
    33   6 C     34   6 C                                 1.3940846
    34   6 C     35   6 C                                 1.3806412
    35   6 C     36   6 C                                 1.3868231
    36   6 C     37   6 C                                 1.3854757
    33   6 C     38   6 C                                 1.3944964
    37   6 C     38   6 C                                 1.3807050
    23   6 C     39   6 C                                 1.3926879
    39   6 C     40   6 C                                 1.3755179
    40   6 C     41   6 C                                 1.4013110
    22   6 C     42   6 C                                 1.3855430
    41   6 C     42   6 C                                 1.3966910
    43   6 C     44   6 C                                 1.3641527
    44   6 C     45   6 C                                 1.4008407
    46   6 C     47   6 C                                 1.3493282
    47   6 C     48  16 S                                 1.7174883
    46   6 C     49   6 C                                 1.4202442
    49   6 C     50   6 C                                 1.3984425
    50   6 C     51   6 C                                 1.4126109
    51   6 C     52   6 C                                 1.3577058
    49   6 C     53  16 S                                 1.7187744
    52   6 C     53  16 S                                 1.7347943 (max)
    45   6 C     54   6 C                                 1.3957636
    50   6 C     54   6 C                                 1.4365084
    54   6 C     55   6 C                                 1.4341690
    55   6 C     56   6 C                                 1.3442094
    57   6 C     58   6 C                                 1.4042427
    59   6 C     60   8 O                                 1.2158606
    61   6 C     62   6 C                                 1.3676793
    62   6 C     63  16 S                                 1.7077710
    63  16 S     64   6 C                                 1.7271530
    61   6 C     65   6 C                                 1.4312414
    64   6 C     65   6 C                                 1.3545994
    66   6 C     67   8 O                                 1.2117842
    68   6 C     69   6 C                                 1.3941011
    69   6 C     70   6 C                                 1.3804748
    70   6 C     71   6 C                                 1.3862596
    71   6 C     72   6 C                                 1.3861347
    68   6 C     73   6 C                                 1.3937425
    72   6 C     73   6 C                                 1.3815610
    58   6 C     74   6 C                                 1.3906825
    74   6 C     75   6 C                                 1.3809946
    75   6 C     76   6 C                                 1.3907584
    57   6 C     77   6 C                                 1.3962151
    76   6 C     77   6 C                                 1.3841145
    78   6 C     79   6 C                                 1.3979702
    80   6 C     81   8 O                                 1.2118313
    82   6 C     83   6 C                                 1.3655790
    83   6 C     84  16 S                                 1.7105430
    84  16 S     85   6 C                                 1.7196183
    82   6 C     86   6 C                                 1.4324177
    85   6 C     86   6 C                                 1.3619058
    87   6 C     88   8 O                                 1.2158571
    89   6 C     90   6 C                                 1.3933479
    90   6 C     91   6 C                                 1.3823773
    91   6 C     92   6 C                                 1.3855603
    92   6 C     93   6 C                                 1.3873272
    89   6 C     94   6 C                                 1.3960285
    93   6 C     94   6 C                                 1.3796629
    79   6 C     95   6 C                                 1.3928874
    95   6 C     96   6 C                                 1.3823473
    96   6 C     97   6 C                                 1.3855704
    78   6 C     98   6 C                                 1.3901833
    97   6 C     98   6 C                                 1.3831826
     1   6 C     99   1 H                                 1.0796272
     6   6 C    100   1 H                                 1.0725609
     8   6 C    101   1 H                                 1.0719848
    13   6 C    102   1 H                                 1.0791447
    14   6 C    103   1 H                                 1.0798003
    15   6 C    104   1 H                                 1.0801744
    16   6 C    105   1 H                                 1.0803893
    17   6 C    106   1 H                                 1.0808805
    18   6 C    107   1 H                                 1.0778919
    19   6 C    108   1 H                                 1.0811581
    21   6 C    109   1 H                                 1.0801966
    27   6 C    110   1 H                                 1.0726434
    29   6 C    111   1 H                                 1.0721266
    34   6 C    112   1 H                                 1.0802202
    35   6 C    113   1 H                                 1.0800259
    36   6 C    114   1 H                                 1.0805821
    37   6 C    115   1 H                                 1.0802195
    38   6 C    116   1 H                                 1.0799322
    39   6 C    117   1 H                                 1.0796818
    40   6 C    118   1 H                                 1.0783090
    42   6 C    119   1 H                                 1.0802676
    44   6 C    120   1 H                                 1.0802237
    47   6 C    121   1 H                                 1.0786821
    51   6 C    122   1 H                                 1.0752458
    52   6 C    123   1 H                                 1.0723606
    55   6 C    124   1 H                                 1.0821377
    56   6 C    125   1 H                                 1.0823396
    62   6 C    126   1 H                                 1.0720078
    64   6 C    127   1 H                                 1.0717070
    69   6 C    128   1 H                                 1.0794134
    70   6 C    129   1 H                                 1.0799934
    71   6 C    130   1 H                                 1.0802642
    72   6 C    131   1 H                                 1.0803499
    73   6 C    132   1 H                                 1.0806148
    74   6 C    133   1 H                                 1.0800342
    75   6 C    134   1 H                                 1.0786162
    77   6 C    135   1 H                                 1.0800765
    83   6 C    136   1 H                                 1.0716641 (min)
    85   6 C    137   1 H                                 1.0728119
    90   6 C    138   1 H                                 1.0796320
    91   6 C    139   1 H                                 1.0799260
    92   6 C    140   1 H                                 1.0796873
    93   6 C    141   1 H                                 1.0791125
    94   6 C    142   1 H                                 1.0794015
    95   6 C    143   1 H                                 1.0816654
    96   6 C    144   1 H                                 1.0795353
    97   6 C    145   1 H                                 1.0802783
    98   6 C    146   1 H                                 1.0805223

 * 4 distinct bonds (by element types)

   Z      Z             #   av. dist./Å        max./Å        min./Å
   1 H    6 C          48     1.0784608     1.0823396     1.0716641
   6 C    6 C          71     1.3887601     1.4365084     1.3442094
   6 C    8 O           8     1.2141592     1.2165301     1.2117842
   6 C   16 S          11     1.7175850     1.7347943     1.7077710


optimized geometry written to: xtbopt.xyz


           -------------------------------------------------
          | TOTAL ENERGY             -256.189926059133 Eh   |
          | GRADIENT NORM               0.003472382874 Eh/α |
          | HOMO-LUMO GAP               1.223586723649 eV   |
           -------------------------------------------------

------------------------------------------------------------------------
 * finished run on 2021/06/25 at 22:06:37.263     
------------------------------------------------------------------------
 total:
 * wall-time:     0 d,  0 h,  2 min, 29.519 sec
 *  cpu-time:     0 d,  0 h, 29 min, 52.812 sec
 * ratio c/w:    11.991 speedup
 SCF:
 * wall-time:     0 d,  0 h,  0 min,  0.496 sec
 *  cpu-time:     0 d,  0 h,  0 min,  5.895 sec
 * ratio c/w:    11.892 speedup
 ANC optimizer:
 * wall-time:     0 d,  0 h,  2 min, 28.844 sec
 *  cpu-time:     0 d,  0 h, 29 min, 45.506 sec
 * ratio c/w:    11.996 speedup

