
                                 *****************
                                 * O   R   C   A *
                                 *****************

           --- An Ab Initio, DFT and Semiempirical electronic structure package ---

                  #######################################################
                  #                        -***-                        #
                  #          Department of theory and spectroscopy      #
                  #               Directorship: Frank Neese             #
                  #        Max Planck Institute fuer Kohlenforschung    #
                  #                Kaiser Wilhelm Platz 1               #
                  #                 D-45470 Muelheim/Ruhr               #
                  #                      Germany                        #
                  #                                                     #
                  #                  All rights reserved                #
                  #                        -***-                        #
                  #######################################################


                         Program Version 4.2.0 -  RELEASE  -


 With contributions from (in alphabetic order):
   Daniel Aravena         : Magnetic Suceptibility
   Michael Atanasov       : Ab Initio Ligand Field Theory (pilot matlab implementation)
   Alexander A. Auer      : GIAO ZORA, VPT2
   Ute Becker             : Parallelization
   Giovanni Bistoni       : ED, misc. LED, open-shell LED, HFLED
   Martin Brehm           : Molecular dynamics
   Dmytro Bykov           : SCF Hessian
   Vijay G. Chilkuri      : MRCI spin determinant printing, contributions to CSF-ICE
   Dipayan Datta          : RHF DLPNO-CCSD density
   Achintya Kumar Dutta   : EOM-CC, STEOM-CC
   Dmitry Ganyushin       : Spin-Orbit,Spin-Spin,Magnetic field MRCI
   Miquel Garcia          : C-PCM Hessian, Gaussian charge scheme
   Yang Guo               : DLPNO-NEVPT2, CIM, IAO-localization
   Andreas Hansen         : Spin unrestricted coupled pair/coupled cluster methods
   Benjamin Helmich-Paris : CASSCF linear response (MC-RPA)
   Lee Huntington         : MR-EOM, pCC
   Robert Izsak           : Overlap fitted RIJCOSX, COSX-SCS-MP3, EOM
   Christian Kollmar      : KDIIS, OOCD, Brueckner-CCSD(T), CCSD density
   Simone Kossmann        : Meta GGA functionals, TD-DFT gradient, OOMP2, MP2 Hessian
   Martin Krupicka        : AUTO-CI
   Lucas Lang             : DCDCAS
   Dagmar Lenk            : GEPOL surface, SMD
   Dimitrios Liakos       : Extrapolation schemes; Compound Job, initial MDCI parallelization
   Dimitrios Manganas     : Further ROCIS development; embedding schemes
   Dimitrios Pantazis     : SARC Basis sets
   Taras Petrenko         : DFT Hessian,TD-DFT gradient, ASA, ECA, R-Raman, ABS, FL, XAS/XES, NRVS
   Peter Pinski           : DLPNO-MP2, DLPNO-MP2 Gradient
   Christoph Reimann      : Effective Core Potentials
   Marius Retegan         : Local ZFS, SOC
   Christoph Riplinger    : Optimizer, TS searches, QM/MM, DLPNO-CCSD(T), (RO)-DLPNO pert. Triples
   Tobias Risthaus        : Range-separated hybrids, TD-DFT gradient, RPA, STAB
   Michael Roemelt        : Original ROCIS implementation
   Masaaki Saitow         : Open-shell DLPNO-CCSD energy and density
   Barbara Sandhoefer     : DKH picture change effects
   Avijit Sen             : IP-ROCIS
   Kantharuban Sivalingam : CASSCF convergence, NEVPT2, FIC-MRCI
   Bernardo de Souza      : ESD, SOC TD-DFT
   Georgi Stoychev        : AutoAux, RI-MP2 NMR
   Willem Van den Heuvel  : Paramagnetic NMR
   Boris Wezisla          : Elementary symmetry handling
   Frank Wennmohs         : Technical directorship


 We gratefully acknowledge several colleagues who have allowed us to
 interface, adapt or use parts of their codes:
   Stefan Grimme, W. Hujo, H. Kruse,             : VdW corrections, initial TS optimization,
                  C. Bannwarth                     DFT functionals, gCP, sTDA/sTD-DF
   Ed Valeev, F. Pavosevic, A. Kumar             : LibInt (2-el integral package), F12 methods
   Garnet Chan, S. Sharma, J. Yang, R. Olivares  : DMRG
   Ulf Ekstrom                                   : XCFun DFT Library
   Mihaly Kallay                                 : mrcc  (arbitrary order and MRCC methods)
   Andreas Klamt, Michael Diedenhofen            : otool_cosmo (COSMO solvation model)
   Jiri Pittner, Ondrej Demel                    : Mk-CCSD
   Frank Weinhold                                : gennbo (NPA and NBO analysis)
   Christopher J. Cramer and Donald G. Truhlar   : smd solvation model
   Lars Goerigk                                  : TD-DFT with DH, B97 family of functionals
   V. Asgeirsson, H. Jonsson                     : NEB implementation
   FAccTs GmbH                                   : IRC, NEB, NEB-TS, Multilevel, MM, QM/MM, CI optimization
   S Lehtola, MJT Oliveira, MAL Marques          : LibXC Library


 Your calculation uses the libint2 library for the computation of 2-el integrals
 For citations please refer to: http://libint.valeyev.net

 Your ORCA version has been built with support for libXC version: 4.2.3
 For citations please refer to: https://tddft.org/programs/libxc/

 This ORCA versions uses:
   CBLAS   interface :  Fast vector & matrix operations
   LAPACKE interface :  Fast linear algebra routines
   SCALAPACK package :  Parallel linear algebra routines


XCFun DFT library Copyright 2009-2010 Ulf Ekstrom and contributors.
See http://admol.org/xcfun for more information. This is free soft-
ware; see the source code for copying conditions. There is ABSOLUTELY
NO WARRANTY; not even for MERCHANTABILITY or FITNESS FOR A PARTICULAR
PURPOSE. For details see the documentation. Scientific users of this 
library should cite U. Ekstrom, L. Visscher, R. Bast, A. J. Thorvald-
sen and K. Ruud; J.Chem.Theor.Comp. 2010, DOI: 10.1021/ct100117s
XCFun Version 0.99 
----- Orbital basis set information -----
Your calculation utilizes the basis: def2-SVP
   F. Weigend and R. Ahlrichs, Phys. Chem. Chem. Phys. 7, 3297 (2005).

----- AuxJ basis set information -----
Your calculation utilizes the auxiliary basis: def2/J
   F. Weigend, Phys. Chem. Chem. Phys. 8, 1057 (2006).

================================================================================
                                        WARNINGS
                       Please study these warnings very carefully!
================================================================================

INFO   : Checking CIS options ...

WARNING: CIS/ROCIS methods need fully converged wavefunctions
  ===> : Setting SCFConvForced true
         You can overwrite this default with %scf ConvForced false 


INFO   : the flag for use of LIBINT has been found!

================================================================================
                                       INPUT FILE
================================================================================
NAME = xtbopt.inp
|  1> # ORCA input file
|  2> # SCF done       -113.950937930838          0.000817171264
|  3> ! CAM-B3LYP def2-SVP def2/J RIJCOSX Grid4 TightSCF
|  4> %maxcore 5000
|  5> %tddft
|  6>     Mode sTDDFT
|  7>     Ethresh 5.0
|  8>     maxcore 5000
|  9> end
| 10> 
| 11> %pal
| 12>   nprocs 6
| 13>   end
| 14> * xyz 0 1
| 15>    C       -1.35890         1.21870        -4.41632
| 16>    C       -1.14493         2.47137        -3.90679
| 17>    C       -1.94704         3.00361        -2.88796
| 18>    C       -3.00660         2.31455        -2.32462
| 19>    C       -3.25167         1.00891        -2.83351
| 20>    C       -2.41901         0.47141        -3.88040
| 21>    N       -2.78948        -0.76081        -4.23269
| 22>    S       -4.05064        -1.19609        -3.34078
| 23>    N       -4.19635         0.14580        -2.46419
| 24>    C       -3.82000         2.88348        -1.28569
| 25>    S       -3.47148         4.46791        -0.64761
| 26>    C       -4.82681         4.36929         0.44380
| 27>    C       -5.49063         3.16945         0.30000
| 28>    C       -4.92336         2.33944        -0.66733
| 29>    C       -5.12893         5.40912         1.30625
| 30>    C       -5.37388         6.33785         2.05058
| 31>    C       -5.70073         7.37064         2.91957
| 32>    C       -4.92919         8.47067         3.08112
| 33>    C       -5.23074         9.54920         3.95794
| 34>    S       -4.10007        10.86625         4.11589
| 35>    C       -5.13144        11.66896         5.26983
| 36>    C       -6.28136        10.93824         5.49504
| 37>    C       -6.33419         9.75428         4.76387
| 38>    C       -4.77092        12.87337         5.84707
| 39>    C       -4.43616        13.92428         6.35774
| 40>    C       -4.09152        15.11901         6.97518
| 41>    C       -2.91141        15.74703         6.76307
| 42>    C       -2.51579        16.96008         7.39152
| 43>    S       -0.94520        17.63016         7.04318
| 44>    C       -1.22504        18.96175         8.13339
| 45>    C       -2.47352        18.86896         8.71477
| 46>    C       -3.19349        17.75148         8.29931
| 47>    C       -0.26649        19.93832         8.34104
| 48>    C        0.58978        20.78158         8.51890
| 49>    C        1.56300        21.75061         8.73735
| 50>    C        1.42845        22.72665         9.65965
| 51>    C        2.38995        23.75786         9.94776
| 52>    C        3.58051        23.95867         9.27097
| 53>    C        4.47718        24.98465         9.60442
| 54>    C        4.23647        25.86311        10.62816
| 55>    C        3.04279        25.70939        11.35005
| 56>    C        2.11727        24.66064        11.01195
| 57>    N        1.04449        24.66854        11.80058
| 58>    S        1.18934        25.87321        12.85708
| 59>    N        2.61050        26.44635        12.37559
| 60>    H       -0.74965         0.79870        -5.19948
| 61>    H       -0.33769         3.07560        -4.29366
| 62>    H       -1.72945         3.99878        -2.52696
| 63>    H       -6.35676         2.91545         0.88478
| 64>    H       -5.29636         1.36492        -0.92299
| 65>    H       -6.62106         7.25101         3.47610
| 66>    H       -4.00914         8.55175         2.51741
| 67>    H       -7.04796        11.26730         6.17423
| 68>    H       -7.15874         9.06634         4.81793
| 69>    H       -4.82511        15.53132         7.65576
| 70>    H       -2.20046        15.30694         6.07652
| 71>    H       -2.83560        19.59844         9.41737
| 72>    H       -4.18347        17.52536         8.65255
| 73>    H        2.44910        21.67062         8.12076
| 74>    H        0.53158        22.75995        10.26340
| 75>    H        3.83940        23.30906         8.44889
| 76>    H        5.38623        25.07837         9.02840
| 77>    H        4.92383        26.65163        10.88689
| 78> *
| 79> 
| 80>                          ****END OF INPUT****
================================================================================

                       ****************************
                       * Single Point Calculation *
                       ****************************

---------------------------------
CARTESIAN COORDINATES (ANGSTROEM)
---------------------------------
  C     -1.358900    1.218700   -4.416320
  C     -1.144930    2.471370   -3.906790
  C     -1.947040    3.003610   -2.887960
  C     -3.006600    2.314550   -2.324620
  C     -3.251670    1.008910   -2.833510
  C     -2.419010    0.471410   -3.880400
  N     -2.789480   -0.760810   -4.232690
  S     -4.050640   -1.196090   -3.340780
  N     -4.196350    0.145800   -2.464190
  C     -3.820000    2.883480   -1.285690
  S     -3.471480    4.467910   -0.647610
  C     -4.826810    4.369290    0.443800
  C     -5.490630    3.169450    0.300000
  C     -4.923360    2.339440   -0.667330
  C     -5.128930    5.409120    1.306250
  C     -5.373880    6.337850    2.050580
  C     -5.700730    7.370640    2.919570
  C     -4.929190    8.470670    3.081120
  C     -5.230740    9.549200    3.957940
  S     -4.100070   10.866250    4.115890
  C     -5.131440   11.668960    5.269830
  C     -6.281360   10.938240    5.495040
  C     -6.334190    9.754280    4.763870
  C     -4.770920   12.873370    5.847070
  C     -4.436160   13.924280    6.357740
  C     -4.091520   15.119010    6.975180
  C     -2.911410   15.747030    6.763070
  C     -2.515790   16.960080    7.391520
  S     -0.945200   17.630160    7.043180
  C     -1.225040   18.961750    8.133390
  C     -2.473520   18.868960    8.714770
  C     -3.193490   17.751480    8.299310
  C     -0.266490   19.938320    8.341040
  C      0.589780   20.781580    8.518900
  C      1.563000   21.750610    8.737350
  C      1.428450   22.726650    9.659650
  C      2.389950   23.757860    9.947760
  C      3.580510   23.958670    9.270970
  C      4.477180   24.984650    9.604420
  C      4.236470   25.863110   10.628160
  C      3.042790   25.709390   11.350050
  C      2.117270   24.660640   11.011950
  N      1.044490   24.668540   11.800580
  S      1.189340   25.873210   12.857080
  N      2.610500   26.446350   12.375590
  H     -0.749650    0.798700   -5.199480
  H     -0.337690    3.075600   -4.293660
  H     -1.729450    3.998780   -2.526960
  H     -6.356760    2.915450    0.884780
  H     -5.296360    1.364920   -0.922990
  H     -6.621060    7.251010    3.476100
  H     -4.009140    8.551750    2.517410
  H     -7.047960   11.267300    6.174230
  H     -7.158740    9.066340    4.817930
  H     -4.825110   15.531320    7.655760
  H     -2.200460   15.306940    6.076520
  H     -2.835600   19.598440    9.417370
  H     -4.183470   17.525360    8.652550
  H      2.449100   21.670620    8.120760
  H      0.531580   22.759950   10.263400
  H      3.839400   23.309060    8.448890
  H      5.386230   25.078370    9.028400
  H      4.923830   26.651630   10.886890

----------------------------
CARTESIAN COORDINATES (A.U.)
----------------------------
  NO LB      ZA    FRAG     MASS         X           Y           Z
   0 C     6.0000    0    12.011   -2.567949    2.303009   -8.345635
   1 C     6.0000    0    12.011   -2.163604    4.670212   -7.382763
   2 C     6.0000    0    12.011   -3.679372    5.676000   -5.457453
   3 C     6.0000    0    12.011   -5.681651    4.373866   -4.392895
   4 C     6.0000    0    12.011   -6.144766    1.906564   -5.354558
   5 C     6.0000    0    12.011   -4.571266    0.890836   -7.332893
   6 N     7.0000    0    14.007   -5.271353   -1.437723   -7.998625
   7 S    16.0000    0    32.060   -7.654600   -2.260283   -6.313159
   8 N     7.0000    0    14.007   -7.929952    0.275522   -4.656644
   9 C     6.0000    0    12.011   -7.218754    5.448988   -2.429602
  10 S    16.0000    0    32.060   -6.560146    8.443126   -1.223806
  11 C     6.0000    0    12.011   -9.121349    8.256761    0.838660
  12 C     6.0000    0    12.011  -10.375787    5.989392    0.566918
  13 C     6.0000    0    12.011   -9.303802    4.420901   -1.261071
  14 C     6.0000    0    12.011   -9.692273   10.221755    2.468455
  15 C     6.0000    0    12.011  -10.155161   11.976801    3.875035
  16 C     6.0000    0    12.011  -10.772818   13.928491    5.517188
  17 C     6.0000    0    12.011   -9.314819   16.007246    5.822473
  18 C     6.0000    0    12.011   -9.884666   18.045373    7.479423
  19 S    16.0000    0    32.060   -7.748009   20.534237    7.777905
  20 C     6.0000    0    12.011   -9.697016   22.051139    9.958535
  21 C     6.0000    0    12.011  -11.870050   20.670278   10.384121
  22 C     6.0000    0    12.011  -11.969884   18.432918    9.002410
  23 C     6.0000    0    12.011   -9.015732   24.327144   11.049361
  24 C     6.0000    0    12.011   -8.383127   26.313076   12.014387
  25 C     6.0000    0    12.011   -7.731852   28.570788   13.181180
  26 C     6.0000    0    12.011   -5.501768   29.757574   12.780350
  27 C     6.0000    0    12.011   -4.754154   32.049906   13.967949
  28 S    16.0000    0    32.060   -1.786169   33.316174   13.309681
  29 C     6.0000    0    12.011   -2.314990   35.832515   15.369880
  30 C     6.0000    0    12.011   -4.674275   35.657167   16.468529
  31 C     6.0000    0    12.011   -6.034822   33.545436   15.683423
  32 C     6.0000    0    12.011   -0.503593   37.677964   15.762281
  33 C     6.0000    0    12.011    1.114523   39.271495   16.098388
  34 C     6.0000    0    12.011    2.953642   41.102696   16.511199
  35 C     6.0000    0    12.011    2.699379   42.947144   18.254093
  36 C     6.0000    0    12.011    4.516351   44.895849   18.798542
  37 C     6.0000    0    12.011    6.766183   45.275325   17.519594
  38 C     6.0000    0    12.011    8.460644   47.214146   18.149723
  39 C     6.0000    0    12.011    8.005768   48.874195   20.084312
  40 C     6.0000    0    12.011    5.750040   48.583706   21.448486
  41 C     6.0000    0    12.011    4.001060   46.601856   20.809570
  42 N     7.0000    0    14.007    1.973800   46.616785   22.299864
  43 S    16.0000    0    32.060    2.247527   48.893281   24.296360
  44 N     7.0000    0    14.007    4.933130   49.976359   23.386476
  45 H     1.0000    0     1.008   -1.416633    1.509324   -9.825593
  46 H     1.0000    0     1.008   -0.638142    5.812042   -8.113842
  47 H     1.0000    0     1.008   -3.268187    7.556599   -4.775262
  48 H     1.0000    0     1.008  -12.012535    5.509402    1.671992
  49 H     1.0000    0     1.008  -10.008670    2.579325   -1.744198
  50 H     1.0000    0     1.008  -12.511990   13.702423    6.568877
  51 H     1.0000    0     1.008   -7.576177   16.160465    4.757215
  52 H     1.0000    0     1.008  -13.318714   21.292111   11.667604
  53 H     1.0000    0     1.008  -13.528058   17.132900    9.104568
  54 H     1.0000    0     1.008   -9.118136   29.349941   14.467290
  55 H     1.0000    0     1.008   -4.158267   28.925925   11.482959
  56 H     1.0000    0     1.008   -5.358507   37.035684   17.796250
  57 H     1.0000    0     1.008   -7.905613   33.118131   16.350950
  58 H     1.0000    0     1.008    4.628128   40.951537   15.346012
  59 H     1.0000    0     1.008    1.004541   43.010072   19.395015
  60 H     1.0000    0     1.008    7.255415   44.047740   15.966088
  61 H     1.0000    0     1.008   10.178500   47.391251   17.061203
  62 H     1.0000    0     1.008    9.304690   50.364282   20.573241

--------------------------------
INTERNAL COORDINATES (ANGSTROEM)
--------------------------------
 C      0   0   0     0.000000000000     0.00000000     0.00000000
 C      1   0   0     1.369155254418     0.00000000     0.00000000
 C      2   1   0     1.401668448172   121.90320502     0.00000000
 C      3   2   1     1.383771307984   123.02502625   359.91187558
 C      4   3   2     1.422576587253   116.31486358     0.15778139
 C      1   2   3     1.403383697568   117.58896201   359.93330432
 N      6   1   2     1.334062364884   126.92517804   180.17738753
 S      7   6   1     1.604835403429   108.78351334   179.94201307
 N      5   4   3     1.331831985237   128.15473881   179.78258828
 C      4   3   2     1.436898204397   122.04864193   180.34411140
 S     10   4   3     1.743281589905   120.75310596   358.06296777
 C     11  10   4     1.742934623387    91.27844119   179.55513892
 C     12  11  10     1.378749962103   110.99731792     0.00000000
 C     10   4   3     1.376863065377   128.45540908   177.64784006
 C     12  11  10     1.384320384087   121.15352776   180.22028362
 C     15  12  11     1.215140759048   178.64395373     6.78220029
 C     16  15  12     1.388751139225   177.61009640   169.93922172
 C     17  16  15     1.353306460119   123.02580028   176.93630565
 C     18  17  16     1.422312439586   124.68712974   179.87364336
 S     19  18  17     1.742981225917   119.42749645   177.08377776
 C     20  19  18     1.743457755324    91.38283838   180.24512570
 C     21  20  19     1.380937098097   110.91098474   359.72069659
 C     19  18  17     1.381731838600   129.89901661   357.17122526
 C     21  20  19     1.383395871072   121.52375520   179.31889906
 C     24  21  20     1.215425824392   179.06950260   313.52955679
 C     25  24  21     1.388304237586   177.88698259   239.12712386
 C     26  25  24     1.353535882273   123.09531751   164.83587661
 C     27  26  25     1.422306186937   124.68009470   180.96901877
 S     28  27  26     1.742728008067   119.35977099   178.60137618
 C     29  28  27     1.743559634139    91.37653155   180.82371638
 C     30  29  28     1.380331481529   110.92764793   359.75992356
 C     28  27  26     1.381909524571   129.96190603   359.27536643
 C     30  29  28     1.384061266671   121.43436899   179.34320094
 C     33  30  29     1.214874446229   179.01591298   331.83265481
 C     34  33  30     1.390646149026   179.30685967   230.92997076
 C     35  34  33     1.349590706140   122.78772752   342.82407887
 C     36  35  34     1.439056526409   126.04729441   179.69924158
 C     37  36  35     1.384125165511   125.50518204     3.80377524
 C     38  37  36     1.402797544837   122.66264965   180.09309497
 C     39  38  37     1.370283497419   122.28810876     0.03182820
 C     40  39  38     1.403433985943   117.61196164   359.89343904
 C     37  36  35     1.421923509511   118.46820555   183.74258311
 N     42  37  36     1.331486618521   126.98144083     0.00000000
 S     43  42  37     1.608851634365   108.71430459   179.83610201
 N     41  40  39     1.334809715765   127.60239359   180.04317109
 H      1   2   3     1.077462365050   122.60008699   179.97898774
 H      2   1   3     1.079999401574   119.69446189   180.00441225
 H      3   2   1     1.080754244498   118.50462642   180.04228068
 H     13  12  11     1.075483530929   122.44972156   180.00829655
 H     14  10   4     1.074327820546   121.99010882     0.45766794
 H     17  16  15     1.082147996671   116.08813629   357.08159103
 H     18  17  16     1.082051261725   118.91275479   359.40593421
 H     22  21  20     1.075757918725   122.31045192   180.17940820
 H     23  19  18     1.075205389542   123.14704453   359.61837081
 H     26  25  24     1.082285988360   116.05605122   345.25968608
 H     27  26  25     1.081887246020   118.92378925     0.41089252
 H     31  30  29     1.075588098112   122.27730625   180.13629511
 H     32  28  27     1.075160058968   123.15718100   359.18509359
 H     35  34  33     1.082476252950   115.58847302   162.41245052
 H     36  35  34     1.081664804549   119.10269107     0.42321935
 H     38  37  36     1.079274159146   119.43586785     0.35141011
 H     39  38  37     1.080256627520   118.33326003   180.06914530
 H     40  39  38     1.077575414020   122.44173578   179.95370250

---------------------------
INTERNAL COORDINATES (A.U.)
---------------------------
 C      0   0   0     0.000000000000     0.00000000     0.00000000
 C      1   0   0     2.587328465669     0.00000000     0.00000000
 C      2   1   0     2.648769497603   121.90320502     0.00000000
 C      3   2   1     2.614948804068   123.02502625   359.91187558
 C      4   3   2     2.688280154436   116.31486358     0.15778139
 C      1   2   3     2.652010849214   117.58896201   359.93330432
 N      6   1   2     2.521012515202   126.92517804   180.17738753
 S      7   6   1     3.032699402502   108.78351334   179.94201307
 N      5   4   3     2.516797708494   128.15473881   179.78258828
 C      4   3   2     2.715344088634   122.04864193   180.34411140
 S     10   4   3     3.294324779226   120.75310596   358.06296777
 C     11  10   4     3.293669107530    91.27844119   179.55513892
 C     12  11  10     2.605459835530   110.99731792     0.00000000
 C     10   4   3     2.601894117474   128.45540908   177.64784006
 C     12  11  10     2.615986407530   121.15352776   180.22028362
 C     15  12  11     2.296283248766   178.64395373     6.78220029
 C     16  15  12     2.624359321307   177.61009640   169.93922172
 C     17  16  15     2.557378584891   123.02580028   176.93630565
 C     18  17  16     2.687780987686   124.68712974   179.87364336
 S     19  18  17     3.293757173550   119.42749645   177.08377776
 C     20  19  18     3.294657683624    91.38283838   180.24512570
 C     21  20  19     2.609592923575   110.91098474   359.72069659
 C     19  18  17     2.611094765473   129.89901661   357.17122526
 C     21  20  19     2.614239331124   121.52375520   179.31889906
 C     24  21  20     2.296821944197   179.06950260   313.52955679
 C     25  24  21     2.623514799600   177.88698259   239.12712386
 C     26  25  24     2.557812129931   123.09531751   164.83587661
 C     27  26  25     2.687769171893   124.68009470   180.96901877
 S     28  27  26     3.293278661160   119.35977099   178.60137618
 C     29  28  27     3.294850206683    91.37653155   180.82371638
 C     30  29  28     2.608448474120   110.92764793   359.75992356
 C     28  27  26     2.611430543296   129.96190603   359.27536643
 C     30  29  28     2.615496746577   121.43436899   179.34320094
 C     33  30  29     2.295779990472   179.01591298   331.83265481
 C     34  33  30     2.627940370851   179.30685967   230.92997076
 C     35  34  33     2.550356827490   122.78772752   342.82407887
 C     36  35  34     2.719422726145   126.04729441   179.69924158
 C     37  36  35     2.615617497884   125.50518204     3.80377524
 C     38  37  36     2.650903181079   122.66264965   180.09309497
 C     39  38  37     2.589460535954   122.28810876     0.03182820
 C     40  39  38     2.652105880470   117.61196164   359.89343904
 C     37  36  35     2.687046016360   118.46820555   183.74258311
 N     42  37  36     2.516145059985   126.98144083     0.00000000
 S     43  42  37     3.040288979062   108.71430459   179.83610201
 N     41  40  39     2.522424803693   127.60239359   180.04317109
 H      1   2   3     2.036108789552   122.60008699   179.97898774
 H      2   1   3     2.040903093774   119.69446189   180.00441225
 H      3   2   1     2.042329540174   118.50462642   180.04228068
 H     13  12  11     2.032369334999   122.44972156   180.00829655
 H     14  10   4     2.030185358885   121.99010882     0.45766794
 H     17  16  15     2.044963350081   116.08813629   357.08159103
 H     18  17  16     2.044780547524   118.91275479   359.40593421
 H     22  21  20     2.032887852788   122.31045192   180.17940820
 H     23  19  18     2.031843723950   123.14704453   359.61837081
 H     26  25  24     2.045224116580   116.05605122   345.25968608
 H     27  26  25     2.044470602759   118.92378925     0.41089252
 H     31  30  29     2.032566938337   122.27730625   180.13629511
 H     32  28  27     2.031758061580   123.15718100   359.18509359
 H     35  34  33     2.045583664548   115.58847302   162.41245052
 H     36  35  34     2.044050249299   119.10269107     0.42321935
 H     38  37  36     2.039532584204   119.43586785     0.35141011
 H     39  38  37     2.041389180365   118.33326003   180.06914530
 H     40  39  38     2.036322421144   122.44173578   179.95370250

---------------------
BASIS SET INFORMATION
---------------------
There are 4 groups of distinct atoms

 Group   1 Type C   : 7s4p1d contracted to 3s2p1d pattern {511/31/1}
 Group   2 Type N   : 7s4p1d contracted to 3s2p1d pattern {511/31/1}
 Group   3 Type S   : 10s7p1d contracted to 4s3p1d pattern {5311/511/1}
 Group   4 Type H   : 4s1p contracted to 2s1p pattern {31/1}

Atom   0C    basis set group =>   1
Atom   1C    basis set group =>   1
Atom   2C    basis set group =>   1
Atom   3C    basis set group =>   1
Atom   4C    basis set group =>   1
Atom   5C    basis set group =>   1
Atom   6N    basis set group =>   2
Atom   7S    basis set group =>   3
Atom   8N    basis set group =>   2
Atom   9C    basis set group =>   1
Atom  10S    basis set group =>   3
Atom  11C    basis set group =>   1
Atom  12C    basis set group =>   1
Atom  13C    basis set group =>   1
Atom  14C    basis set group =>   1
Atom  15C    basis set group =>   1
Atom  16C    basis set group =>   1
Atom  17C    basis set group =>   1
Atom  18C    basis set group =>   1
Atom  19S    basis set group =>   3
Atom  20C    basis set group =>   1
Atom  21C    basis set group =>   1
Atom  22C    basis set group =>   1
Atom  23C    basis set group =>   1
Atom  24C    basis set group =>   1
Atom  25C    basis set group =>   1
Atom  26C    basis set group =>   1
Atom  27C    basis set group =>   1
Atom  28S    basis set group =>   3
Atom  29C    basis set group =>   1
Atom  30C    basis set group =>   1
Atom  31C    basis set group =>   1
Atom  32C    basis set group =>   1
Atom  33C    basis set group =>   1
Atom  34C    basis set group =>   1
Atom  35C    basis set group =>   1
Atom  36C    basis set group =>   1
Atom  37C    basis set group =>   1
Atom  38C    basis set group =>   1
Atom  39C    basis set group =>   1
Atom  40C    basis set group =>   1
Atom  41C    basis set group =>   1
Atom  42N    basis set group =>   2
Atom  43S    basis set group =>   3
Atom  44N    basis set group =>   2
Atom  45H    basis set group =>   4
Atom  46H    basis set group =>   4
Atom  47H    basis set group =>   4
Atom  48H    basis set group =>   4
Atom  49H    basis set group =>   4
Atom  50H    basis set group =>   4
Atom  51H    basis set group =>   4
Atom  52H    basis set group =>   4
Atom  53H    basis set group =>   4
Atom  54H    basis set group =>   4
Atom  55H    basis set group =>   4
Atom  56H    basis set group =>   4
Atom  57H    basis set group =>   4
Atom  58H    basis set group =>   4
Atom  59H    basis set group =>   4
Atom  60H    basis set group =>   4
Atom  61H    basis set group =>   4
Atom  62H    basis set group =>   4
---------------------------------
AUXILIARY/J BASIS SET INFORMATION
---------------------------------
There are 4 groups of distinct atoms

 Group   1 Type C   : 12s5p4d2f1g contracted to 6s4p3d1f1g pattern {711111/2111/211/2/1}
 Group   2 Type N   : 12s5p4d2f1g contracted to 6s4p3d1f1g pattern {711111/2111/211/2/1}
 Group   3 Type S   : 14s5p5d2f1g contracted to 8s4p3d1f1g pattern {71111111/2111/311/2/1}
 Group   4 Type H   : 5s2p1d contracted to 3s1p1d pattern {311/2/1}

Atom   0C    basis set group =>   1
Atom   1C    basis set group =>   1
Atom   2C    basis set group =>   1
Atom   3C    basis set group =>   1
Atom   4C    basis set group =>   1
Atom   5C    basis set group =>   1
Atom   6N    basis set group =>   2
Atom   7S    basis set group =>   3
Atom   8N    basis set group =>   2
Atom   9C    basis set group =>   1
Atom  10S    basis set group =>   3
Atom  11C    basis set group =>   1
Atom  12C    basis set group =>   1
Atom  13C    basis set group =>   1
Atom  14C    basis set group =>   1
Atom  15C    basis set group =>   1
Atom  16C    basis set group =>   1
Atom  17C    basis set group =>   1
Atom  18C    basis set group =>   1
Atom  19S    basis set group =>   3
Atom  20C    basis set group =>   1
Atom  21C    basis set group =>   1
Atom  22C    basis set group =>   1
Atom  23C    basis set group =>   1
Atom  24C    basis set group =>   1
Atom  25C    basis set group =>   1
Atom  26C    basis set group =>   1
Atom  27C    basis set group =>   1
Atom  28S    basis set group =>   3
Atom  29C    basis set group =>   1
Atom  30C    basis set group =>   1
Atom  31C    basis set group =>   1
Atom  32C    basis set group =>   1
Atom  33C    basis set group =>   1
Atom  34C    basis set group =>   1
Atom  35C    basis set group =>   1
Atom  36C    basis set group =>   1
Atom  37C    basis set group =>   1
Atom  38C    basis set group =>   1
Atom  39C    basis set group =>   1
Atom  40C    basis set group =>   1
Atom  41C    basis set group =>   1
Atom  42N    basis set group =>   2
Atom  43S    basis set group =>   3
Atom  44N    basis set group =>   2
Atom  45H    basis set group =>   4
Atom  46H    basis set group =>   4
Atom  47H    basis set group =>   4
Atom  48H    basis set group =>   4
Atom  49H    basis set group =>   4
Atom  50H    basis set group =>   4
Atom  51H    basis set group =>   4
Atom  52H    basis set group =>   4
Atom  53H    basis set group =>   4
Atom  54H    basis set group =>   4
Atom  55H    basis set group =>   4
Atom  56H    basis set group =>   4
Atom  57H    basis set group =>   4
Atom  58H    basis set group =>   4
Atom  59H    basis set group =>   4
Atom  60H    basis set group =>   4
Atom  61H    basis set group =>   4
Atom  62H    basis set group =>   4


           ************************************************************
           *        Program running with 6 parallel MPI-processes     *
           *              working on a common directory               *
           ************************************************************
------------------------------------------------------------------------------
                           ORCA GTO INTEGRAL CALCULATION
                           -- RI-GTO INTEGRALS CHOSEN --
------------------------------------------------------------------------------

                         BASIS SET STATISTICS AND STARTUP INFO

Gaussian basis set:
 # of primitive gaussian shells          ...  660
 # of primitive gaussian functions       ... 1266
 # of contracted shells                  ...  334
 # of contracted basis functions         ...  740
 Highest angular momentum                ...    2
 Maximum contraction depth               ...    5
Auxiliary gaussian basis set:
 # of primitive gaussian shells          ... 1239
 # of primitive gaussian functions       ... 3473
 # of contracted shells                  ...  775
 # of contracted aux-basis functions     ... 2413
 Highest angular momentum                ...    4
 Maximum contraction depth               ...    7
Ratio of auxiliary to basis functions    ...  3.26
Integral package used                  ... LIBINT
 One Electron integrals                  ... done
 Ordering auxiliary basis shells         ... done
 Integral threshhold             Thresh  ...  2.500e-11
 Primitive cut-off               TCut    ...  2.500e-12
 Pre-screening matrix                    ... done
 Shell pair data                         ... 
 Ordering of the shell pairs             ... done (   0.003 sec) 17399 of 55945 pairs
 Determination of significant pairs      ... done (   0.000 sec)
 Creation of shell pair data             ... done (   0.002 sec)
 Storage of shell pair data              ... done (   0.004 sec)
 Shell pair data done in (   0.009 sec)
 Computing two index integrals           ... done
 Cholesky decomposition of the V-matrix  ... done


Timings:
 Total evaluation time                   ...   0.846 sec (  0.014 min)
 One electron matrix time                ...   0.145 sec (  0.002 min) = 17.2%
 Schwartz matrix evaluation time         ...   0.272 sec (  0.005 min) = 32.1%
 Two index repulsion integral time       ...   0.100 sec (  0.002 min) = 11.9%
 Cholesky decomposition of V             ...   0.304 sec (  0.005 min) = 36.0%
 Three index repulsion integral time     ...   0.000 sec (  0.000 min) =  0.0%



           ************************************************************
           *        Program running with 6 parallel MPI-processes     *
           *              working on a common directory               *
           ************************************************************
-------------------------------------------------------------------------------
                                 ORCA SCF
-------------------------------------------------------------------------------

------------
SCF SETTINGS
------------
Hamiltonian:
 Density Functional     Method          .... DFT(GTOs)
 Exchange Functional    Exchange        .... WB88
 Correlation Functional Correlation     .... LYP
 LDA part of GGA corr.  LDAOpt          .... VWN-5
 Gradients option       PostSCFGGA      .... off
 Hybrid DFT is turned on
   Fraction HF Exchange ScalHFX         ....  0.190000
   Scaling of DF-GGA-X  ScalDFX         ....  0.350000
   Scaling of DF-GGA-C  ScalDFC         ....  0.810000
   Scaling of DF-LDA-C  ScalLDAC        ....  1.000000
   Perturbative correction              ....  0.000000
   Density functional embedding theory  .... OFF
 Long-range corrected/Screened/Range-Separated Hybrid DFT is turned on
   Amount of maximum screened exact exchange              ....  0.460000
   Range separation parameter mu (erf(mu*r12)/r12)        ....  0.330000
 RI-approximation to the Coulomb term is turned on
   Number of auxiliary basis functions  .... 2413
   RIJ-COSX (HFX calculated with COS-X)).... on


General Settings:
 Integral files         IntName         .... xtbopt
 Hartree-Fock type      HFTyp           .... RHF
 Total Charge           Charge          ....    0
 Multiplicity           Mult            ....    1
 Number of Electrons    NEL             ....  342
 Basis Dimension        Dim             ....  740
 Nuclear Repulsion      ENuc            ....   4449.3288060736 Eh

Convergence Acceleration:
 DIIS                   CNVDIIS         .... on
   Start iteration      DIISMaxIt       ....    12
   Startup error        DIISStart       ....  0.200000
   # of expansion vecs  DIISMaxEq       ....     5
   Bias factor          DIISBfac        ....   1.050
   Max. coefficient     DIISMaxC        ....  10.000
 Newton-Raphson         CNVNR           .... off
 SOSCF                  CNVSOSCF        .... on
   Start iteration      SOSCFMaxIt      ....   150
   Startup grad/error   SOSCFStart      ....  0.003300
 Level Shifting         CNVShift        .... on
   Level shift para.    LevelShift      ....    0.2500
   Turn off err/grad.   ShiftErr        ....    0.0010
 Zerner damping         CNVZerner       .... off
 Static damping         CNVDamp         .... on
   Fraction old density DampFac         ....    0.7000
   Max. Damping (<1)    DampMax         ....    0.9800
   Min. Damping (>=0)   DampMin         ....    0.0000
   Turn off err/grad.   DampErr         ....    0.1000
 Fernandez-Rico         CNVRico         .... off

SCF Procedure:
 Maximum # iterations   MaxIter         ....   125
 SCF integral mode      SCFMode         .... Direct
   Integral package                     .... LIBINT
 Reset frequency        DirectResetFreq ....    20
 Integral Threshold     Thresh          ....  2.500e-11 Eh
 Primitive CutOff       TCut            ....  2.500e-12 Eh

Convergence Tolerance:
 Convergence Check Mode ConvCheckMode   .... Total+1el-Energy
 Convergence forced     ConvForced      .... 1
 Energy Change          TolE            ....  1.000e-08 Eh
 1-El. energy change                    ....  1.000e-05 Eh
 Orbital Gradient       TolG            ....  1.000e-05
 Orbital Rotation angle TolX            ....  1.000e-05
 DIIS Error             TolErr          ....  5.000e-07


Diagonalization of the overlap matrix:
Smallest eigenvalue                        ... 1.993e-04
Time for diagonalization                   ...    0.207 sec
Threshold for overlap eigenvalues          ... 1.000e-08
Number of eigenvalues below threshold      ... 0
Time for construction of square roots      ...    0.078 sec
Total time needed                          ...    0.286 sec

-------------------
DFT GRID GENERATION
-------------------

General Integration Accuracy     IntAcc      ...  4.670
Radial Grid Type                 RadialGrid  ... Gauss-Chebyshev
Angular Grid (max. acc.)         AngularGrid ... Lebedev-302
Angular grid pruning method      GridPruning ... 3 (G Style)
Weight generation scheme         WeightScheme... Becke
Basis function cutoff            BFCut       ...    1.0000e-11
Integration weight cutoff        WCut        ...    1.0000e-14
Grids for H and He will be reduced by one unit

# of grid points (after initial pruning)     ... 343802 (   0.0 sec)
# of grid points (after weights+screening)   ... 308480 (   1.6 sec)
nearest neighbour list constructed           ...    0.0 sec
Grid point re-assignment to atoms done       ...    0.0 sec
Grid point division into batches done        ...    1.2 sec
Reduced shell lists constructed in    1.6 sec

Total number of grid points                  ...   308480
Total number of batches                      ...     4855
Average number of points per batch           ...       63
Average number of grid points per atom       ...     4897
Average number of shells per batch           ...    66.71 (19.97%)
Average number of basis functions per batch  ...   146.62 (19.81%)
Average number of large shells per batch     ...    48.78 (73.13%)
Average number of large basis fcns per batch ...   107.11 (73.05%)
Maximum spatial batch extension              ...  19.54, 19.67, 16.24 au
Average spatial batch extension              ...   0.37,  0.35,  0.37 au

Time for grid setup =    3.350 sec

------------------------------
INITIAL GUESS: MODEL POTENTIAL
------------------------------
Loading Hartree-Fock densities                     ... done
Calculating cut-offs                               ... done
Setting up the integral package                    ... done
Initializing the effective Hamiltonian             ... done
Starting the Coulomb interaction                   ... done (   0.3 sec)
Reading the grid                                   ... done
Mapping shells                                     ... done
Starting the XC term evaluation                    ... done (   0.5 sec)
  promolecular density results
     # of electrons  =    341.990413317
     EX              =   -340.228538953
     EC              =    -11.946620967
     EX+EC           =   -352.175159920
Transforming the Hamiltonian                       ... done (   0.2 sec)
Diagonalizing the Hamiltonian                      ... done (   0.2 sec)
Back transforming the eigenvectors                 ... done (   0.0 sec)
Now organizing SCF variables                       ... done
                      ------------------
                      INITIAL GUESS DONE (   4.7 sec)
                      ------------------
--------------------
COSX GRID GENERATION
--------------------

General Integration Accuracy     IntAcc      ...  3.340
Radial Grid Type                 RadialGrid  ... Gauss-Chebyshev
Angular Grid (max. acc.)         AngularGrid ... Lebedev-50
Angular grid pruning method      GridPruning ... 3 (G Style)
Weight generation scheme         WeightScheme... Becke
Basis function cutoff            BFCut       ...    1.0000e-11
Integration weight cutoff        WCut        ...    1.0000e-14
Grids for H and He will be reduced by one unit

# of grid points (after initial pruning)     ...  32434 (   0.0 sec)
# of grid points (after weights+screening)   ...  29964 (   0.2 sec)
nearest neighbour list constructed           ...    0.0 sec
Grid point re-assignment to atoms done       ...    0.0 sec
Grid point division into batches done        ...    0.0 sec
Reduced shell lists constructed in    0.1 sec

Total number of grid points                  ...    29964
Total number of batches                      ...      500
Average number of points per batch           ...       59
Average number of grid points per atom       ...      476
Average number of shells per batch           ...    77.81 (23.30%)
Average number of basis functions per batch  ...   172.94 (23.37%)
Average number of large shells per batch     ...    57.78 (74.25%)
Average number of large basis fcns per batch ...   129.47 (74.86%)
Maximum spatial batch extension              ...  18.91, 16.21, 21.39 au
Average spatial batch extension              ...   0.89,  0.79,  0.94 au

Overlap Fitting                  UseSFitting ... on
Constructing numerical overlap ... done (      0.0 sec)
Inverting numerical overlap    ... done (      0.0 sec)
Obtaining analytic overlap     ... done (      0.0 sec)
Final contraction and storage  ... done (      0.1 sec)


General Integration Accuracy     IntAcc      ...  3.670
Radial Grid Type                 RadialGrid  ... Gauss-Chebyshev
Angular Grid (max. acc.)         AngularGrid ... Lebedev-50
Angular grid pruning method      GridPruning ... 3 (G Style)
Weight generation scheme         WeightScheme... Becke
Basis function cutoff            BFCut       ...    1.0000e-11
Integration weight cutoff        WCut        ...    1.0000e-14
Grids for H and He will be reduced by one unit

# of grid points (after initial pruning)     ...  40438 (   0.0 sec)
# of grid points (after weights+screening)   ...  37245 (   0.2 sec)
nearest neighbour list constructed           ...    0.0 sec
Grid point re-assignment to atoms done       ...    0.0 sec
Grid point division into batches done        ...    0.0 sec
Reduced shell lists constructed in    0.1 sec

Total number of grid points                  ...    37245
Total number of batches                      ...      611
Average number of points per batch           ...       60
Average number of grid points per atom       ...      591
Average number of shells per batch           ...    76.52 (22.91%)
Average number of basis functions per batch  ...   169.83 (22.95%)
Average number of large shells per batch     ...    56.73 (74.13%)
Average number of large basis fcns per batch ...   126.79 (74.66%)
Maximum spatial batch extension              ...  19.70, 16.84, 14.88 au
Average spatial batch extension              ...   0.81,  0.71,  0.82 au

Overlap Fitting                  UseSFitting ... on
Constructing numerical overlap ... done (      0.1 sec)
Inverting numerical overlap    ... done (      0.0 sec)
Obtaining analytic overlap     ... done (      0.0 sec)
Final contraction and storage  ... done (      0.1 sec)


General Integration Accuracy     IntAcc      ...  4.010
Radial Grid Type                 RadialGrid  ... Gauss-Chebyshev
Angular Grid (max. acc.)         AngularGrid ... Lebedev-110
Angular grid pruning method      GridPruning ... 3 (G Style)
Weight generation scheme         WeightScheme... Becke
Basis function cutoff            BFCut       ...    1.0000e-11
Integration weight cutoff        WCut        ...    1.0000e-14
Grids for H and He will be reduced by one unit

# of grid points (after initial pruning)     ...  78904 (   0.0 sec)
# of grid points (after weights+screening)   ...  72285 (   0.4 sec)
nearest neighbour list constructed           ...    0.0 sec
Grid point re-assignment to atoms done       ...    0.0 sec
Grid point division into batches done        ...    0.1 sec
Reduced shell lists constructed in    0.2 sec

Total number of grid points                  ...    72285
Total number of batches                      ...     1157
Average number of points per batch           ...       62
Average number of grid points per atom       ...     1147
Average number of shells per batch           ...    73.09 (21.88%)
Average number of basis functions per batch  ...   161.90 (21.88%)
Average number of large shells per batch     ...    54.47 (74.53%)
Average number of large basis fcns per batch ...   120.47 (74.41%)
Maximum spatial batch extension              ...  18.54, 16.85, 18.17 au
Average spatial batch extension              ...   0.62,  0.55,  0.63 au

Overlap Fitting                  UseSFitting ... on
Constructing numerical overlap ... done (      0.1 sec)
Inverting numerical overlap    ... done (      0.0 sec)
Obtaining analytic overlap     ... done (      0.0 sec)
Final contraction and storage  ... done (      0.1 sec)

Time for X-Grid setup             =    1.774 sec
--------------
SCF ITERATIONS
--------------
ITER       Energy         Delta-E        Max-DP      RMS-DP      [F,P]     Damp
               ***  Starting incremental Fock matrix formation  ***
  0  -3588.6485013969   0.000000000000 0.08802410  0.00122249  0.1849665 0.7000
  1  -3589.1216252573  -0.473123860431 0.03903770  0.00084446  0.0887113 0.7000
                               ***Turning on DIIS***
  2  -3589.3334940354  -0.211868778110 0.08997143  0.00150988  0.0368958 0.0000
  3  -3589.6383045803  -0.304810544908 0.08024837  0.00068754  0.0553988 0.0000
  4  -3589.7201949916  -0.081890411259 0.01185706  0.00017992  0.0094478 0.0000
  5  -3589.7244121858  -0.004217194199 0.00582461  0.00008544  0.0055521 0.0000
                      *** Initiating the SOSCF procedure ***
                           *** Shutting down DIIS ***
                      *** Re-Reading the Fockian *** 
                      *** Removing any level shift *** 
ITER      Energy       Delta-E        Grad      Rot      Max-DP    RMS-DP
  6  -3589.72536588  -0.0009536924  0.001694  0.001694  0.002142  0.000043
               *** Restarting incremental Fock matrix formation ***
  7  -3589.72564420  -0.0002783253  0.001232  0.006250  0.001531  0.000039
  8  -3589.72581378  -0.0001695796  0.000434  0.006541  0.002163  0.000051
  9  -3589.72582087  -0.0000070839  0.000842  0.002446  0.001318  0.000022
 10  -3589.72587057  -0.0000497066  0.000133  0.000502  0.000598  0.000007
 11  -3589.72586995   0.0000006242  0.000133  0.000247  0.000368  0.000004
 12  -3589.72587212  -0.0000021716  0.000020  0.000049  0.000116  0.000001
 13  -3589.72587207   0.0000000538  0.000029  0.000037  0.000060  0.000001
 14  -3589.72587217  -0.0000000981  0.000003  0.000012  0.000021  0.000000
 15  -3589.72587219  -0.0000000233  0.000003  0.000006  0.000011  0.000000
                  ***Gradient check signals convergence***
              ***Rediagonalizing the Fockian in SOSCF/NRSCF***

               *****************************************************
               *                     SUCCESS                       *
               *           SCF CONVERGED AFTER  16 CYCLES          *
               *****************************************************

Setting up the final grid:

General Integration Accuracy     IntAcc      ...  5.010
Radial Grid Type                 RadialGrid  ... Gauss-Chebyshev
Angular Grid (max. acc.)         AngularGrid ... Lebedev-434
Angular grid pruning method      GridPruning ... 3 (G Style)
Weight generation scheme         WeightScheme... Becke
Basis function cutoff            BFCut       ...    1.0000e-11
Integration weight cutoff        WCut        ...    1.0000e-14
Grids for H and He will be reduced by one unit

# of grid points (after initial pruning)     ... 606644 (   0.0 sec)
# of grid points (after weights+screening)   ... 542998 (   2.7 sec)
nearest neighbour list constructed           ...    0.0 sec
Grid point re-assignment to atoms done       ...    0.1 sec
Grid point division into batches done        ...    4.0 sec
Reduced shell lists constructed in    4.6 sec

Total number of grid points                  ...   542998
Total number of batches                      ...     8517
Average number of points per batch           ...       63
Average number of grid points per atom       ...     8619
Average number of shells per batch           ...    65.16 (19.51%)
Average number of basis functions per batch  ...   142.85 (19.30%)
Average number of large shells per batch     ...    47.48 (72.87%)
Average number of large basis fcns per batch ...   103.99 (72.79%)
Maximum spatial batch extension              ...  20.35, 19.31, 17.93 au
Average spatial batch extension              ...   0.30,  0.29,  0.30 au

Final grid set up in    7.6 sec
Final integration                            ... done (   1.3 sec)
Change in XC energy                          ...    -0.000040550
Integrated number of electrons               ...   341.999989120
Previous integrated no of electrons          ...   341.999774529
Old exchange energy                            =    -92.271922306 Eh
New exchange energy                            =    -92.271285628 Eh
Exchange energy change after final integration =      0.000636679 Eh
Total energy after final integration           =  -3589.725276033 Eh
Final COS-X integration done in                =    17.373 sec

----------------
TOTAL SCF ENERGY
----------------

Total Energy       :        -3589.72527603 Eh          -97681.39079 eV

Components:
Nuclear Repulsion  :         4449.32880607 Eh          121072.39201 eV
Electronic Energy  :        -8039.05408211 Eh         -218753.78280 eV
One Electron Energy:       -13763.80917046 Eh         -374532.28838 eV
Two Electron Energy:         5724.75508836 Eh          155778.50558 eV

Virial components:
Potential Energy   :        -7159.65389503 Eh         -194824.08715 eV
Kinetic Energy     :         3569.92861900 Eh           97142.69636 eV
Virial Ratio       :            2.00554539


DFT components:
N(Alpha)           :      170.999994560226 electrons
N(Beta)            :      170.999994560226 electrons
N(Total)           :      341.999989120452 electrons
E(XC)              :     -264.977760845542 Eh       
DFET-embed. en.    :        0.000000000000 Eh       

---------------
SCF CONVERGENCE
---------------

  Last Energy change         ...    2.6190e-08  Tolerance :   1.0000e-08
  Last MAX-Density change    ...    7.5495e-15  Tolerance :   1.0000e-07
  Last RMS-Density change    ...    4.4748e-17  Tolerance :   5.0000e-09
  Last Orbital Gradient      ...    5.2305e-07  Tolerance :   1.0000e-05
  Last Orbital Rotation      ...    2.2114e-06  Tolerance :   1.0000e-05

             **** THE GBW FILE WAS UPDATED (xtbopt.gbw) ****
             **** DENSITY FILE WAS UPDATED (xtbopt.scfp) ****
             **** ENERGY FILE WAS UPDATED (xtbopt.en.tmp) ****
             **** THE GBW FILE WAS UPDATED (xtbopt.gbw) ****
             **** DENSITY FILE WAS UPDATED (xtbopt.scfp) ****
----------------
ORBITAL ENERGIES
----------------

  NO   OCC          E(Eh)            E(eV) 
   0   2.0000     -89.017611     -2422.2923 
   1   2.0000     -89.016086     -2422.2508 
   2   2.0000     -88.956052     -2420.6172 
   3   2.0000     -88.956047     -2420.6171 
   4   2.0000     -88.951615     -2420.4965 
   5   2.0000     -14.432857      -392.7380 
   6   2.0000     -14.431117      -392.6907 
   7   2.0000     -14.430653      -392.6780 
   8   2.0000     -14.428828      -392.6284 
   9   2.0000     -10.318404      -280.7780 
  10   2.0000     -10.315149      -280.6895 
  11   2.0000     -10.314263      -280.6654 
  12   2.0000     -10.313237      -280.6374 
  13   2.0000     -10.311300      -280.5847 
  14   2.0000     -10.311245      -280.5833 
  15   2.0000     -10.308663      -280.5130 
  16   2.0000     -10.302590      -280.3477 
  17   2.0000     -10.302237      -280.3381 
  18   2.0000     -10.298402      -280.2338 
  19   2.0000     -10.297538      -280.2103 
  20   2.0000     -10.290594      -280.0213 
  21   2.0000     -10.290231      -280.0114 
  22   2.0000     -10.290027      -280.0059 
  23   2.0000     -10.289827      -280.0004 
  24   2.0000     -10.288864      -279.9742 
  25   2.0000     -10.288214      -279.9565 
  26   2.0000     -10.283231      -279.8210 
  27   2.0000     -10.283093      -279.8172 
  28   2.0000     -10.282626      -279.8045 
  29   2.0000     -10.282319      -279.7961 
  30   2.0000     -10.279916      -279.7307 
  31   2.0000     -10.279186      -279.7109 
  32   2.0000     -10.279174      -279.7105 
  33   2.0000     -10.277172      -279.6561 
  34   2.0000     -10.277006      -279.6516 
  35   2.0000     -10.274134      -279.5734 
  36   2.0000     -10.273998      -279.5697 
  37   2.0000     -10.273106      -279.5454 
  38   2.0000     -10.272777      -279.5365 
  39   2.0000     -10.271813      -279.5103 
  40   2.0000     -10.270891      -279.4852 
  41   2.0000     -10.270755      -279.4814 
  42   2.0000     -10.270417      -279.4722 
  43   2.0000     -10.269583      -279.4496 
  44   2.0000     -10.263703      -279.2895 
  45   2.0000      -8.109652      -220.6748 
  46   2.0000      -8.107961      -220.6288 
  47   2.0000      -8.051743      -219.0991 
  48   2.0000      -8.051671      -219.0971 
  49   2.0000      -8.047079      -218.9722 
  50   2.0000      -6.080860      -165.4686 
  51   2.0000      -6.079085      -165.4203 
  52   2.0000      -6.073060      -165.2564 
  53   2.0000      -6.072058      -165.2291 
  54   2.0000      -6.071439      -165.2122 
  55   2.0000      -6.070464      -165.1857 
  56   2.0000      -6.020961      -163.8387 
  57   2.0000      -6.020876      -163.8364 
  58   2.0000      -6.016912      -163.7285 
  59   2.0000      -6.016850      -163.7268 
  60   2.0000      -6.016372      -163.7138 
  61   2.0000      -6.013889      -163.6462 
  62   2.0000      -6.013838      -163.6449 
  63   2.0000      -6.012279      -163.6024 
  64   2.0000      -6.009166      -163.5177 
  65   2.0000      -1.117481       -30.4082 
  66   2.0000      -1.115280       -30.3483 
  67   2.0000      -0.984744       -26.7962 
  68   2.0000      -0.983846       -26.7718 
  69   2.0000      -0.983449       -26.7610 
  70   2.0000      -0.970383       -26.4055 
  71   2.0000      -0.969035       -26.3688 
  72   2.0000      -0.954846       -25.9827 
  73   2.0000      -0.950920       -25.8759 
  74   2.0000      -0.910659       -24.7803 
  75   2.0000      -0.905577       -24.6420 
  76   2.0000      -0.899324       -24.4719 
  77   2.0000      -0.875710       -23.8293 
  78   2.0000      -0.866147       -23.5691 
  79   2.0000      -0.855038       -23.2668 
  80   2.0000      -0.853004       -23.2114 
  81   2.0000      -0.850536       -23.1443 
  82   2.0000      -0.841480       -22.8978 
  83   2.0000      -0.831802       -22.6345 
  84   2.0000      -0.830848       -22.6085 
  85   2.0000      -0.828793       -22.5526 
  86   2.0000      -0.818076       -22.2610 
  87   2.0000      -0.804660       -21.8959 
  88   2.0000      -0.787690       -21.4341 
  89   2.0000      -0.772462       -21.0198 
  90   2.0000      -0.744484       -20.2584 
  91   2.0000      -0.738435       -20.0938 
  92   2.0000      -0.728160       -19.8142 
  93   2.0000      -0.716208       -19.4890 
  94   2.0000      -0.708506       -19.2794 
  95   2.0000      -0.700088       -19.0504 
  96   2.0000      -0.695541       -18.9266 
  97   2.0000      -0.693120       -18.8607 
  98   2.0000      -0.671629       -18.2759 
  99   2.0000      -0.670435       -18.2435 
 100   2.0000      -0.655847       -17.8465 
 101   2.0000      -0.642448       -17.4819 
 102   2.0000      -0.627229       -17.0678 
 103   2.0000      -0.622345       -16.9349 
 104   2.0000      -0.619549       -16.8588 
 105   2.0000      -0.604852       -16.4589 
 106   2.0000      -0.602061       -16.3829 
 107   2.0000      -0.598336       -16.2815 
 108   2.0000      -0.597908       -16.2699 
 109   2.0000      -0.589487       -16.0407 
 110   2.0000      -0.586221       -15.9519 
 111   2.0000      -0.585478       -15.9317 
 112   2.0000      -0.576160       -15.6781 
 113   2.0000      -0.569922       -15.5084 
 114   2.0000      -0.564808       -15.3692 
 115   2.0000      -0.557299       -15.1649 
 116   2.0000      -0.553983       -15.0746 
 117   2.0000      -0.541366       -14.7313 
 118   2.0000      -0.538918       -14.6647 
 119   2.0000      -0.525752       -14.3064 
 120   2.0000      -0.518258       -14.1025 
 121   2.0000      -0.516579       -14.0568 
 122   2.0000      -0.510661       -13.8958 
 123   2.0000      -0.501145       -13.6368 
 124   2.0000      -0.497744       -13.5443 
 125   2.0000      -0.491654       -13.3786 
 126   2.0000      -0.485791       -13.2190 
 127   2.0000      -0.483335       -13.1522 
 128   2.0000      -0.482886       -13.1400 
 129   2.0000      -0.482609       -13.1325 
 130   2.0000      -0.480765       -13.0823 
 131   2.0000      -0.479294       -13.0423 
 132   2.0000      -0.478343       -13.0164 
 133   2.0000      -0.466642       -12.6980 
 134   2.0000      -0.462919       -12.5967 
 135   2.0000      -0.458046       -12.4641 
 136   2.0000      -0.455231       -12.3875 
 137   2.0000      -0.451809       -12.2943 
 138   2.0000      -0.450959       -12.2712 
 139   2.0000      -0.450364       -12.2550 
 140   2.0000      -0.448697       -12.2097 
 141   2.0000      -0.443712       -12.0740 
 142   2.0000      -0.440413       -11.9842 
 143   2.0000      -0.434582       -11.8256 
 144   2.0000      -0.423979       -11.5371 
 145   2.0000      -0.420548       -11.4437 
 146   2.0000      -0.419836       -11.4243 
 147   2.0000      -0.416766       -11.3408 
 148   2.0000      -0.416000       -11.3199 
 149   2.0000      -0.408064       -11.1040 
 150   2.0000      -0.400723       -10.9042 
 151   2.0000      -0.389299       -10.5934 
 152   2.0000      -0.387445       -10.5429 
 153   2.0000      -0.378568       -10.3013 
 154   2.0000      -0.361190        -9.8285 
 155   2.0000      -0.361097        -9.8260 
 156   2.0000      -0.358463        -9.7543 
 157   2.0000      -0.342665        -9.3244 
 158   2.0000      -0.340024        -9.2525 
 159   2.0000      -0.337887        -9.1944 
 160   2.0000      -0.335676        -9.1342 
 161   2.0000      -0.328883        -8.9494 
 162   2.0000      -0.326597        -8.8871 
 163   2.0000      -0.324593        -8.8326 
 164   2.0000      -0.324236        -8.8229 
 165   2.0000      -0.318887        -8.6773 
 166   2.0000      -0.314883        -8.5684 
 167   2.0000      -0.294894        -8.0245 
 168   2.0000      -0.271550        -7.3892 
 169   2.0000      -0.246994        -6.7210 
 170   2.0000      -0.225880        -6.1465 
 171   0.0000      -0.071413        -1.9432 
 172   0.0000      -0.063229        -1.7205 
 173   0.0000      -0.048971        -1.3326 
 174   0.0000      -0.027151        -0.7388 
 175   0.0000      -0.001414        -0.0385 
 176   0.0000       0.015450         0.4204 
 177   0.0000       0.043164         1.1745 
 178   0.0000       0.048999         1.3333 
 179   0.0000       0.051309         1.3962 
 180   0.0000       0.057190         1.5562 
 181   0.0000       0.061150         1.6640 
 182   0.0000       0.063254         1.7212 
 183   0.0000       0.063679         1.7328 
 184   0.0000       0.073686         2.0051 
 185   0.0000       0.076036         2.0691 
 186   0.0000       0.076402         2.0790 
 187   0.0000       0.077093         2.0978 
 188   0.0000       0.082806         2.2533 
 189   0.0000       0.090262         2.4562 
 190   0.0000       0.102810         2.7976 
 191   0.0000       0.107059         2.9132 
 192   0.0000       0.116091         3.1590 
 193   0.0000       0.117515         3.1977 
 194   0.0000       0.117945         3.2095 
 195   0.0000       0.122185         3.3248 
 196   0.0000       0.129529         3.5247 
 197   0.0000       0.134916         3.6713 
 198   0.0000       0.136852         3.7239 
 199   0.0000       0.140657         3.8275 
 200   0.0000       0.144973         3.9449 
 201   0.0000       0.148541         4.0420 
 202   0.0000       0.149299         4.0626 
 203   0.0000       0.153562         4.1786 
 204   0.0000       0.161798         4.4028 
 205   0.0000       0.164370         4.4727 
 206   0.0000       0.171373         4.6633 
 207   0.0000       0.171589         4.6692 
 208   0.0000       0.183164         4.9841 
 209   0.0000       0.188170         5.1204 
 210   0.0000       0.204824         5.5735 
 211   0.0000       0.210534         5.7289 
 212   0.0000       0.212663         5.7869 
 213   0.0000       0.213138         5.7998 
 214   0.0000       0.217522         5.9191 
 215   0.0000       0.220755         6.0071 
 216   0.0000       0.221318         6.0224 
 217   0.0000       0.225077         6.1247 
 218   0.0000       0.226283         6.1575 
 219   0.0000       0.229717         6.2509 
 220   0.0000       0.236289         6.4298 
 221   0.0000       0.236983         6.4486 
 222   0.0000       0.257679         7.0118 
 223   0.0000       0.259729         7.0676 
 224   0.0000       0.261755         7.1227 
 225   0.0000       0.263237         7.1630 
 226   0.0000       0.268441         7.3046 
 227   0.0000       0.277186         7.5426 
 228   0.0000       0.283155         7.7050 
 229   0.0000       0.285071         7.7572 
 230   0.0000       0.301534         8.2052 
 231   0.0000       0.303925         8.2702 
 232   0.0000       0.307175         8.3587 
 233   0.0000       0.308103         8.3839 
 234   0.0000       0.311488         8.4760 
 235   0.0000       0.313501         8.5308 
 236   0.0000       0.318781         8.6745 
 237   0.0000       0.322451         8.7743 
 238   0.0000       0.324125         8.8199 
 239   0.0000       0.326624         8.8879 
 240   0.0000       0.327257         8.9051 
 241   0.0000       0.338121         9.2007 
 242   0.0000       0.340509         9.2657 
 243   0.0000       0.343539         9.3482 
 244   0.0000       0.349529         9.5112 
 245   0.0000       0.353569         9.6211 
 246   0.0000       0.356385         9.6977 
 247   0.0000       0.358195         9.7470 
 248   0.0000       0.364287         9.9128 
 249   0.0000       0.365730         9.9520 
 250   0.0000       0.371000        10.0954 
 251   0.0000       0.372547        10.1375 
 252   0.0000       0.376174        10.2362 
 253   0.0000       0.376249        10.2383 
 254   0.0000       0.379175        10.3179 
 255   0.0000       0.384341        10.4585 
 256   0.0000       0.387589        10.5468 
 257   0.0000       0.395737        10.7686 
 258   0.0000       0.404511        11.0073 
 259   0.0000       0.408588        11.1183 
 260   0.0000       0.419912        11.4264 
 261   0.0000       0.426074        11.5941 
 262   0.0000       0.434396        11.8205 
 263   0.0000       0.437770        11.9123 
 264   0.0000       0.443466        12.0673 
 265   0.0000       0.445526        12.1234 
 266   0.0000       0.447831        12.1861 
 267   0.0000       0.451125        12.2757 
 268   0.0000       0.455150        12.3853 
 269   0.0000       0.464750        12.6465 
 270   0.0000       0.469310        12.7706 
 271   0.0000       0.472623        12.8607 
 272   0.0000       0.474456        12.9106 
 273   0.0000       0.482736        13.1359 
 274   0.0000       0.484332        13.1794 
 275   0.0000       0.494187        13.4475 
 276   0.0000       0.494765        13.4632 
 277   0.0000       0.495123        13.4730 
 278   0.0000       0.498610        13.5679 
 279   0.0000       0.500055        13.6072 
 280   0.0000       0.500785        13.6271 
 281   0.0000       0.501700        13.6520 
 282   0.0000       0.502748        13.6805 
 283   0.0000       0.503539        13.7020 
 284   0.0000       0.509334        13.8597 
 285   0.0000       0.511446        13.9171 
 286   0.0000       0.513215        13.9653 
 287   0.0000       0.516045        14.0423 
 288   0.0000       0.517579        14.0840 
 289   0.0000       0.522490        14.2177 
 290   0.0000       0.528031        14.3684 
 291   0.0000       0.529575        14.4105 
 292   0.0000       0.531221        14.4552 
 293   0.0000       0.539981        14.6936 
 294   0.0000       0.545926        14.8554 
 295   0.0000       0.547739        14.9047 
 296   0.0000       0.555108        15.1052 
 297   0.0000       0.560601        15.2547 
 298   0.0000       0.564291        15.3551 
 299   0.0000       0.569386        15.4938 
 300   0.0000       0.571744        15.5580 
 301   0.0000       0.573050        15.5935 
 302   0.0000       0.575794        15.6682 
 303   0.0000       0.577873        15.7247 
 304   0.0000       0.586654        15.9637 
 305   0.0000       0.587294        15.9811 
 306   0.0000       0.591429        16.0936 
 307   0.0000       0.594529        16.1780 
 308   0.0000       0.603175        16.4132 
 309   0.0000       0.605287        16.4707 
 310   0.0000       0.607507        16.5311 
 311   0.0000       0.608786        16.5659 
 312   0.0000       0.610677        16.6174 
 313   0.0000       0.614733        16.7277 
 314   0.0000       0.617102        16.7922 
 315   0.0000       0.619325        16.8527 
 316   0.0000       0.623606        16.9692 
 317   0.0000       0.629586        17.1319 
 318   0.0000       0.631756        17.1910 
 319   0.0000       0.636348        17.3159 
 320   0.0000       0.637089        17.3361 
 321   0.0000       0.640178        17.4201 
 322   0.0000       0.642742        17.4899 
 323   0.0000       0.644184        17.5291 
 324   0.0000       0.647870        17.6294 
 325   0.0000       0.649504        17.6739 
 326   0.0000       0.657120        17.8811 
 327   0.0000       0.658898        17.9295 
 328   0.0000       0.661846        18.0097 
 329   0.0000       0.662952        18.0398 
 330   0.0000       0.663313        18.0497 
 331   0.0000       0.665654        18.1134 
 332   0.0000       0.668512        18.1911 
 333   0.0000       0.670230        18.2379 
 334   0.0000       0.673029        18.3141 
 335   0.0000       0.676343        18.4042 
 336   0.0000       0.678934        18.4747 
 337   0.0000       0.683445        18.5975 
 338   0.0000       0.690292        18.7838 
 339   0.0000       0.691234        18.8094 
 340   0.0000       0.693533        18.8720 
 341   0.0000       0.697534        18.9809 
 342   0.0000       0.699728        19.0406 
 343   0.0000       0.700860        19.0714 
 344   0.0000       0.701255        19.0821 
 345   0.0000       0.702866        19.1260 
 346   0.0000       0.704694        19.1757 
 347   0.0000       0.707848        19.2615 
 348   0.0000       0.711837        19.3701 
 349   0.0000       0.714117        19.4321 
 350   0.0000       0.715343        19.4655 
 351   0.0000       0.716868        19.5070 
 352   0.0000       0.721410        19.6306 
 353   0.0000       0.722893        19.6709 
 354   0.0000       0.723496        19.6873 
 355   0.0000       0.724490        19.7144 
 356   0.0000       0.725411        19.7394 
 357   0.0000       0.731086        19.8939 
 358   0.0000       0.732149        19.9228 
 359   0.0000       0.734300        19.9813 
 360   0.0000       0.736543        20.0424 
 361   0.0000       0.739404        20.1202 
 362   0.0000       0.748758        20.3747 
 363   0.0000       0.756013        20.5722 
 364   0.0000       0.757822        20.6214 
 365   0.0000       0.766379        20.8542 
 366   0.0000       0.768353        20.9080 
 367   0.0000       0.770087        20.9551 
 368   0.0000       0.771283        20.9877 
 369   0.0000       0.775691        21.1076 
 370   0.0000       0.777804        21.1651 
 371   0.0000       0.780983        21.2516 
 372   0.0000       0.783608        21.3230 
 373   0.0000       0.785928        21.3862 
 374   0.0000       0.791033        21.5251 
 375   0.0000       0.792159        21.5557 
 376   0.0000       0.793999        21.6058 
 377   0.0000       0.795702        21.6521 
 378   0.0000       0.797103        21.6903 
 379   0.0000       0.798535        21.7292 
 380   0.0000       0.805794        21.9268 
 381   0.0000       0.809358        22.0238 
 382   0.0000       0.812709        22.1149 
 383   0.0000       0.815323        22.1861 
 384   0.0000       0.819950        22.3120 
 385   0.0000       0.823524        22.4092 
 386   0.0000       0.826939        22.5022 
 387   0.0000       0.830805        22.6073 
 388   0.0000       0.831223        22.6187 
 389   0.0000       0.832354        22.6495 
 390   0.0000       0.838518        22.8172 
 391   0.0000       0.842361        22.9218 
 392   0.0000       0.843778        22.9604 
 393   0.0000       0.845113        22.9967 
 394   0.0000       0.854031        23.2394 
 395   0.0000       0.856281        23.3006 
 396   0.0000       0.868114        23.6226 
 397   0.0000       0.870374        23.6841 
 398   0.0000       0.872219        23.7343 
 399   0.0000       0.874783        23.8040 
 400   0.0000       0.876947        23.8630 
 401   0.0000       0.884957        24.0809 
 402   0.0000       0.893930        24.3251 
 403   0.0000       0.899022        24.4636 
 404   0.0000       0.906452        24.6658 
 405   0.0000       0.908020        24.7085 
 406   0.0000       0.912876        24.8406 
 407   0.0000       0.914468        24.8839 
 408   0.0000       0.916050        24.9270 
 409   0.0000       0.918718        24.9996 
 410   0.0000       0.933922        25.4133 
 411   0.0000       0.935764        25.4634 
 412   0.0000       0.937383        25.5075 
 413   0.0000       0.948707        25.8156 
 414   0.0000       0.957923        26.0664 
 415   0.0000       0.959374        26.1059 
 416   0.0000       0.967063        26.3151 
 417   0.0000       0.986785        26.8518 
 418   0.0000       0.988479        26.8979 
 419   0.0000       0.990554        26.9543 
 420   0.0000       0.997298        27.1379 
 421   0.0000       1.002295        27.2738 
 422   0.0000       1.007292        27.4098 
 423   0.0000       1.009157        27.4606 
 424   0.0000       1.020607        27.7721 
 425   0.0000       1.027910        27.9709 
 426   0.0000       1.029315        28.0091 
 427   0.0000       1.036507        28.2048 
 428   0.0000       1.039782        28.2939 
 429   0.0000       1.052315        28.6349 
 430   0.0000       1.061321        28.8800 
 431   0.0000       1.064271        28.9603 
 432   0.0000       1.068280        29.0694 
 433   0.0000       1.071773        29.1644 
 434   0.0000       1.076331        29.2885 
 435   0.0000       1.088980        29.6327 
 436   0.0000       1.091459        29.7001 
 437   0.0000       1.100740        29.9527 
 438   0.0000       1.108442        30.1622 
 439   0.0000       1.114057        30.3150 
 440   0.0000       1.116932        30.3933 
 441   0.0000       1.125319        30.6215 
 442   0.0000       1.144160        31.1342 
 443   0.0000       1.155349        31.4386 
 444   0.0000       1.169130        31.8136 
 445   0.0000       1.173310        31.9274 
 446   0.0000       1.177420        32.0392 
 447   0.0000       1.184917        32.2432 
 448   0.0000       1.188624        32.3441 
 449   0.0000       1.194141        32.4942 
 450   0.0000       1.205663        32.8078 
 451   0.0000       1.213993        33.0344 
 452   0.0000       1.225631        33.3511 
 453   0.0000       1.227707        33.4076 
 454   0.0000       1.229359        33.4526 
 455   0.0000       1.234413        33.5901 
 456   0.0000       1.236247        33.6400 
 457   0.0000       1.246757        33.9260 
 458   0.0000       1.253427        34.1075 
 459   0.0000       1.256091        34.1800 
 460   0.0000       1.257069        34.2066 
 461   0.0000       1.262612        34.3574 
 462   0.0000       1.265289        34.4303 
 463   0.0000       1.270058        34.5600 
 464   0.0000       1.271824        34.6081 
 465   0.0000       1.274307        34.6757 
 466   0.0000       1.278524        34.7904 
 467   0.0000       1.280039        34.8316 
 468   0.0000       1.285453        34.9790 
 469   0.0000       1.286471        35.0067 
 470   0.0000       1.286767        35.0147 
 471   0.0000       1.289196        35.0808 
 472   0.0000       1.292349        35.1666 
 473   0.0000       1.293289        35.1922 
 474   0.0000       1.299932        35.3730 
 475   0.0000       1.301501        35.4156 
 476   0.0000       1.305116        35.5140 
 477   0.0000       1.305574        35.5265 
 478   0.0000       1.310142        35.6508 
 479   0.0000       1.314917        35.7807 
 480   0.0000       1.316607        35.8267 
 481   0.0000       1.321097        35.9489 
 482   0.0000       1.321416        35.9576 
 483   0.0000       1.324069        36.0297 
 484   0.0000       1.326260        36.0894 
 485   0.0000       1.327643        36.1270 
 486   0.0000       1.330089        36.1936 
 487   0.0000       1.334056        36.3015 
 488   0.0000       1.337658        36.3995 
 489   0.0000       1.341280        36.4981 
 490   0.0000       1.346127        36.6300 
 491   0.0000       1.348354        36.6906 
 492   0.0000       1.350833        36.7580 
 493   0.0000       1.352256        36.7968 
 494   0.0000       1.353522        36.8312 
 495   0.0000       1.385116        37.6909 
 496   0.0000       1.392979        37.9049 
 497   0.0000       1.399224        38.0748 
 498   0.0000       1.401986        38.1500 
 499   0.0000       1.408797        38.3353 
 500   0.0000       1.432763        38.9875 
 501   0.0000       1.441689        39.2304 
 502   0.0000       1.451653        39.5015 
 503   0.0000       1.456836        39.6425 
 504   0.0000       1.466393        39.9026 
 505   0.0000       1.487820        40.4856 
 506   0.0000       1.489430        40.5294 
 507   0.0000       1.489777        40.5389 
 508   0.0000       1.493850        40.6497 
 509   0.0000       1.495035        40.6820 
 510   0.0000       1.530407        41.6445 
 511   0.0000       1.535736        41.7895 
 512   0.0000       1.575461        42.8705 
 513   0.0000       1.583234        43.0820 
 514   0.0000       1.590995        43.2932 
 515   0.0000       1.601856        43.5887 
 516   0.0000       1.602887        43.6168 
 517   0.0000       1.608676        43.7743 
 518   0.0000       1.612350        43.8743 
 519   0.0000       1.612617        43.8815 
 520   0.0000       1.617383        44.0112 
 521   0.0000       1.679952        45.7138 
 522   0.0000       1.693159        46.0732 
 523   0.0000       1.706788        46.4441 
 524   0.0000       1.709079        46.5064 
 525   0.0000       1.716523        46.7090 
 526   0.0000       1.717588        46.7380 
 527   0.0000       1.722513        46.8719 
 528   0.0000       1.725288        46.9475 
 529   0.0000       1.750041        47.6210 
 530   0.0000       1.751964        47.6734 
 531   0.0000       1.754936        47.7542 
 532   0.0000       1.757342        47.8197 
 533   0.0000       1.758607        47.8541 
 534   0.0000       1.760042        47.8932 
 535   0.0000       1.767896        48.1069 
 536   0.0000       1.774752        48.2935 
 537   0.0000       1.778351        48.3914 
 538   0.0000       1.790768        48.7293 
 539   0.0000       1.795414        48.8557 
 540   0.0000       1.797545        48.9137 
 541   0.0000       1.803077        49.0642 
 542   0.0000       1.803717        49.0816 
 543   0.0000       1.825277        49.6683 
 544   0.0000       1.826623        49.7049 
 545   0.0000       1.829898        49.7941 
 546   0.0000       1.830694        49.8157 
 547   0.0000       1.833859        49.9018 
 548   0.0000       1.839071        50.0437 
 549   0.0000       1.841462        50.1087 
 550   0.0000       1.844889        50.2020 
 551   0.0000       1.851174        50.3730 
 552   0.0000       1.862827        50.6901 
 553   0.0000       1.865443        50.7613 
 554   0.0000       1.867438        50.8156 
 555   0.0000       1.869145        50.8620 
 556   0.0000       1.874074        50.9962 
 557   0.0000       1.878578        51.1187 
 558   0.0000       1.895154        51.5697 
 559   0.0000       1.895719        51.5851 
 560   0.0000       1.901948        51.7546 
 561   0.0000       1.902814        51.7782 
 562   0.0000       1.911666        52.0191 
 563   0.0000       1.912713        52.0476 
 564   0.0000       1.920236        52.2523 
 565   0.0000       1.924524        52.3689 
 566   0.0000       1.925574        52.3975 
 567   0.0000       1.935703        52.6732 
 568   0.0000       1.937818        52.7307 
 569   0.0000       1.946213        52.9592 
 570   0.0000       1.956577        53.2412 
 571   0.0000       1.957828        53.2752 
 572   0.0000       1.961350        53.3710 
 573   0.0000       1.964047        53.4444 
 574   0.0000       1.979411        53.8625 
 575   0.0000       1.987485        54.0822 
 576   0.0000       1.992741        54.2253 
 577   0.0000       2.005586        54.5748 
 578   0.0000       2.011791        54.7436 
 579   0.0000       2.012769        54.7702 
 580   0.0000       2.014521        54.8179 
 581   0.0000       2.017675        54.9037 
 582   0.0000       2.020436        54.9789 
 583   0.0000       2.021156        54.9985 
 584   0.0000       2.027299        55.1656 
 585   0.0000       2.034580        55.3637 
 586   0.0000       2.040302        55.5195 
 587   0.0000       2.042057        55.5672 
[...]
 33 C      6.0121     6.0000    -0.0121     3.3639     3.3639    -0.0000
 34 C      6.0611     6.0000    -0.0611     3.6893     3.6893    -0.0000
 35 C      6.0087     6.0000    -0.0087     3.8695     3.8695    -0.0000
 36 C      5.9175     6.0000     0.0825     3.8413     3.8413    -0.0000
 37 C      6.0446     6.0000    -0.0446     3.8274     3.8274    -0.0000
 38 C      5.9523     6.0000     0.0477     3.7789     3.7789    -0.0000
 39 C      6.0310     6.0000    -0.0310     3.8312     3.8312    -0.0000
 40 C      5.9379     6.0000     0.0621     4.0005     4.0005    -0.0000
 41 C      6.0111     6.0000    -0.0111     4.0039     4.0039    -0.0000
 42 N      7.2784     7.0000    -0.2784     3.0196     3.0196    -0.0000
 43 S     15.5051    16.0000     0.4949     2.7878     2.7878    -0.0000
 44 N      7.2687     7.0000    -0.2687     3.0017     3.0017    -0.0000
 45 H      1.0188     1.0000    -0.0188     0.9954     0.9954    -0.0000
 46 H      1.0046     1.0000    -0.0046     0.9811     0.9811    -0.0000
 47 H      1.0069     1.0000    -0.0069     0.9919     0.9919    -0.0000
 48 H      1.0146     1.0000    -0.0146     0.9929     0.9929    -0.0000
 49 H      1.0015     1.0000    -0.0015     1.0461     1.0461    -0.0000
 50 H      0.9762     1.0000     0.0238     0.9891     0.9891     0.0000
 51 H      1.0025     1.0000    -0.0025     0.9956     0.9956     0.0000
 52 H      1.0112     1.0000    -0.0112     0.9929     0.9929     0.0000
 53 H      1.0136     1.0000    -0.0136     0.9910     0.9910    -0.0000
 54 H      0.9752     1.0000     0.0248     0.9890     0.9890     0.0000
 55 H      1.0018     1.0000    -0.0018     0.9957     0.9957    -0.0000
 56 H      1.0091     1.0000    -0.0091     0.9932     0.9932    -0.0000
 57 H      1.0142     1.0000    -0.0142     0.9908     0.9908    -0.0000
 58 H      0.9770     1.0000     0.0230     0.9866     0.9866    -0.0000
 59 H      0.9883     1.0000     0.0117     1.0164     1.0164    -0.0000
 60 H      1.0202     1.0000    -0.0202     0.9870     0.9870    -0.0000
 61 H      1.0066     1.0000    -0.0066     0.9806     0.9806     0.0000
 62 H      1.0182     1.0000    -0.0182     0.9950     0.9950    -0.0000

  Mayer bond orders larger than 0.100000
B(  0-C ,  1-C ) :   1.4880 B(  0-C ,  3-C ) :   0.1070 B(  0-C ,  5-C ) :   1.2063 
B(  0-C , 45-H ) :   1.0212 B(  1-C ,  2-C ) :   1.2243 B(  1-C , 46-H ) :   0.9831 
B(  2-C ,  3-C ) :   1.4935 B(  2-C , 47-H ) :   0.9856 B(  3-C ,  4-C ) :   1.1842 
B(  3-C ,  9-C ) :   1.0928 B(  4-C ,  5-C ) :   1.1640 B(  4-C ,  8-N ) :   1.5261 
B(  5-C ,  6-N ) :   1.5113 B(  6-N ,  7-S ) :   1.2786 B(  6-N ,  8-N ) :   0.1506 
B(  7-S ,  8-N ) :   1.2533 B(  9-C , 10-S ) :   1.1145 B(  9-C , 11-C ) :   0.1055 
B(  9-C , 13-C ) :   1.5343 B( 10-S , 11-C ) :   1.1043 B( 11-C , 12-C ) :   1.5004 
B( 11-C , 14-C ) :   0.9676 B( 12-C , 13-C ) :   1.2391 B( 12-C , 48-H ) :   1.0026 
B( 13-C , 49-H ) :   0.9777 B( 14-C , 15-C ) :   2.2720 B( 15-C , 16-C ) :   1.0248 
B( 16-C , 17-C ) :   1.7196 B( 16-C , 50-H ) :   0.9536 B( 17-C , 18-C ) :   1.1174 
B( 17-C , 51-H ) :   0.9654 B( 18-C , 19-S ) :   1.1206 B( 18-C , 22-C ) :   1.4881 
B( 19-S , 20-C ) :   1.1119 B( 20-C , 21-C ) :   1.4840 B( 20-C , 23-C ) :   0.9865 
B( 21-C , 22-C ) :   1.2907 B( 21-C , 52-H ) :   1.0003 B( 22-C , 53-H ) :   0.9880 
B( 23-C , 24-C ) :   2.2692 B( 24-C , 25-C ) :   1.0258 B( 25-C , 26-C ) :   1.7187 
B( 25-C , 54-H ) :   0.9531 B( 26-C , 27-C ) :   1.1179 B( 26-C , 55-H ) :   0.9656 
B( 27-C , 28-S ) :   1.1214 B( 27-C , 29-C ) :   0.1006 B( 27-C , 31-C ) :   1.4868 
B( 28-S , 29-C ) :   1.1140 B( 29-C , 30-C ) :   1.4870 B( 29-C , 32-C ) :   0.9828 
B( 30-C , 31-C ) :   1.2892 B( 30-C , 56-H ) :   1.0011 B( 31-C , 57-H ) :   0.9883 
B( 32-C , 33-C ) :   2.2843 B( 33-C , 34-C ) :   1.0099 B( 34-C , 35-C ) :   1.7031 
B( 34-C , 58-H ) :   0.9448 B( 35-C , 36-C ) :   1.1055 B( 35-C , 59-H ) :   0.9854 
B( 36-C , 37-C ) :   1.4846 B( 36-C , 39-C ) :   0.1067 B( 36-C , 41-C ) :   1.1653 
B( 37-C , 38-C ) :   1.2308 B( 37-C , 60-H ) :   0.9894 B( 38-C , 39-C ) :   1.4858 
B( 38-C , 61-H ) :   0.9833 B( 39-C , 40-C ) :   1.2065 B( 39-C , 62-H ) :   1.0206 
B( 40-C , 41-C ) :   1.1678 B( 40-C , 44-N ) :   1.5097 B( 41-C , 42-N ) :   1.5481 
B( 42-N , 43-S ) :   1.2611 B( 42-N , 44-N ) :   0.1533 B( 43-S , 44-N ) :   1.2768 


-------
TIMINGS
-------

Total SCF time: 0 days 0 hours 3 min 7 sec 

Total time                  ....     187.584 sec
Sum of individual times     ....     186.411 sec  ( 99.4%)

Fock matrix formation       ....     164.013 sec  ( 87.4%)
  Split-RI-J                ....      13.943 sec  (  8.5% of F)
  Chain of spheres X        ....     137.295 sec  ( 83.7% of F)
  XC integration            ....      12.382 sec  (  7.5% of F)
    Basis function eval.    ....       2.892 sec  ( 23.4% of XC)
    Density eval.           ....       3.505 sec  ( 28.3% of XC)
    XC-Functional eval.     ....       3.317 sec  ( 26.8% of XC)
    XC-Potential eval.      ....       2.140 sec  ( 17.3% of XC)
Diagonalization             ....       3.184 sec  (  1.7%)
Density matrix formation    ....       0.113 sec  (  0.1%)
Population analysis         ....       0.354 sec  (  0.2%)
Initial guess               ....       1.324 sec  (  0.7%)
Orbital Transformation      ....       0.000 sec  (  0.0%)
Orbital Orthonormalization  ....       0.000 sec  (  0.0%)
DIIS solution               ....       1.267 sec  (  0.7%)
SOSCF solution              ....       3.434 sec  (  1.8%)
Grid generation             ....      12.723 sec  (  6.8%)


           ************************************************************
           *        Program running with 6 parallel MPI-processes     *
           *              working on a common directory               *
           ************************************************************

---------------------------------------------------------------------------------

                       ORCA sTD-DFT CALCULATION

                       please cite in your paper           
 orginal sTDA method:  S. Grimme, J. Chem. Phys. 138, 244104 (2013)           
 range-separated sTDA: T. Risthaus, A. Hansen, S. Grimme, Phys. Chem. Chem. Phys.
                       16, 14408-14419 (2014) 
 sTD-DFT approach:     C. Bannwarth, S. Grimme, Comp. Theor. Chem. 
                       1040-1041, 45-53 (2014)

---------------------------------------------------------------------------------


spectral range up to (eV)      ...    5.000000
occ. MO cut-off (eV)           ...   -14.983234
virt. MO cut-off (eV)          ...    6.893489
perturbation threshold         ...   1.000e-04 
MOs in sTD-DFT                 ...         105 
occ. MOs in sTD-DFT            ...          54 
virt. in sTD-DFT               ...          51 
calculate triplets           ...   no  

Calculating the dipole lengths integrals ... 
Transforming integrals ... 
Calculating the dipole velocity integrals ... 
Transforming integrals ... 
Calculating magnetic dipole integrals ... 
Transforming integrals ... 




































SCF atom population (using active MOs):

   1.840   1.831   1.848   1.775   1.630   1.630   3.034   2.986   2.997   2.162
   3.634   1.977   2.095   2.220   2.194   2.111   1.793   1.988   2.127   3.623
   1.975   2.164   2.192   2.184   2.107   1.791   1.987   2.126   3.624   1.977
   2.163   2.190   2.186   2.121   1.743   2.126   1.879   1.820   1.909   1.894
   1.635   1.711   3.020   3.019   3.042   0.404   0.406   0.393   0.424   0.504
   0.438   0.472   0.467   0.472   0.437   0.471   0.468   0.471   0.337   0.517
   0.381   0.438   0.419

Number of electrons in sTDA:  108.000

ax(DF)   :  0.3800
s^k      :  2.0000
beta  (J):  1.8600
alpha (K):  0.9000

hardness table read
setting up gammas ...
computing q(ij,n)
memory needed for q data:             2.0 MB 
memory available for q data:       2492.6 MB 

CSF included by energy:           13 
CSF considered in PT2:          2741 

ordered frontier orbitals
           eV         # centers 
  43      -9.134      13.4
  44      -8.949       5.9
  45      -8.887       4.8
  46      -8.833       6.1
  47      -8.823       5.2
  48      -8.677       7.3
  49      -8.568      13.0
  50      -8.024      28.0
  51      -7.389      28.2
  52      -6.721      26.0
  53      -6.147      25.1

  54      -1.943      37.0
  55      -1.721      24.0
  56      -1.333      29.7
  57      -0.739      29.9
  58      -0.038      26.8
  59       0.420      31.1
  60       1.175      26.1
  61       1.333       6.1
  62       1.396       6.6
  63       1.556      15.0
  64       1.664      13.2

           eV        nm       excitation i->a                     eV 
   0      2.83     438.4    53 ->  54      gap,J,K:    4.203     1.700     0.163
   1      3.27     379.5    53 ->  55      gap,J,K:    4.426     1.377     0.109
   2      3.55     349.4    52 ->  54      gap,J,K:    4.778     1.646     0.208
   3      3.56     347.8    53 ->  56      gap,J,K:    4.814     1.636     0.193
   4      3.81     325.1    52 ->  55      gap,J,K:    5.000     1.544     0.179
   5      4.13     300.1    53 ->  57      gap,J,K:    5.408     1.760     0.242
   6      4.14     299.7    52 ->  56      gap,J,K:    5.388     1.567     0.158
   7      4.27     290.5    51 ->  54      gap,J,K:    5.446     1.632     0.227
   8      4.55     272.5    51 ->  55      gap,J,K:    5.669     1.544     0.212
   9      4.73     262.3    52 ->  57      gap,J,K:    5.982     1.665     0.204
  10      4.85     255.4    51 ->  56      gap,J,K:    6.057     1.589     0.193
  11      4.86     255.0    53 ->  58      gap,J,K:    6.108     1.630     0.192
  12      4.92     252.0    50 ->  54      gap,J,K:    6.081     1.627     0.233

average / max PT2 energy lowering (eV):       0.042       0.058

CSF included by PT:                   164 
total number of CSF included:         177 
 
sTD-DFT procedure...
setting up A+B and A-B matrices...  done
estimated time (min):    0.000
calculating (A-B)^0.5 ... done
calculating (A+B)*(A-B)^0.5 ... done
calculating (A-B)^0.5 *(A+B)*(A-B)^0.5 ... done
diagonalizing ...using LAPACKE_ssyevr ...done

   16 roots found, lowest/highest eigenvalue :     2.477     4.906

excitation energies, transition moments and amplitudes

molecular weight:  666.868
state   eV        nm        fL         fV        Rl        RV
   0   2.477     500.5   3.171396   3.378245  -258.560903  -333.217426     0.81 (  53->  54)    0.11 (  52->  55)    0.03 (  53->  56)
   1   2.834     437.5   0.476209   0.512316  321.764553  365.389810     0.58 (  53->  55)    0.29 (  52->  54)    0.05 (  52->  56)
   2   3.161     392.3   0.095325   0.087323   6.254204   9.447369     0.62 (  53->  56)    0.23 (  52->  55)    0.05 (  52->  57)
   3   3.403     364.4   0.043379   0.046792  34.175345  40.844177     0.54 (  52->  54)    0.21 (  53->  55)    0.14 (  52->  56)
   4   3.656     339.1   0.126755   0.120698   8.698105  11.710186     0.56 (  53->  57)    0.26 (  52->  56)    0.06 (  51->  55)
   5   3.724     333.0   0.193627   0.187519  -83.706344  -78.133320     0.37 (  51->  54)    0.23 (  52->  55)    0.19 (  53->  56)
   6   4.065     305.0   0.037474   0.036961  32.571614  38.301988     0.27 (  53->  57)    0.18 (  51->  55)    0.17 (  52->  56)
   7   4.113     301.4   0.036245   0.036507  15.085298   7.245180     0.36 (  51->  54)    0.23 (  52->  55)    0.14 (  51->  56)
   8   4.213     294.3   0.149696   0.123478  -66.189947  -58.311850     0.36 (  52->  57)    0.29 (  53->  58)    0.11 (  51->  56)
   9   4.353     284.8   0.008206   0.007036  -4.942167  -4.025873     0.23 (  50->  54)    0.23 (  52->  56)    0.19 (  51->  55)
  10   4.547     272.7   0.076400   0.057975  -36.204292  -32.123658     0.27 (  53->  58)    0.19 (  51->  56)    0.18 (  50->  55)
  11   4.666     265.7   0.000464   0.001470   9.620567  12.429757     0.28 (  48->  55)    0.21 (  48->  54)    0.18 (  49->  55)
  12   4.733     262.0   0.015721   0.017782  31.760564  30.323125     0.21 (  51->  55)    0.14 (  53->  59)    0.13 (  50->  54)
  13   4.801     258.2   0.001901   0.002972   5.160341   1.754240     0.27 (  50->  54)    0.10 (  51->  55)    0.10 (  52->  58)
  14   4.853     255.5   0.058340   0.057256  16.617710  24.633017     0.21 (  52->  57)    0.17 (  53->  59)    0.16 (  53->  58)
  15   4.906     252.7   0.002535   0.002274  -4.027155  -3.861272     0.38 (  43->  54)    0.18 (  42->  54)    0.12 (  41->  55)

-----------------------------------------------------------------------------
         ABSORPTION SPECTRUM VIA TRANSITION ELECTRIC DIPOLE MOMENTS
-----------------------------------------------------------------------------
State   Energy  Wavelength   fosc         T2         TX        TY        TZ  
        (cm-1)    (nm)                  (au**2)     (au)      (au)      (au) 
-----------------------------------------------------------------------------
   0   19981.8    500.5   3.171395771  52.25058   1.57927   6.13490   3.48130
   1   22854.6    437.5   0.476208566   6.85960  -2.41691  -0.66407   0.75969
   2   25493.9    392.3   0.095325210   1.23097  -0.41264  -1.01446  -0.17768
   3   27444.4    364.4   0.043379463   0.52036  -0.67533  -0.17719   0.18136
   4   29488.2    339.1   0.126754997   1.41512   1.00897  -0.19923  -0.59783
   5   30034.4    333.0   0.193627419   2.12238   0.12413   1.14228   0.89564
   6   32783.9    305.0   0.037474274   0.37631  -0.56717  -0.15218   0.17741
   7   33177.0    301.4   0.036245226   0.35966  -0.42248  -0.42495   0.02415
   8   33978.2    294.3   0.149695673   1.45039  -0.16743  -0.96537  -0.70030
   9   35113.1    284.8   0.008205837   0.07694   0.01511  -0.22456  -0.16212
  10   36675.6    272.7   0.076400032   0.68579  -0.00314  -0.61884  -0.55029
  11   37631.1    265.7   0.000464344   0.00406   0.05674   0.02625   0.01240
  12   38174.5    262.0   0.015720934   0.13558  -0.25825   0.14108   0.22131
  13   38723.1    258.2   0.001901071   0.01616   0.08466  -0.03724  -0.08723
  14   39143.2    255.5   0.058340285   0.49067   0.41517   0.54559   0.14363
  15   39566.6    252.7   0.002535376   0.02110  -0.08926   0.05753   0.09909

-----------------------------------------------------------------------------
         ABSORPTION SPECTRUM VIA TRANSITION VELOCITY DIPOLE MOMENTS
-----------------------------------------------------------------------------
State   Energy  Wavelength   fosc         P2         PX        PY        PZ  
        (cm-1)    (nm)                  (au**2)     (au)      (au)      (au) 
-----------------------------------------------------------------------------
   0   19981.8    500.5   3.378245320   0.46135   0.14494   0.57617   0.32920
   1   22854.6    437.5   0.512315787   0.08002  -0.26088  -0.06878   0.08504
   2   25493.9    392.3   0.087323320   0.01522  -0.04398  -0.11356  -0.01965
   3   27444.4    364.4   0.046792496   0.00878  -0.08740  -0.02246   0.02519
   4   29488.2    339.1   0.120698383   0.02433   0.13222  -0.02525  -0.07878
   5   30034.4    333.0   0.187519323   0.03849   0.01805   0.15402   0.12018
   6   32783.9    305.0   0.036961018   0.00828  -0.08415  -0.01894   0.02900
   7   33177.0    301.4   0.036506504   0.00828  -0.06026  -0.06816  -0.00125
   8   33978.2    294.3   0.123477905   0.02867  -0.02616  -0.13542  -0.09824
   9   35113.1    284.8   0.007036049   0.00169   0.00129  -0.03397  -0.02309
  10   36675.6    272.7   0.057975480   0.01453  -0.00107  -0.08960  -0.08063
  11   37631.1    265.7   0.001470193   0.00038   0.01760   0.00744  -0.00362
  12   38174.5    262.0   0.017781936   0.00464  -0.04948   0.02230   0.04115
  13   38723.1    258.2   0.002971734   0.00079   0.02002  -0.00400  -0.01922
  14   39143.2    255.5   0.057255687   0.01532   0.07495   0.09618   0.02120
  15   39566.6    252.7   0.002273767   0.00061  -0.01523   0.00957   0.01707

-------------------------------------------------------------------
                             CD SPECTRUM
-------------------------------------------------------------------
State   Energy Wavelength       R         MX        MY        MZ   
        (cm-1)   (nm)       (1e40*cgs)   (au)      (au)      (au)  
-------------------------------------------------------------------
   0   19981.8    500.5    -258.56090  -0.83632  -5.36642  10.15141
   1   22854.6    437.5    321.76455  -1.51002   1.07848  -5.65811
   2   25493.9    392.3      6.25420  -0.57605   0.55692  -1.69258
   3   27444.4    364.4     34.17535  -0.34401   0.31225  -1.77539
   4   29488.2    339.1      8.69810   1.50858  -0.69579   2.83967
   5   30034.4    333.0    -83.70634  -0.76392  -1.64033   2.59439
   6   32783.9    305.0     32.57161  -0.33435   0.19951  -1.67664
   7   33177.0    301.4     15.08530  -0.46802   0.51467  -1.78113
   8   33978.2    294.3    -66.18995   0.40754   1.62518  -2.73876
   9   35113.1    284.8     -4.94217   0.50039  -0.08997   0.04195
  10   36675.6    272.7    -36.20429   0.88811   0.75441  -1.13257
  11   37631.1    265.7      9.62057  -0.85343   0.54279  -0.53541
  12   38174.5    262.0     31.76056   0.31140  -0.79641   0.26226
  13   38723.1    258.2      5.16034  -0.79835   1.09468  -0.99122
  14   39143.2    255.5     16.61771  -0.78427   0.15922   1.17136
  15   39566.6    252.7     -4.02715  -0.22336  -0.12671   0.04479

sTD-DFT done

Total run time:        1.041 sec

           *** ORCA-CIS/TD-DFT FINISHED WITHOUT ERROR ***

-------------------------   --------------------
FINAL SINGLE POINT ENERGY     -3589.725276033297
-------------------------   --------------------


                            ***************************************
                            *     ORCA property calculations      *
                            ***************************************

                                    ---------------------
                                    Active property flags
                                    ---------------------
   (+) Dipole Moment


------------------------------------------------------------------------------
                       ORCA ELECTRIC PROPERTIES CALCULATION
------------------------------------------------------------------------------

Dipole Moment Calculation                       ... on
Quadrupole Moment Calculation                   ... off
Polarizability Calculation                      ... off
GBWName                                         ... xtbopt.gbw
Electron density file                           ... xtbopt.scfp
The origin for moment calculation is the CENTER OF MASS  = (-3.949978, 23.471845  8.297491)

-------------
DIPOLE MOMENT
-------------
                                X             Y             Z
Electronic contribution:     -1.23798     -11.38954      -4.32819
Nuclear contribution   :      1.37077      11.53043       4.22337
                        -----------------------------------------
Total Dipole Moment    :      0.13279       0.14089      -0.10482
                        -----------------------------------------
Magnitude (a.u.)       :      0.22016
Magnitude (Debye)      :      0.55960



--------------------
Rotational spectrum 
--------------------
 
Rotational constants in cm-1:     0.005037     0.000215     0.000207 
Rotational constants in MHz :   151.009133     6.459794     6.204661 

 Dipole components along the rotational axes: 
x,y,z [a.u.] :     0.095740    -0.171118    -0.100109 
x,y,z [Debye]:     0.243351    -0.434948    -0.254456 

 

Timings for individual modules:

Sum of individual times         ...      191.654 sec (=   3.194 min)
GTO integral calculation        ...        1.540 sec (=   0.026 min)   0.8 %
SCF iterations                  ...      188.357 sec (=   3.139 min)  98.3 %
CIS module                      ...        1.757 sec (=   0.029 min)   0.9 %
                             ****ORCA TERMINATED NORMALLY****
TOTAL RUN TIME: 0 days 0 hours 3 minutes 12 seconds 502 msec
