
                                 *****************
                                 * O   R   C   A *
                                 *****************

           --- An Ab Initio, DFT and Semiempirical electronic structure package ---

                  #######################################################
                  #                        -***-                        #
                  #          Department of theory and spectroscopy      #
                  #               Directorship: Frank Neese             #
                  #        Max Planck Institute fuer Kohlenforschung    #
                  #                Kaiser Wilhelm Platz 1               #
                  #                 D-45470 Muelheim/Ruhr               #
                  #                      Germany                        #
                  #                                                     #
                  #                  All rights reserved                #
                  #                        -***-                        #
                  #######################################################


                         Program Version 4.2.0 -  RELEASE  -


 With contributions from (in alphabetic order):
   Daniel Aravena         : Magnetic Suceptibility
   Michael Atanasov       : Ab Initio Ligand Field Theory (pilot matlab implementation)
   Alexander A. Auer      : GIAO ZORA, VPT2
   Ute Becker             : Parallelization
   Giovanni Bistoni       : ED, misc. LED, open-shell LED, HFLED
   Martin Brehm           : Molecular dynamics
   Dmytro Bykov           : SCF Hessian
   Vijay G. Chilkuri      : MRCI spin determinant printing, contributions to CSF-ICE
   Dipayan Datta          : RHF DLPNO-CCSD density
   Achintya Kumar Dutta   : EOM-CC, STEOM-CC
   Dmitry Ganyushin       : Spin-Orbit,Spin-Spin,Magnetic field MRCI
   Miquel Garcia          : C-PCM Hessian, Gaussian charge scheme
   Yang Guo               : DLPNO-NEVPT2, CIM, IAO-localization
   Andreas Hansen         : Spin unrestricted coupled pair/coupled cluster methods
   Benjamin Helmich-Paris : CASSCF linear response (MC-RPA)
   Lee Huntington         : MR-EOM, pCC
   Robert Izsak           : Overlap fitted RIJCOSX, COSX-SCS-MP3, EOM
   Christian Kollmar      : KDIIS, OOCD, Brueckner-CCSD(T), CCSD density
   Simone Kossmann        : Meta GGA functionals, TD-DFT gradient, OOMP2, MP2 Hessian
   Martin Krupicka        : AUTO-CI
   Lucas Lang             : DCDCAS
   Dagmar Lenk            : GEPOL surface, SMD
   Dimitrios Liakos       : Extrapolation schemes; Compound Job, initial MDCI parallelization
   Dimitrios Manganas     : Further ROCIS development; embedding schemes
   Dimitrios Pantazis     : SARC Basis sets
   Taras Petrenko         : DFT Hessian,TD-DFT gradient, ASA, ECA, R-Raman, ABS, FL, XAS/XES, NRVS
   Peter Pinski           : DLPNO-MP2, DLPNO-MP2 Gradient
   Christoph Reimann      : Effective Core Potentials
   Marius Retegan         : Local ZFS, SOC
   Christoph Riplinger    : Optimizer, TS searches, QM/MM, DLPNO-CCSD(T), (RO)-DLPNO pert. Triples
   Tobias Risthaus        : Range-separated hybrids, TD-DFT gradient, RPA, STAB
   Michael Roemelt        : Original ROCIS implementation
   Masaaki Saitow         : Open-shell DLPNO-CCSD energy and density
   Barbara Sandhoefer     : DKH picture change effects
   Avijit Sen             : IP-ROCIS
   Kantharuban Sivalingam : CASSCF convergence, NEVPT2, FIC-MRCI
   Bernardo de Souza      : ESD, SOC TD-DFT
   Georgi Stoychev        : AutoAux, RI-MP2 NMR
   Willem Van den Heuvel  : Paramagnetic NMR
   Boris Wezisla          : Elementary symmetry handling
   Frank Wennmohs         : Technical directorship


 We gratefully acknowledge several colleagues who have allowed us to
 interface, adapt or use parts of their codes:
   Stefan Grimme, W. Hujo, H. Kruse,             : VdW corrections, initial TS optimization,
                  C. Bannwarth                     DFT functionals, gCP, sTDA/sTD-DF
   Ed Valeev, F. Pavosevic, A. Kumar             : LibInt (2-el integral package), F12 methods
   Garnet Chan, S. Sharma, J. Yang, R. Olivares  : DMRG
   Ulf Ekstrom                                   : XCFun DFT Library
   Mihaly Kallay                                 : mrcc  (arbitrary order and MRCC methods)
   Andreas Klamt, Michael Diedenhofen            : otool_cosmo (COSMO solvation model)
   Jiri Pittner, Ondrej Demel                    : Mk-CCSD
   Frank Weinhold                                : gennbo (NPA and NBO analysis)
   Christopher J. Cramer and Donald G. Truhlar   : smd solvation model
   Lars Goerigk                                  : TD-DFT with DH, B97 family of functionals
   V. Asgeirsson, H. Jonsson                     : NEB implementation
   FAccTs GmbH                                   : IRC, NEB, NEB-TS, Multilevel, MM, QM/MM, CI optimization
   S Lehtola, MJT Oliveira, MAL Marques          : LibXC Library


 Your calculation uses the libint2 library for the computation of 2-el integrals
 For citations please refer to: http://libint.valeyev.net

 Your ORCA version has been built with support for libXC version: 4.2.3
 For citations please refer to: https://tddft.org/programs/libxc/

 This ORCA versions uses:
   CBLAS   interface :  Fast vector & matrix operations
   LAPACKE interface :  Fast linear algebra routines
   SCALAPACK package :  Parallel linear algebra routines


XCFun DFT library Copyright 2009-2010 Ulf Ekstrom and contributors.
See http://admol.org/xcfun for more information. This is free soft-
ware; see the source code for copying conditions. There is ABSOLUTELY
NO WARRANTY; not even for MERCHANTABILITY or FITNESS FOR A PARTICULAR
PURPOSE. For details see the documentation. Scientific users of this 
library should cite U. Ekstrom, L. Visscher, R. Bast, A. J. Thorvald-
sen and K. Ruud; J.Chem.Theor.Comp. 2010, DOI: 10.1021/ct100117s
XCFun Version 0.99 
----- Orbital basis set information -----
Your calculation utilizes the basis: def2-SVP
   F. Weigend and R. Ahlrichs, Phys. Chem. Chem. Phys. 7, 3297 (2005).

----- AuxJ basis set information -----
Your calculation utilizes the auxiliary basis: def2/J
   F. Weigend, Phys. Chem. Chem. Phys. 8, 1057 (2006).

================================================================================
                                        WARNINGS
                       Please study these warnings very carefully!
================================================================================

INFO   : Checking CIS options ...

WARNING: CIS/ROCIS methods need fully converged wavefunctions
  ===> : Setting SCFConvForced true
         You can overwrite this default with %scf ConvForced false 


INFO   : the flag for use of LIBINT has been found!

================================================================================
                                       INPUT FILE
================================================================================
NAME = xtbopt.inp
|  1> # ORCA input file
|  2> # SCF done       -197.566728215831          0.000995916323
|  3> ! CAM-B3LYP def2-SVP def2/J RIJCOSX Grid4 TightSCF
|  4> %maxcore 5000
|  5> %tddft
|  6>     Mode sTDDFT
|  7>     Ethresh 5.0
|  8>     maxcore 5000
|  9> end
| 10> 
| 11> %pal
| 12>   nprocs 6
| 13>   end
| 14> * xyz 0 1
| 15>    C       -4.66703         4.46191         7.61112
| 16>    C       -4.78344         3.42208         8.49728
| 17>    C       -4.01657         3.29220         9.67279
| 18>    N       -3.41951         3.13728        10.64090
| 19>    C       -5.68515         2.35041         8.33777
| 20>    N       -6.40515         1.46122         8.24297
| 21>    C       -3.74642         5.59049         7.73170
| 22>    C       -3.91690         6.44576         6.61163
| 23>    C       -3.19032         7.59952         6.44183
| 24>    C       -2.25019         7.92846         7.42400
| 25>    C       -2.08719         7.07100         8.53811
| 26>    C       -2.82203         5.90261         8.70905
| 27>    S       -0.87661         7.66689         9.63087
| 28>    C       -0.60855         9.04152         8.59191
| 29>    C       -1.38528         9.05488         7.48213
| 30>   Br        0.66926        10.32849         9.06869
| 31>    C       -4.95787         5.88557         5.74432
| 32>    O       -5.37636         6.34851         4.68447
| 33>    C       -5.41601         4.65466         6.39155
| 34>    C       -6.42093         3.88935         5.84591
| 35>    N       -6.99031         4.26963         4.69707
| 36>    C       -8.01135         3.67656         4.03551
| 37>    S       -8.77196         2.23047         4.62011
| 38>    C       -9.86292         2.29341         3.27252
| 39>    N      -10.82615         1.27743         3.16479
| 40>    O      -11.58533         1.32078         2.21637
| 41>    O      -10.82431         0.42805         4.03661
| 42>    C       -9.65576         3.35494         2.43720
| 43>    C       -8.58246         4.17434         2.85057
| 44>    C       -8.11365         5.34359         2.17861
| 45>    C       -8.75679         5.97246         1.15791
| 46>    C       -8.24447         7.12498         0.53624
| 47>    C       -8.90252         7.85897        -0.41595
| 48>    C       -8.43206         9.03751        -1.04967
| 49>    C       -9.31827         9.60331        -1.91139
| 50>    C      -10.54592         8.90629        -2.01045
| 51>    S      -10.51886         7.48244        -0.99144
| 52>    C      -11.65820         9.27017        -2.73924
| 53>    C      -11.83351        10.43198        -3.52818
| 54>    C      -13.07630        10.56486        -4.06053
| 55>    C      -13.96455         9.50794        -3.72788
| 56>    S      -13.12664         8.31467        -2.73293
| 57>    C      -15.27957         9.41832        -4.07350
| 58>    N      -16.07994         8.38477        -3.69671
| 59>    C      -17.40840         8.21662        -3.90401
| 60>    S      -18.22768         7.03830        -2.91962
| 61>    C      -19.74324         7.52148        -3.62067
| 62>    N      -20.88344         6.83770        -3.18030
| 63>    O      -21.96267         7.17979        -3.61913
| 64>    O      -20.69262         5.94646        -2.36831
| 65>    C      -19.62254         8.52035        -4.54423
| 66>    C      -18.28470         8.92769        -4.74198
| 67>    C      -17.90287         9.88415        -5.74156
| 68>    C      -18.69831        10.90035        -6.15344
| 69>    C      -18.29951        11.79658        -7.17229
| 70>    C      -19.00030        12.82841        -7.72054
| 71>    C      -20.38325        13.24500        -7.61896
| 72>    C      -21.47361        12.44733        -7.38424
| 73>    C      -22.80165        12.92362        -7.36115
| 74>    N      -23.89603        13.26629        -7.31674
| 75>    C      -21.42197        11.04643        -7.23400
| 76>    N      -21.44102         9.90225        -7.13973
| 77>    C      -20.44282        14.64420        -8.03518
| 78>    C      -19.18930        15.01096        -8.58824
| 79>    C      -18.25892        13.87229        -8.47843
| 80>    O      -17.11290        13.80707        -8.86370
| 81>    C      -18.94633        16.26035        -9.10501
| 82>    C      -19.98458        17.19677        -9.06469
| 83>    C      -21.22725        16.82669        -8.49602
| 84>    C      -21.47606        15.56039        -7.98036
| 85>    S      -22.36402        18.13954        -8.53494
| 86>    C      -21.17308        19.15305        -9.30716
| 87>    C      -19.98417        18.54189        -9.52471
| 88>   Br      -21.61086        20.92155        -9.75163
| 89>    H       -3.34232         8.23021         5.57991
| 90>    H       -2.66133         5.28361         9.57585
| 91>    H       -1.35066         9.82687         6.73522
| 92>    H       -6.78587         2.98323         6.31140
| 93>    H       -6.59223         5.14904         4.31503
| 94>    H      -10.25101         3.51485         1.55731
| 95>    H       -7.17972         5.77046         2.51943
| 96>    H       -9.71292         5.60836         0.80781
| 97>    H       -7.26789         7.47633         0.84265
| 98>    H       -7.45332         9.42975        -0.83755
| 99>    H       -9.12887        10.50120        -2.47131
|100>    H      -11.03946        11.14249        -3.66751
|101>    H      -13.39332        11.38804        -4.67512
|102>    H      -15.73655        10.21922        -4.63041
|103>    H      -15.64240         7.70364        -3.08373
|104>    H      -20.45884         8.89691        -5.10813
|105>    H      -16.94715         9.74017        -6.22880
|106>    H      -19.63923        11.06724        -5.65323
|107>    H      -17.27379        11.71566        -7.52036
|108>    H      -17.98510        16.50810        -9.52738
|109>    H      -22.43687        15.32827        -7.55165
|110>    H      -19.14051        19.01854        -9.98969
|111> *
|112> 
|113>                          ****END OF INPUT****
================================================================================

                       ****************************
                       * Single Point Calculation *
                       ****************************

---------------------------------
CARTESIAN COORDINATES (ANGSTROEM)
---------------------------------
  C     -4.667030    4.461910    7.611120
  C     -4.783440    3.422080    8.497280
  C     -4.016570    3.292200    9.672790
  N     -3.419510    3.137280   10.640900
  C     -5.685150    2.350410    8.337770
  N     -6.405150    1.461220    8.242970
  C     -3.746420    5.590490    7.731700
  C     -3.916900    6.445760    6.611630
  C     -3.190320    7.599520    6.441830
  C     -2.250190    7.928460    7.424000
  C     -2.087190    7.071000    8.538110
  C     -2.822030    5.902610    8.709050
  S     -0.876610    7.666890    9.630870
  C     -0.608550    9.041520    8.591910
  C     -1.385280    9.054880    7.482130
  Br     0.669260   10.328490    9.068690
  C     -4.957870    5.885570    5.744320
  O     -5.376360    6.348510    4.684470
  C     -5.416010    4.654660    6.391550
  C     -6.420930    3.889350    5.845910
  N     -6.990310    4.269630    4.697070
  C     -8.011350    3.676560    4.035510
  S     -8.771960    2.230470    4.620110
  C     -9.862920    2.293410    3.272520
  N    -10.826150    1.277430    3.164790
  O    -11.585330    1.320780    2.216370
  O    -10.824310    0.428050    4.036610
  C     -9.655760    3.354940    2.437200
  C     -8.582460    4.174340    2.850570
  C     -8.113650    5.343590    2.178610
  C     -8.756790    5.972460    1.157910
  C     -8.244470    7.124980    0.536240
  C     -8.902520    7.858970   -0.415950
  C     -8.432060    9.037510   -1.049670
  C     -9.318270    9.603310   -1.911390
  C    -10.545920    8.906290   -2.010450
  S    -10.518860    7.482440   -0.991440
  C    -11.658200    9.270170   -2.739240
  C    -11.833510   10.431980   -3.528180
  C    -13.076300   10.564860   -4.060530
  C    -13.964550    9.507940   -3.727880
  S    -13.126640    8.314670   -2.732930
  C    -15.279570    9.418320   -4.073500
  N    -16.079940    8.384770   -3.696710
  C    -17.408400    8.216620   -3.904010
  S    -18.227680    7.038300   -2.919620
  C    -19.743240    7.521480   -3.620670
  N    -20.883440    6.837700   -3.180300
  O    -21.962670    7.179790   -3.619130
  O    -20.692620    5.946460   -2.368310
  C    -19.622540    8.520350   -4.544230
  C    -18.284700    8.927690   -4.741980
  C    -17.902870    9.884150   -5.741560
  C    -18.698310   10.900350   -6.153440
  C    -18.299510   11.796580   -7.172290
  C    -19.000300   12.828410   -7.720540
  C    -20.383250   13.245000   -7.618960
  C    -21.473610   12.447330   -7.384240
  C    -22.801650   12.923620   -7.361150
  N    -23.896030   13.266290   -7.316740
  C    -21.421970   11.046430   -7.234000
  N    -21.441020    9.902250   -7.139730
  C    -20.442820   14.644200   -8.035180
  C    -19.189300   15.010960   -8.588240
  C    -18.258920   13.872290   -8.478430
  O    -17.112900   13.807070   -8.863700
  C    -18.946330   16.260350   -9.105010
  C    -19.984580   17.196770   -9.064690
  C    -21.227250   16.826690   -8.496020
  C    -21.476060   15.560390   -7.980360
  S    -22.364020   18.139540   -8.534940
  C    -21.173080   19.153050   -9.307160
  C    -19.984170   18.541890   -9.524710
  Br   -21.610860   20.921550   -9.751630
  H     -3.342320    8.230210    5.579910
  H     -2.661330    5.283610    9.575850
  H     -1.350660    9.826870    6.735220
  H     -6.785870    2.983230    6.311400
  H     -6.592230    5.149040    4.315030
  H    -10.251010    3.514850    1.557310
  H     -7.179720    5.770460    2.519430
  H     -9.712920    5.608360    0.807810
  H     -7.267890    7.476330    0.842650
  H     -7.453320    9.429750   -0.837550
  H     -9.128870   10.501200   -2.471310
  H    -11.039460   11.142490   -3.667510
  H    -13.393320   11.388040   -4.675120
  H    -15.736550   10.219220   -4.630410
  H    -15.642400    7.703640   -3.083730
  H    -20.458840    8.896910   -5.108130
  H    -16.947150    9.740170   -6.228800
  H    -19.639230   11.067240   -5.653230
  H    -17.273790   11.715660   -7.520360
  H    -17.985100   16.508100   -9.527380
  H    -22.436870   15.328270   -7.551650
  H    -19.140510   19.018540   -9.989690

----------------------------
CARTESIAN COORDINATES (A.U.)
----------------------------
  NO LB      ZA    FRAG     MASS         X           Y           Z
   0 C     6.0000    0    12.011   -8.819409    8.431788   14.382932
   1 C     6.0000    0    12.011   -9.039392    6.466794   16.057532
   2 C     6.0000    0    12.011   -7.590217    6.221356   18.278924
   3 N     7.0000    0    14.007   -6.461937    5.928600   20.108387
   4 C     6.0000    0    12.011  -10.743377    4.441631   15.756102
   5 N     7.0000    0    14.007  -12.103979    2.761306   15.576956
   6 C     6.0000    0    12.011   -7.079708   10.564495   14.610796
   7 C     6.0000    0    12.011   -7.401868   12.180721   12.494170
   8 C     6.0000    0    12.011   -6.028831   14.361012   12.173295
   9 C     6.0000    0    12.011   -4.252243   14.982618   14.029327
  10 C     6.0000    0    12.011   -3.944217   13.362253   16.134690
  11 C     6.0000    0    12.011   -5.332864   11.154316   16.457719
  12 S    16.0000    0    32.060   -1.656553   14.488322   18.199707
  13 C     6.0000    0    12.011   -1.149993   17.085997   16.236357
  14 C     6.0000    0    12.011   -2.617800   17.111243   14.139177
  15 Br   35.0000    0    79.900    1.264718   19.518017   17.137340
  16 C     6.0000    0    12.011   -9.369017   11.122115   10.855192
  17 O     8.0000    0    15.999  -10.159848   11.996945    8.852365
  18 C     6.0000    0    12.011  -10.234776    8.796033   12.078279
  19 C     6.0000    0    12.011  -12.133799    7.349806   11.047169
  20 N     7.0000    0    14.007  -13.209771    8.068431    8.876176
  21 C     6.0000    0    12.011  -15.139257    6.947692    7.626009
  22 S    16.0000    0    32.060  -16.576602    4.214977    8.730743
  23 C     6.0000    0    12.011  -18.638218    4.333917    6.184167
  24 N     7.0000    0    14.007  -20.458459    2.413993    5.980586
  25 O     8.0000    0    15.999  -21.893101    2.495912    4.188332
  26 O     8.0000    0    15.999  -20.454981    0.808897    7.628087
  27 C     6.0000    0    12.011  -18.246742    6.339918    4.605641
  28 C     6.0000    0    12.011  -16.218499    7.888359    5.386797
  29 C     6.0000    0    12.011  -15.332576   10.097922    4.116976
  30 C     6.0000    0    12.011  -16.547935   11.286314    2.188133
  31 C     6.0000    0    12.011  -15.579790   13.464261    1.013347
  32 C     6.0000    0    12.011  -16.823325   14.851301   -0.786032
  33 C     6.0000    0    12.011  -15.934284   17.078419   -1.983589
  34 C     6.0000    0    12.011  -17.608978   18.147626   -3.612004
  35 C     6.0000    0    12.011  -19.928901   16.830449   -3.799200
  36 S    16.0000    0    32.060  -19.877765   14.139762   -1.873550
  37 C     6.0000    0    12.011  -22.030805   17.518083   -5.176413
  38 C     6.0000    0    12.011  -22.362093   19.713585   -6.667294
  39 C     6.0000    0    12.011  -24.710626   19.964692   -7.673290
  40 C     6.0000    0    12.011  -26.389175   17.967403   -7.044672
  41 S    16.0000    0    32.060  -24.805755   15.712449   -5.164489
  42 C     6.0000    0    12.011  -28.874203   17.798045   -7.697799
  43 N     7.0000    0    14.007  -30.386683   15.844919   -6.985769
  44 C     6.0000    0    12.011  -32.897108   15.527162   -7.377510
  45 S    16.0000    0    32.060  -34.445323   13.300459   -5.517282
  46 C     6.0000    0    12.011  -37.309317   14.213537   -6.842075
  47 N     7.0000    0    14.007  -39.463982   12.921380   -6.009896
  48 O     8.0000    0    15.999  -41.503431   13.567837   -6.839165
  49 O     8.0000    0    15.999  -39.103385   11.237181   -4.475457
  50 C     6.0000    0    12.011  -37.081227   16.101128   -8.587350
  51 C     6.0000    0    12.011  -34.553075   16.870889   -8.961044
  52 C     6.0000    0    12.011  -33.831521   18.678337  -10.849976
  53 C     6.0000    0    12.011  -35.334685   20.598676  -11.628316
  54 C     6.0000    0    12.011  -34.581062   22.292306  -13.553664
  55 C     6.0000    0    12.011  -35.905363   24.242182  -14.589706
  56 C     6.0000    0    12.011  -38.518760   25.029423  -14.397748
  57 C     6.0000    0    12.011  -40.579242   23.522045  -13.954191
  58 C     6.0000    0    12.011  -43.088874   24.422102  -13.910558
  59 N     7.0000    0    14.007  -45.156952   25.069655  -13.826635
  60 C     6.0000    0    12.011  -40.481657   20.874727  -13.670279
  61 N     7.0000    0    14.007  -40.517656   18.712541  -13.492134
  62 C     6.0000    0    12.011  -38.631331   27.673527  -15.184290
  63 C     6.0000    0    12.011  -36.262522   28.366603  -16.229422
  64 C     6.0000    0    12.011  -34.504358   26.214829  -16.021911
  65 O     8.0000    0    15.999  -32.338694   26.091581  -16.749966
  66 C     6.0000    0    12.011  -35.803375   30.727608  -17.205975
  67 C     6.0000    0    12.011  -37.765383   32.497186  -17.129782
  68 C     6.0000    0    12.011  -40.113689   31.797836  -16.055151
  69 C     6.0000    0    12.011  -40.583872   29.404876  -15.080695
  70 S    16.0000    0    32.060  -42.261873   34.278763  -16.128699
  71 C     6.0000    0    12.011  -40.011323   36.194019  -17.587983
  72 C     6.0000    0    12.011  -37.764608   35.039094  -17.999093
  73 Br   35.0000    0    79.900  -40.838607   39.536000  -18.427910
  74 H     1.0000    0     1.008   -6.316069   15.552843   10.544502
  75 H     1.0000    0     1.008   -5.029185    9.984576   18.095734
  76 H     1.0000    0     1.008   -2.552378   18.570093   12.727721
  77 H     1.0000    0     1.008  -12.823436    5.637488   11.926818
  78 H     1.0000    0     1.008  -12.457509    9.730275    8.154225
  79 H     1.0000    0     1.008  -19.371601    6.642104    2.942889
  80 H     1.0000    0     1.008  -13.567705   10.904589    4.761033
  81 H     1.0000    0     1.008  -18.354759   10.598264    1.526540
  82 H     1.0000    0     1.008  -13.734322   14.128216    1.592378
  83 H     1.0000    0     1.008  -14.084734   17.819645   -1.582740
  84 H     1.0000    0     1.008  -17.251064   19.844392   -4.670099
  85 H     1.0000    0     1.008  -20.861556   21.056255   -6.930589
  86 H     1.0000    0     1.008  -25.309707   21.520277   -8.834696
  87 H     1.0000    0     1.008  -29.737770   19.311527   -8.750207
  88 H     1.0000    0     1.008  -29.559852   14.557770   -5.827405
  89 H     1.0000    0     1.008  -38.661605   16.812723   -9.652967
  90 H     1.0000    0     1.008  -32.025472   18.406254  -11.770726
  91 H     1.0000    0     1.008  -37.112766   20.914053  -10.683056
  92 H     1.0000    0     1.008  -32.642732   22.139389  -14.211421
  93 H     1.0000    0     1.008  -33.986913   31.195788  -18.004139
  94 H     1.0000    0     1.008  -42.399540   28.966232  -14.270550
  95 H     1.0000    0     1.008  -36.170322   35.939832  -18.877778

--------------------------------
INTERNAL COORDINATES (ANGSTROEM)
--------------------------------
 C      0   0   0     0.000000000000     0.00000000     0.00000000
 C      1   0   0     1.371159094562     0.00000000     0.00000000
 C      2   1   0     1.409532607427   124.24075905     0.00000000
 N      3   2   1     1.147918909200   177.13831584   180.58986964
 C      2   1   3     1.409610213180   123.89862945   180.18770696
 N      5   2   1     1.148061799774   177.93726818   179.22034227
 C      1   2   3     1.461422295197   125.85936627     0.00000000
 C      7   1   2     1.419544648188   108.93657440   179.38378669
 C      8   7   1     1.374013345641   122.67809895   179.84291273
 C      9   8   7     1.398822308015   117.78078046   359.93356297
 C     10   9   8     1.415290692296   119.18668416     0.00000000
 C      7   1   2     1.380988337749   130.88878349   359.12752711
 S     11  10   9     1.736292960908   111.58027236   180.10407130
 C     13  11  10     1.743818133321    90.15710987     0.00000000
 C     14  13  11     1.354658492351   114.06232221     0.00000000
 Br    14  13  11     1.875209147109   119.62177296   179.97253089
 C      8   7   1     1.466171208659   108.77291781     0.15447665
 O     17   8   7     1.229930626580   127.40982298   180.01432794
 C      1   2   3     1.444117234784   127.08373969   179.86674272
 C     19   1   2     1.375967518548   129.74981280     1.67830791
 N     20  19   1     1.337400391954   119.56566072   179.32561309
 C     21  20  19     1.353483040197   128.05685270   182.28614547
 S     22  21  20     1.735356165229   122.08163225   359.51931866
 C     23  22  21     1.734979531090    89.06705050   178.18517897
 N     24  23  22     1.404148548481   117.69048320   179.65079768
 O     25  24  23     1.215620825463   117.54660017   180.32003239
 O     25  24  23     1.217177013585   116.67484871     0.34045456
 C     24  23  22     1.366572613841   114.05597711   359.82939472
 C     22  21  20     1.406426096210   124.26733182   177.61373971
 C     29  22  21     1.427745992885   123.57597539     2.45307721
 C     30  29  22     1.360490730031   125.19938424   190.74745033
 C     31  30  29     1.406146408344   122.56926587   179.88218709
 C     32  31  30     1.370560804452   124.83148739   185.74521504
 C     33  32  31     1.418411146882   126.59265427   178.83893336
 C     34  33  32     1.359433397596   114.38101673   183.13917057
 C     35  34  33     1.415194080860   113.88394913     0.06866683
 S     36  35  34     1.751131761519   110.26341401   358.77474241
 C     36  35  34     1.378662510153   127.36367171   176.22170753
 C     38  36  35     1.415260539901   127.68269413   358.58966063
 C     39  38  36     1.358521476091   114.33414310   184.23532570
 C     40  39  38     1.420114069855   114.05461263   359.77694957
 S     38  36  35     1.751952082592   122.03048314   181.41753086
 C     41  40  39     1.362630738388   126.38152076   176.80941593
 N     43  41  40     1.360436857594   123.19428178   181.30881632
 C     44  43  41     1.355010584497   128.95398926   175.69528468
 S     45  44  43     1.740310723089   117.32438021   197.35791045
 C     46  45  44     1.738348678632    89.66327499   174.73504749
 N     47  46  45     1.400548772910   116.56837308   179.20515869
 O     48  47  46     1.214221861893   118.19110224   177.71429674
 O     48  47  46     1.220675538421   115.99884395   358.33839201
 C     47  46  45     1.365749918726   113.51257228   359.89837071
 C     45  44  43     1.405601634817   129.76547579    11.94641437
 C     52  45  44     1.435189902731   125.90835895    10.51638274
 C     53  52  45     1.354633665609   123.74373706   206.81903030
 C     54  53  52     1.414328453861   121.92600026   182.03609806
 C     55  54  53     1.362482233095   128.66288248   177.54203098
 C     56  55  54     1.447900696526   132.91712100   349.88462458
 C     57  56  55     1.371224211025   127.16688953   331.28417352
 C     58  57  56     1.411054766407   123.69949932   183.07564216
 N     59  58  57     1.147633461258   177.33034799   197.44447094
 C     58  57  56     1.409879270434   124.55047617   358.24186539
 N     61  58  57     1.148214965849   176.63968541   212.38936299
 C     57  56  55     1.461009347438   107.12787439   160.65425343
 C     63  57  56     1.418344334638   108.82598079     9.49336810
 C     64  63  57     1.474528585481   109.20323853   357.03366632
 O     65  64  63     1.210804881763   127.95970651   178.53026548
 C     64  63  57     1.373703398081   122.56043337   178.13971206
 C     67  64  63     1.398739139833   117.82407618     0.55503747
 C     68  67  64     1.415829616938   119.21441454     0.22294120
 C     63  57  56     1.382025414419   130.84913975   188.47920910
 S     69  68  67     1.737048048213   111.58209851   179.44994630
 C     71  69  68     1.744094129369    90.12891557     0.12245715
 C     72  71  69     1.354382344909   114.09877983   359.95696812
 Br    72  71  69     1.875312549763   119.57391309   180.00977680
 H      9   8   7     1.078786337743   121.00698543   180.02754471
 H     12   7   1     1.077185095515   122.64799494     0.16318404
 H     15  14  13     1.074728641379   123.91486522   179.99552367
 H     20  19   1     1.082088535241   122.78392186   359.82585534
 H     21  20  19     1.038163858020   113.18657999     0.11294644
 H     28  24  23     1.074290548548   122.15911991   179.42152175
 H     30  29  22     1.081943396948   117.27669444     9.78758326
 H     31  30  29     1.081352577516   120.34759863     1.50848048
 H     32  31  30     1.082147128167   118.01700117     4.35611376
 H     34  33  32     1.075536656558   121.11337000     2.63375003
 H     35  34  33     1.074983357313   124.25981820   179.63312718
 H     39  38  36     1.074594207829   121.56912351     3.35875735
 H     40  39  38     1.075103651236   124.65651538   179.25844041
 H     43  41  40     1.077228053153   119.44752255   358.15405066
 H     44  43  41     1.015442666476   115.04250297     3.70325662
 H     51  47  46     1.076651444805   122.77408947   176.64960627
 H     53  52  45     1.082374138826   117.37369500    30.60433765
 H     54  53  52     1.078606861929   119.16372737     5.59697567
 H     55  54  53     1.086187041766   116.73800277   352.15570935
 H     67  64  63     1.078767626646   120.91506533   180.55188365
 H     70  63  57     1.077417196169   122.66139965     2.30502964
 H     73  72  71     1.074785475572   123.94694640   179.98732974

---------------------------
INTERNAL COORDINATES (A.U.)
---------------------------
 C      0   0   0     0.000000000000     0.00000000     0.00000000
 C      1   0   0     2.591115174758     0.00000000     0.00000000
 C      2   1   0     2.663630604869   124.24075905     0.00000000
 N      3   2   1     2.169252362339   177.13831584   180.58986964
 C      2   1   3     2.663777258488   123.89862945   180.18770696
 N      5   2   1     2.169522386389   177.93726818   179.22034227
 C      1   2   3     2.761687903930   125.85936627     0.00000000
 C      7   1   2     2.682550619949   108.93657440   179.38378669
 C      8   7   1     2.596508927615   122.67809895   179.84291273
 C      9   8   7     2.643391072168   117.78078046   359.93356297
 C     10   9   8     2.674511808327   119.18668416     0.00000000
 C      7   1   2     2.609689752486   130.88878349   359.12752711
 S     11  10   9     3.281118184372   111.58027236   180.10407130
 C     13  11  10     3.295338699343    90.15710987     0.00000000
 C     14  13  11     2.559933555535   114.06232221     0.00000000
 Br    14  13  11     3.543631731859   119.62177296   179.97253089
 C      8   7   1     2.770662049805   108.77291781     0.15447665
 O     17   8   7     2.324232047959   127.40982298   180.01432794
 C      1   2   3     2.728986079017   127.08373969   179.86674272
 C     19   1   2     2.600201779228   129.74981280     1.67830791
 N     20  19   1     2.527320472193   119.56566072   179.32561309
 C     21  20  19     2.557712272879   128.05685270   182.28614547
 S     22  21  20     3.279347897096   122.08163225   359.51931866
 C     23  22  21     3.278636161719    89.06705050   178.18517897
 N     24  23  22     2.653456207971   117.69048320   179.65079768
 O     25  24  23     2.297190442817   117.54660017   180.32003239
 O     25  24  23     2.300131212180   116.67484871     0.34045456
 C     24  23  22     2.582447982276   114.05597711   359.82939472
 C     22  21  20     2.657760149437   124.26733182   177.61373971
 C     29  22  21     2.698048915357   123.57597539     2.45307721
 C     30  29  22     2.570954887497   125.19938424   190.74745033
 C     31  30  29     2.657231615968   122.56926587   179.88218709
 C     32  31  30     2.589984570301   124.83148739   185.74521504
 C     33  32  31     2.680408612909   126.59265427   178.83893336
 C     34  33  32     2.568956818763   114.38101673   183.13917057
 C     35  34  33     2.674329239171   113.88394913     0.06866683
 S     36  35  34     3.309159453682   110.26341401   358.77474241
 C     36  35  34     2.605294575293   127.36367171   176.22170753
 C     38  36  35     2.674454828558   127.68269413   358.58966063
 C     39  38  36     2.567233536862   114.33414310   184.23532570
 C     40  39  38     2.683626670954   114.05461263   359.77694957
 S     38  36  35     3.310709635853   122.03048314   181.41753086
 C     41  40  39     2.574998917216   126.38152076   176.80941593
 N     43  41  40     2.570853083345   123.19428178   181.30881632
 C     44  43  41     2.560598913265   128.95398926   175.69528468
 S     45  44  43     3.288710654565   117.32438021   197.35791045
 C     46  45  44     3.285002927877    89.66327499   174.73504749
 N     47  46  45     2.646653618000   116.56837308   179.20515869
 O     48  47  46     2.294546784799   118.19110224   177.71429674
 O     48  47  46     2.306742465993   115.99884395   358.33839201
 C     47  46  45     2.580893313817   113.51257228   359.89837071
 C     45  44  43     2.656202143196   129.76547579    11.94641437
 C     52  45  44     2.712115866330   125.90835895    10.51638274
 C     53  52  45     2.559886639790   123.74373706   206.81903030
 C     54  53  52     2.672693441209   121.92600026   182.03609806
 C     55  54  53     2.574718282883   128.66288248   177.54203098
 C     56  55  54     2.736135785548   132.91712100   349.88462458
 C     57  56  55     2.591238227039   127.16688953   331.28417352
 C     58  57  56     2.666507068474   123.69949932   183.07564216
 N     59  58  57     2.168712943903   177.33034799   197.44447094
 C     58  57  56     2.664285703013   124.55047617   358.24186539
 N     61  58  57     2.169811828325   176.63968541   212.38936299
 C     57  56  55     2.760907545756   107.12787439   160.65425343
 C     63  57  56     2.680282356065   108.82598079     9.49336810
 C     64  63  57     2.786455203197   109.20323853   357.03366632
 O     65  64  63     2.288089628146   127.95970651   178.53026548
 C     64  63  57     2.595923211611   122.56043337   178.13971206
 C     67  64  63     2.643233907080   117.82407618     0.55503747
 C     68  67  64     2.675530228308   119.21441454     0.22294120
 C     63  57  56     2.611649543371   130.84913975   188.47920910
 S     69  68  67     3.282545092585   111.58209851   179.44994630
 C     71  69  68     3.295860256288    90.12891557     0.12245715
 C     72  71  69     2.559411712495   114.09877983   359.95696812
 Br    72  71  69     3.543827134558   119.57391309   180.00977680
 H      9   8   7     2.038610735349   121.00698543   180.02754471
 H     12   7   1     2.035584826065   122.64799494     0.16318404
 H     15  14  13     2.030942800487   123.91486522   179.99552367
 H     20  19   1     2.044850984261   122.78392186   359.82585534
 H     21  20  19     1.961845373794   113.18657999     0.11294644
 H     28  24  23     2.030114925016   122.15911991   179.42152175
 H     30  29  22     2.044576712637   117.27669444     9.78758326
 H     31  30  29     2.043460225715   120.34759863     1.50848048
 H     32  31  30     2.044961708845   118.01700117     4.35611376
 H     34  33  32     2.032469727888   121.11337000     2.63375003
 H     35  34  33     2.031424143845   124.25981820   179.63312718
 H     39  38  36     2.030688757895   121.56912351     3.35875735
 H     40  39  38     2.031651466414   124.65651538   179.25844041
 H     43  41  40     2.035666004237   119.44752255   358.15405066
 H     44  43  41     1.918908544338   115.04250297     3.70325662
 H     51  47  46     2.034576372371   122.77408947   176.64960627
 H     53  52  45     2.045390696821   117.37369500    30.60433765
 H     54  53  52     2.038271575214   119.16372737     5.59697567
 H     55  54  53     2.052596039151   116.73800277   352.15570935
 H     67  64  63     2.038575376502   120.91506533   180.55188365
 H     70  63  57     2.036023432736   122.66139965     2.30502964
 H     73  72  71     2.031050201547   123.94694640   179.98732974

---------------------
BASIS SET INFORMATION
---------------------
There are 6 groups of distinct atoms

 Group   1 Type C   : 7s4p1d contracted to 3s2p1d pattern {511/31/1}
 Group   2 Type N   : 7s4p1d contracted to 3s2p1d pattern {511/31/1}
 Group   3 Type S   : 10s7p1d contracted to 4s3p1d pattern {5311/511/1}
 Group   4 Type Br  : 14s10p6d contracted to 5s4p3d pattern {63311/5311/411}
 Group   5 Type O   : 7s4p1d contracted to 3s2p1d pattern {511/31/1}
 Group   6 Type H   : 4s1p contracted to 2s1p pattern {31/1}

Atom   0C    basis set group =>   1
Atom   1C    basis set group =>   1
Atom   2C    basis set group =>   1
Atom   3N    basis set group =>   2
Atom   4C    basis set group =>   1
Atom   5N    basis set group =>   2
Atom   6C    basis set group =>   1
Atom   7C    basis set group =>   1
Atom   8C    basis set group =>   1
Atom   9C    basis set group =>   1
Atom  10C    basis set group =>   1
Atom  11C    basis set group =>   1
Atom  12S    basis set group =>   3
Atom  13C    basis set group =>   1
Atom  14C    basis set group =>   1
Atom  15Br   basis set group =>   4
Atom  16C    basis set group =>   1
Atom  17O    basis set group =>   5
Atom  18C    basis set group =>   1
Atom  19C    basis set group =>   1
Atom  20N    basis set group =>   2
Atom  21C    basis set group =>   1
Atom  22S    basis set group =>   3
Atom  23C    basis set group =>   1
Atom  24N    basis set group =>   2
Atom  25O    basis set group =>   5
Atom  26O    basis set group =>   5
Atom  27C    basis set group =>   1
Atom  28C    basis set group =>   1
Atom  29C    basis set group =>   1
Atom  30C    basis set group =>   1
Atom  31C    basis set group =>   1
Atom  32C    basis set group =>   1
Atom  33C    basis set group =>   1
Atom  34C    basis set group =>   1
Atom  35C    basis set group =>   1
Atom  36S    basis set group =>   3
Atom  37C    basis set group =>   1
Atom  38C    basis set group =>   1
Atom  39C    basis set group =>   1
Atom  40C    basis set group =>   1
Atom  41S    basis set group =>   3
Atom  42C    basis set group =>   1
Atom  43N    basis set group =>   2
Atom  44C    basis set group =>   1
Atom  45S    basis set group =>   3
Atom  46C    basis set group =>   1
Atom  47N    basis set group =>   2
Atom  48O    basis set group =>   5
Atom  49O    basis set group =>   5
Atom  50C    basis set group =>   1
Atom  51C    basis set group =>   1
Atom  52C    basis set group =>   1
Atom  53C    basis set group =>   1
Atom  54C    basis set group =>   1
Atom  55C    basis set group =>   1
Atom  56C    basis set group =>   1
Atom  57C    basis set group =>   1
Atom  58C    basis set group =>   1
Atom  59N    basis set group =>   2
Atom  60C    basis set group =>   1
Atom  61N    basis set group =>   2
Atom  62C    basis set group =>   1
Atom  63C    basis set group =>   1
Atom  64C    basis set group =>   1
Atom  65O    basis set group =>   5
Atom  66C    basis set group =>   1
Atom  67C    basis set group =>   1
Atom  68C    basis set group =>   1
Atom  69C    basis set group =>   1
Atom  70S    basis set group =>   3
Atom  71C    basis set group =>   1
Atom  72C    basis set group =>   1
Atom  73Br   basis set group =>   4
Atom  74H    basis set group =>   6
Atom  75H    basis set group =>   6
Atom  76H    basis set group =>   6
Atom  77H    basis set group =>   6
Atom  78H    basis set group =>   6
Atom  79H    basis set group =>   6
Atom  80H    basis set group =>   6
Atom  81H    basis set group =>   6
Atom  82H    basis set group =>   6
Atom  83H    basis set group =>   6
Atom  84H    basis set group =>   6
Atom  85H    basis set group =>   6
Atom  86H    basis set group =>   6
Atom  87H    basis set group =>   6
Atom  88H    basis set group =>   6
Atom  89H    basis set group =>   6
Atom  90H    basis set group =>   6
Atom  91H    basis set group =>   6
Atom  92H    basis set group =>   6
Atom  93H    basis set group =>   6
Atom  94H    basis set group =>   6
Atom  95H    basis set group =>   6
---------------------------------
AUXILIARY/J BASIS SET INFORMATION
---------------------------------
There are 6 groups of distinct atoms

 Group   1 Type C   : 12s5p4d2f1g contracted to 6s4p3d1f1g pattern {711111/2111/211/2/1}
 Group   2 Type N   : 12s5p4d2f1g contracted to 6s4p3d1f1g pattern {711111/2111/211/2/1}
 Group   3 Type S   : 14s5p5d2f1g contracted to 8s4p3d1f1g pattern {71111111/2111/311/2/1}
 Group   4 Type Br  : 19s5p5d3f1g contracted to 8s4p3d2f1g pattern {121111111/2111/311/21/1}
 Group   5 Type O   : 12s5p4d2f1g contracted to 6s4p3d1f1g pattern {711111/2111/211/2/1}
 Group   6 Type H   : 5s2p1d contracted to 3s1p1d pattern {311/2/1}

Atom   0C    basis set group =>   1
Atom   1C    basis set group =>   1
Atom   2C    basis set group =>   1
Atom   3N    basis set group =>   2
Atom   4C    basis set group =>   1
Atom   5N    basis set group =>   2
Atom   6C    basis set group =>   1
Atom   7C    basis set group =>   1
Atom   8C    basis set group =>   1
Atom   9C    basis set group =>   1
Atom  10C    basis set group =>   1
Atom  11C    basis set group =>   1
Atom  12S    basis set group =>   3
Atom  13C    basis set group =>   1
Atom  14C    basis set group =>   1
Atom  15Br   basis set group =>   4
Atom  16C    basis set group =>   1
Atom  17O    basis set group =>   5
Atom  18C    basis set group =>   1
Atom  19C    basis set group =>   1
Atom  20N    basis set group =>   2
Atom  21C    basis set group =>   1
Atom  22S    basis set group =>   3
Atom  23C    basis set group =>   1
Atom  24N    basis set group =>   2
Atom  25O    basis set group =>   5
Atom  26O    basis set group =>   5
Atom  27C    basis set group =>   1
Atom  28C    basis set group =>   1
Atom  29C    basis set group =>   1
Atom  30C    basis set group =>   1
Atom  31C    basis set group =>   1
Atom  32C    basis set group =>   1
Atom  33C    basis set group =>   1
Atom  34C    basis set group =>   1
Atom  35C    basis set group =>   1
Atom  36S    basis set group =>   3
Atom  37C    basis set group =>   1
Atom  38C    basis set group =>   1
Atom  39C    basis set group =>   1
Atom  40C    basis set group =>   1
Atom  41S    basis set group =>   3
Atom  42C    basis set group =>   1
Atom  43N    basis set group =>   2
Atom  44C    basis set group =>   1
Atom  45S    basis set group =>   3
Atom  46C    basis set group =>   1
Atom  47N    basis set group =>   2
Atom  48O    basis set group =>   5
Atom  49O    basis set group =>   5
Atom  50C    basis set group =>   1
Atom  51C    basis set group =>   1
Atom  52C    basis set group =>   1
Atom  53C    basis set group =>   1
Atom  54C    basis set group =>   1
Atom  55C    basis set group =>   1
Atom  56C    basis set group =>   1
Atom  57C    basis set group =>   1
Atom  58C    basis set group =>   1
Atom  59N    basis set group =>   2
Atom  60C    basis set group =>   1
Atom  61N    basis set group =>   2
Atom  62C    basis set group =>   1
Atom  63C    basis set group =>   1
Atom  64C    basis set group =>   1
Atom  65O    basis set group =>   5
Atom  66C    basis set group =>   1
Atom  67C    basis set group =>   1
Atom  68C    basis set group =>   1
Atom  69C    basis set group =>   1
Atom  70S    basis set group =>   3
Atom  71C    basis set group =>   1
Atom  72C    basis set group =>   1
Atom  73Br   basis set group =>   4
Atom  74H    basis set group =>   6
Atom  75H    basis set group =>   6
Atom  76H    basis set group =>   6
Atom  77H    basis set group =>   6
Atom  78H    basis set group =>   6
Atom  79H    basis set group =>   6
Atom  80H    basis set group =>   6
Atom  81H    basis set group =>   6
Atom  82H    basis set group =>   6
Atom  83H    basis set group =>   6
Atom  84H    basis set group =>   6
Atom  85H    basis set group =>   6
Atom  86H    basis set group =>   6
Atom  87H    basis set group =>   6
Atom  88H    basis set group =>   6
Atom  89H    basis set group =>   6
Atom  90H    basis set group =>   6
Atom  91H    basis set group =>   6
Atom  92H    basis set group =>   6
Atom  93H    basis set group =>   6
Atom  94H    basis set group =>   6
Atom  95H    basis set group =>   6


           ************************************************************
           *        Program running with 6 parallel MPI-processes     *
           *              working on a common directory               *
           ************************************************************
------------------------------------------------------------------------------
                           ORCA GTO INTEGRAL CALCULATION
                           -- RI-GTO INTEGRALS CHOSEN --
------------------------------------------------------------------------------

                         BASIS SET STATISTICS AND STARTUP INFO

Gaussian basis set:
 # of primitive gaussian shells          ... 1070
 # of primitive gaussian functions       ... 2102
 # of contracted shells                  ...  534
 # of contracted basis functions         ... 1206
 Highest angular momentum                ...    2
 Maximum contraction depth               ...    6
Auxiliary gaussian basis set:
 # of primitive gaussian shells          ... 1988
 # of primitive gaussian functions       ... 5612
 # of contracted shells                  ... 1238
 # of contracted aux-basis functions     ... 3898
 Highest angular momentum                ...    4
 Maximum contraction depth               ...   12
Ratio of auxiliary to basis functions    ...  3.23
Integral package used                  ... LIBINT
 One Electron integrals                  ... done
 Ordering auxiliary basis shells         ... done
 Integral threshhold             Thresh  ...  2.500e-11
 Primitive cut-off               TCut    ...  2.500e-12
 Pre-screening matrix                    ... done
 Shell pair data                         ... 
 Ordering of the shell pairs             ... done (   0.008 sec) 37737 of 142845 pairs
 Determination of significant pairs      ... done (   0.000 sec)
 Creation of shell pair data             ... done (   0.004 sec)
 Storage of shell pair data              ... done (   0.532 sec)
 Shell pair data done in (   0.544 sec)
 Computing two index integrals           ... done
 Cholesky decomposition of the V-matrix  ... done


Timings:
 Total evaluation time                   ...   4.714 sec (  0.079 min)
 One electron matrix time                ...   0.720 sec (  0.012 min) = 15.3%
 Schwartz matrix evaluation time         ...   0.778 sec (  0.013 min) = 16.5%
 Two index repulsion integral time       ...   0.489 sec (  0.008 min) = 10.4%
 Cholesky decomposition of V             ...   2.166 sec (  0.036 min) = 45.9%
 Three index repulsion integral time     ...   0.000 sec (  0.000 min) =  0.0%



           ************************************************************
           *        Program running with 6 parallel MPI-processes     *
           *              working on a common directory               *
           ************************************************************
-------------------------------------------------------------------------------
                                 ORCA SCF
-------------------------------------------------------------------------------

------------
SCF SETTINGS
------------
Hamiltonian:
 Density Functional     Method          .... DFT(GTOs)
 Exchange Functional    Exchange        .... WB88
 Correlation Functional Correlation     .... LYP
 LDA part of GGA corr.  LDAOpt          .... VWN-5
 Gradients option       PostSCFGGA      .... off
 Hybrid DFT is turned on
   Fraction HF Exchange ScalHFX         ....  0.190000
   Scaling of DF-GGA-X  ScalDFX         ....  0.350000
   Scaling of DF-GGA-C  ScalDFC         ....  0.810000
   Scaling of DF-LDA-C  ScalLDAC        ....  1.000000
   Perturbative correction              ....  0.000000
   Density functional embedding theory  .... OFF
 Long-range corrected/Screened/Range-Separated Hybrid DFT is turned on
   Amount of maximum screened exact exchange              ....  0.460000
   Range separation parameter mu (erf(mu*r12)/r12)        ....  0.330000
 RI-approximation to the Coulomb term is turned on
   Number of auxiliary basis functions  .... 3898
   RIJ-COSX (HFX calculated with COS-X)).... on


General Settings:
 Integral files         IntName         .... xtbopt
 Hartree-Fock type      HFTyp           .... RHF
 Total Charge           Charge          ....    0
 Multiplicity           Mult            ....    1
 Number of Electrons    NEL             ....  604
 Basis Dimension        Dim             .... 1206
 Nuclear Repulsion      ENuc            ....  11640.5258309167 Eh

Convergence Acceleration:
 DIIS                   CNVDIIS         .... on
   Start iteration      DIISMaxIt       ....    12
   Startup error        DIISStart       ....  0.200000
   # of expansion vecs  DIISMaxEq       ....     5
   Bias factor          DIISBfac        ....   1.050
   Max. coefficient     DIISMaxC        ....  10.000
 Newton-Raphson         CNVNR           .... off
 SOSCF                  CNVSOSCF        .... on
   Start iteration      SOSCFMaxIt      ....   150
   Startup grad/error   SOSCFStart      ....  0.003300
 Level Shifting         CNVShift        .... on
   Level shift para.    LevelShift      ....    0.2500
   Turn off err/grad.   ShiftErr        ....    0.0010
 Zerner damping         CNVZerner       .... off
 Static damping         CNVDamp         .... on
   Fraction old density DampFac         ....    0.7000
   Max. Damping (<1)    DampMax         ....    0.9800
   Min. Damping (>=0)   DampMin         ....    0.0000
   Turn off err/grad.   DampErr         ....    0.1000
 Fernandez-Rico         CNVRico         .... off

SCF Procedure:
 Maximum # iterations   MaxIter         ....   125
 SCF integral mode      SCFMode         .... Direct
   Integral package                     .... LIBINT
 Reset frequency        DirectResetFreq ....    20
 Integral Threshold     Thresh          ....  2.500e-11 Eh
 Primitive CutOff       TCut            ....  2.500e-12 Eh

Convergence Tolerance:
 Convergence Check Mode ConvCheckMode   .... Total+1el-Energy
 Convergence forced     ConvForced      .... 1
 Energy Change          TolE            ....  1.000e-08 Eh
 1-El. energy change                    ....  1.000e-05 Eh
 Orbital Gradient       TolG            ....  1.000e-05
 Orbital Rotation angle TolX            ....  1.000e-05
 DIIS Error             TolErr          ....  5.000e-07


Diagonalization of the overlap matrix:
Smallest eigenvalue                        ... 1.962e-04
Time for diagonalization                   ...    0.873 sec
Threshold for overlap eigenvalues          ... 1.000e-08
Number of eigenvalues below threshold      ... 0
Time for construction of square roots      ...    0.536 sec
Total time needed                          ...    1.413 sec

-------------------
DFT GRID GENERATION
-------------------

General Integration Accuracy     IntAcc      ...  4.670
Radial Grid Type                 RadialGrid  ... Gauss-Chebyshev
Angular Grid (max. acc.)         AngularGrid ... Lebedev-302
Angular grid pruning method      GridPruning ... 3 (G Style)
Weight generation scheme         WeightScheme... Becke
Basis function cutoff            BFCut       ...    1.0000e-11
Integration weight cutoff        WCut        ...    1.0000e-14
Grids for H and He will be reduced by one unit

# of grid points (after initial pruning)     ... 544968 (   0.0 sec)
# of grid points (after weights+screening)   ... 476847 (   7.1 sec)
nearest neighbour list constructed           ...    0.0 sec
Grid point re-assignment to atoms done       ...    0.1 sec
Grid point division into batches done        ...    2.0 sec
Reduced shell lists constructed in    2.9 sec

Total number of grid points                  ...   476847
Total number of batches                      ...     7501
Average number of points per batch           ...       63
Average number of grid points per atom       ...     4967
Average number of shells per batch           ...    73.85 (13.83%)
Average number of basis functions per batch  ...   161.13 (13.36%)
Average number of large shells per batch     ...    48.19 (65.25%)
Average number of large basis fcns per batch ...   106.33 (65.99%)
Maximum spatial batch extension              ...  22.32, 20.50, 21.36 au
Average spatial batch extension              ...   0.41,  0.39,  0.40 au

Time for grid setup =   11.679 sec

------------------------------
INITIAL GUESS: MODEL POTENTIAL
------------------------------
Loading Hartree-Fock densities                     ... done
Calculating cut-offs                               ... done
Setting up the integral package                    ... done
Initializing the effective Hamiltonian             ... done
Starting the Coulomb interaction                   ... done (   1.1 sec)
Reading the grid                                   ... done
Mapping shells                                     ... done
Starting the XC term evaluation                    ... done (   1.9 sec)
  promolecular density results
     # of electrons  =    603.988900588
     EX              =   -701.911990577
     EC              =    -22.119423012
     EX+EC           =   -724.031413589
Transforming the Hamiltonian                       ... done (   0.4 sec)
Diagonalizing the Hamiltonian                      ... done (   0.7 sec)
Back transforming the eigenvectors                 ... done (   0.2 sec)
Now organizing SCF variables                       ... done
                      ------------------
                      INITIAL GUESS DONE (  16.3 sec)
                      ------------------
--------------------
COSX GRID GENERATION
--------------------

General Integration Accuracy     IntAcc      ...  3.340
Radial Grid Type                 RadialGrid  ... Gauss-Chebyshev
Angular Grid (max. acc.)         AngularGrid ... Lebedev-50
Angular grid pruning method      GridPruning ... 3 (G Style)
Weight generation scheme         WeightScheme... Becke
Basis function cutoff            BFCut       ...    1.0000e-11
Integration weight cutoff        WCut        ...    1.0000e-14
Grids for H and He will be reduced by one unit

# of grid points (after initial pruning)     ...  51528 (   0.0 sec)
# of grid points (after weights+screening)   ...  46866 (   0.6 sec)
nearest neighbour list constructed           ...    0.0 sec
Grid point re-assignment to atoms done       ...    0.0 sec
Grid point division into batches done        ...    0.0 sec
Reduced shell lists constructed in    0.1 sec

Total number of grid points                  ...    46866
Total number of batches                      ...      781
Average number of points per batch           ...       60
Average number of grid points per atom       ...      488
Average number of shells per batch           ...    90.02 (16.86%)
Average number of basis functions per batch  ...   197.91 (16.41%)
Average number of large shells per batch     ...    58.89 (65.43%)
Average number of large basis fcns per batch ...   132.14 (66.77%)
Maximum spatial batch extension              ...  21.52, 18.92, 19.75 au
Average spatial batch extension              ...   1.02,  0.88,  0.91 au

Overlap Fitting                  UseSFitting ... on
Constructing numerical overlap ... done (      0.3 sec)
Inverting numerical overlap    ... done (      0.2 sec)
Obtaining analytic overlap     ... done (      0.0 sec)
Final contraction and storage  ... done (      0.6 sec)


General Integration Accuracy     IntAcc      ...  3.670
Radial Grid Type                 RadialGrid  ... Gauss-Chebyshev
Angular Grid (max. acc.)         AngularGrid ... Lebedev-50
Angular grid pruning method      GridPruning ... 3 (G Style)
Weight generation scheme         WeightScheme... Becke
Basis function cutoff            BFCut       ...    1.0000e-11
Integration weight cutoff        WCut        ...    1.0000e-14
Grids for H and He will be reduced by one unit

# of grid points (after initial pruning)     ...  63964 (   0.0 sec)
# of grid points (after weights+screening)   ...  57912 (   0.8 sec)
nearest neighbour list constructed           ...    0.0 sec
Grid point re-assignment to atoms done       ...    0.0 sec
Grid point division into batches done        ...    0.0 sec
Reduced shell lists constructed in    0.1 sec

Total number of grid points                  ...    57912
Total number of batches                      ...      957
Average number of points per batch           ...       60
Average number of grid points per atom       ...      603
Average number of shells per batch           ...    88.91 (16.65%)
Average number of basis functions per batch  ...   195.35 (16.20%)
Average number of large shells per batch     ...    58.11 (65.36%)
Average number of large basis fcns per batch ...   130.13 (66.61%)
Maximum spatial batch extension              ...  25.97, 20.59, 21.31 au
Average spatial batch extension              ...   0.94,  0.81,  0.82 au

Overlap Fitting                  UseSFitting ... on
Constructing numerical overlap ... done (      0.2 sec)
Inverting numerical overlap    ... done (      0.2 sec)
Obtaining analytic overlap     ... done (      0.0 sec)
Final contraction and storage  ... done (      0.4 sec)


General Integration Accuracy     IntAcc      ...  4.010
Radial Grid Type                 RadialGrid  ... Gauss-Chebyshev
Angular Grid (max. acc.)         AngularGrid ... Lebedev-110
Angular grid pruning method      GridPruning ... 3 (G Style)
Weight generation scheme         WeightScheme... Becke
Basis function cutoff            BFCut       ...    1.0000e-11
Integration weight cutoff        WCut        ...    1.0000e-14
Grids for H and He will be reduced by one unit

# of grid points (after initial pruning)     ... 126264 (   0.0 sec)
# of grid points (after weights+screening)   ... 113457 (   1.4 sec)
nearest neighbour list constructed           ...    0.0 sec
Grid point re-assignment to atoms done       ...    0.0 sec
Grid point division into batches done        ...    0.1 sec
Reduced shell lists constructed in    0.3 sec

Total number of grid points                  ...   113457
Total number of batches                      ...     1825
Average number of points per batch           ...       62
Average number of grid points per atom       ...     1182
Average number of shells per batch           ...    83.88 (15.71%)
Average number of basis functions per batch  ...   184.07 (15.26%)
Average number of large shells per batch     ...    55.18 (65.79%)
Average number of large basis fcns per batch ...   122.76 (66.69%)
Maximum spatial batch extension              ...  21.21, 18.07, 20.07 au
Average spatial batch extension              ...   0.69,  0.61,  0.63 au

Overlap Fitting                  UseSFitting ... on
Constructing numerical overlap ... done (      0.4 sec)
Inverting numerical overlap    ... done (      0.3 sec)
Obtaining analytic overlap     ... done (      0.0 sec)
Final contraction and storage  ... done (      0.5 sec)

Time for X-Grid setup             =    7.110 sec
--------------
SCF ITERATIONS
--------------
ITER       Energy         Delta-E        Max-DP      RMS-DP      [F,P]     Damp
               ***  Starting incremental Fock matrix formation  ***
  0 -10414.9938715556   0.000000000000 0.07956925  0.00097599  0.2324550 0.7000
  1 -10415.7040618245  -0.710190268841 0.04490263  0.00068120  0.0978669 0.7000
                               ***Turning on DIIS***
  2 -10415.9934057151  -0.289343890627 0.08435341  0.00120931  0.0356378 0.0000
  3 -10416.4572748424  -0.463869127327 0.04367356  0.00051562  0.0554510 0.0000
  4 -10416.5597612300  -0.102486387632 0.01533055  0.00018393  0.0195430 0.0000
  5 -10416.5681596591  -0.008398429070 0.00818125  0.00007889  0.0103198 0.0000
  6 -10416.5703761591  -0.002216499965 0.00290169  0.00004885  0.0022373 0.0000
  7 -10416.5713769232  -0.001000764152 0.00198459  0.00003417  0.0012623 0.0000
                      *** Initiating the SOSCF procedure ***
                           *** Shutting down DIIS ***
                      *** Re-Reading the Fockian *** 
                      *** Removing any level shift *** 
ITER      Energy       Delta-E        Grad      Rot      Max-DP    RMS-DP
  8 -10416.57191816  -0.0005412344  0.003158  0.003158  0.001511  0.000026
               *** Restarting incremental Fock matrix formation ***
  9 -10416.57216980  -0.0002516462  0.002152  0.017280  0.002277  0.000039
 10 -10416.57242811  -0.0002583105  0.000787  0.018097  0.003017  0.000048
 11 -10416.57244429  -0.0000161731  0.001257  0.006384  0.001728  0.000017
 12 -10416.57251675  -0.0000724576  0.000289  0.002348  0.000699  0.000009
 13 -10416.57251591   0.0000008376  0.000153  0.001287  0.000343  0.000005
 14 -10416.57252261  -0.0000067065  0.000026  0.000203  0.000167  0.000002
 15 -10416.57252251   0.0000001073  0.000042  0.000133  0.000110  0.000001
 16 -10416.57252279  -0.0000002845  0.000008  0.000055  0.000038  0.000000
 17 -10416.57252290  -0.0000001135  0.000013  0.000021  0.000014  0.000000
 18 -10416.57252284   0.0000000672  0.000003  0.000015  0.000013  0.000000
 19 -10416.57252281   0.0000000260  0.000004  0.000006  0.000005  0.000000
                  ***Gradient check signals convergence***
              ***Rediagonalizing the Fockian in SOSCF/NRSCF***

               *****************************************************
               *                     SUCCESS                       *
               *           SCF CONVERGED AFTER  20 CYCLES          *
               *****************************************************

Setting up the final grid:

General Integration Accuracy     IntAcc      ...  5.010
Radial Grid Type                 RadialGrid  ... Gauss-Chebyshev
Angular Grid (max. acc.)         AngularGrid ... Lebedev-434
Angular grid pruning method      GridPruning ... 3 (G Style)
Weight generation scheme         WeightScheme... Becke
Basis function cutoff            BFCut       ...    1.0000e-11
Integration weight cutoff        WCut        ...    1.0000e-14
Grids for H and He will be reduced by one unit

# of grid points (after initial pruning)     ... 955680 (   0.0 sec)
# of grid points (after weights+screening)   ... 833320 (  12.5 sec)
nearest neighbour list constructed           ...    0.0 sec
Grid point re-assignment to atoms done       ...    0.1 sec
Grid point division into batches done        ...    6.4 sec
Reduced shell lists constructed in    7.8 sec

Total number of grid points                  ...   833320
Total number of batches                      ...    13070
Average number of points per batch           ...       63
Average number of grid points per atom       ...     8680
Average number of shells per batch           ...    71.11 (13.32%)
Average number of basis functions per batch  ...   154.89 (12.84%)
Average number of large shells per batch     ...    46.39 (65.23%)
Average number of large basis fcns per batch ...   102.31 (66.05%)
Maximum spatial batch extension              ...  21.87, 17.38, 18.97 au
Average spatial batch extension              ...   0.33,  0.32,  0.32 au

Final grid set up in   27.8 sec
Final integration                            ... done (   5.2 sec)
Change in XC energy                          ...    -0.000305273
Integrated number of electrons               ...   604.000102869
Previous integrated no of electrons          ...   603.999972482
Old exchange energy                            =   -182.393565565 Eh
New exchange energy                            =   -182.391548484 Eh
Exchange energy change after final integration =      0.002017081 Eh
Total energy after final integration           = -10416.570811071 Eh
Final COS-X integration done in                =    97.505 sec

----------------
TOTAL SCF ENERGY
----------------

Total Energy       :       -10416.57081107 Eh         -283449.30205 eV

Components:
Nuclear Repulsion  :        11640.52583092 Eh          316754.81136 eV
Electronic Energy  :       -22057.09664199 Eh         -600204.11342 eV
One Electron Energy:       -37566.85980517 Eh        -1022246.22529 eV
Two Electron Energy:        15509.76316319 Eh          422042.11188 eV

Virial components:
Potential Energy   :       -20796.06503610 Eh         -565889.69891 eV
Kinetic Energy     :        10379.49422502 Eh          282440.39686 eV
Virial Ratio       :            2.00357210


DFT components:
N(Alpha)           :      302.000051434277 electrons
N(Beta)            :      302.000051434277 electrons
N(Total)           :      604.000102868554 electrons
E(XC)              :     -550.321500631130 Eh       
DFET-embed. en.    :        0.000000000000 Eh       

---------------
SCF CONVERGENCE
---------------

  Last Energy change         ...   -6.6899e-08  Tolerance :   1.0000e-08
  Last MAX-Density change    ...    1.0658e-14  Tolerance :   1.0000e-07
  Last RMS-Density change    ...    4.4572e-17  Tolerance :   5.0000e-09
  Last Orbital Gradient      ...    5.0999e-07  Tolerance :   1.0000e-05
  Last Orbital Rotation      ...    4.5215e-06  Tolerance :   1.0000e-05

             **** THE GBW FILE WAS UPDATED (xtbopt.gbw) ****
             **** DENSITY FILE WAS UPDATED (xtbopt.scfp) ****
             **** ENERGY FILE WAS UPDATED (xtbopt.en.tmp) ****
             **** THE GBW FILE WAS UPDATED (xtbopt.gbw) ****
             **** DENSITY FILE WAS UPDATED (xtbopt.scfp) ****
----------------
ORBITAL ENERGIES
----------------

  NO   OCC          E(Eh)            E(eV) 
   0   2.0000    -482.891900    -13140.1566 
   1   2.0000    -482.889491    -13140.0911 
   2   2.0000     -88.992322     -2421.6042 
   3   2.0000     -88.988658     -2421.5045 
   4   2.0000     -88.983395     -2421.3613 
   5   2.0000     -88.980269     -2421.2762 
   6   2.0000     -88.963545     -2420.8211 
   7   2.0000     -88.954835     -2420.5841 
   8   2.0000     -62.569622     -1702.6060 
   9   2.0000     -62.567200     -1702.5401 
  10   2.0000     -56.403582     -1534.8195 
  11   2.0000     -56.401154     -1534.7534 
  12   2.0000     -56.400848     -1534.7451 
  13   2.0000     -56.400818     -1534.7443 
  14   2.0000     -56.398430     -1534.6793 
  15   2.0000     -56.398399     -1534.6785 
  16   2.0000     -19.242037      -523.6025 
  17   2.0000     -19.241233      -523.5806 
  18   2.0000     -19.238994      -523.5196 
  19   2.0000     -19.235102      -523.4137 
  20   2.0000     -19.234819      -523.4060 
  21   2.0000     -19.220022      -523.0034 
  22   2.0000     -14.653318      -398.7370 
  23   2.0000     -14.646843      -398.5609 
  24   2.0000     -14.503235      -394.6531 
  25   2.0000     -14.499946      -394.5636 
  26   2.0000     -14.423470      -392.4826 
  27   2.0000     -14.423059      -392.4714 
  28   2.0000     -14.420681      -392.4067 
  29   2.0000     -14.419295      -392.3690 
  30   2.0000     -10.385365      -282.6002 
  31   2.0000     -10.382967      -282.5349 
  32   2.0000     -10.374264      -282.2981 
  33   2.0000     -10.373203      -282.2692 
  34   2.0000     -10.370634      -282.1993 
  35   2.0000     -10.366074      -282.0752 
  36   2.0000     -10.363417      -282.0029 
  37   2.0000     -10.351056      -281.6665 
  38   2.0000     -10.350740      -281.6580 
  39   2.0000     -10.350233      -281.6442 
  40   2.0000     -10.349030      -281.6114 
  41   2.0000     -10.347217      -281.5621 
  42   2.0000     -10.346812      -281.5511 
  43   2.0000     -10.343554      -281.4624 
  44   2.0000     -10.333634      -281.1925 
  45   2.0000     -10.330784      -281.1149 
  46   2.0000     -10.326909      -281.0095 
  47   2.0000     -10.326405      -280.9958 
  48   2.0000     -10.325787      -280.9790 
  49   2.0000     -10.324277      -280.9379 
  50   2.0000     -10.323068      -280.9050 
  51   2.0000     -10.322445      -280.8880 
  52   2.0000     -10.321422      -280.8602 
  53   2.0000     -10.320718      -280.8410 
  54   2.0000     -10.320279      -280.8291 
  55   2.0000     -10.318259      -280.7741 
  56   2.0000     -10.317282      -280.7475 
  57   2.0000     -10.315697      -280.7044 
  58   2.0000     -10.314295      -280.6662 
  59   2.0000     -10.314152      -280.6623 
  60   2.0000     -10.313909      -280.6557 
  61   2.0000     -10.312485      -280.6170 
  62   2.0000     -10.311951      -280.6025 
  63   2.0000     -10.310847      -280.5724 
  64   2.0000     -10.310560      -280.5646 
  65   2.0000     -10.310177      -280.5542 
  66   2.0000     -10.308592      -280.5110 
  67   2.0000     -10.306504      -280.4542 
  68   2.0000     -10.304287      -280.3939 
  69   2.0000     -10.303903      -280.3835 
  70   2.0000     -10.303684      -280.3775 
  71   2.0000     -10.303148      -280.3629 
  72   2.0000     -10.301569      -280.3199 
  73   2.0000     -10.301129      -280.3080 
  74   2.0000     -10.300255      -280.2842 
  75   2.0000     -10.299701      -280.2691 
  76   2.0000     -10.299238      -280.2565 
  77   2.0000     -10.298044      -280.2240 
  78   2.0000     -10.295113      -280.1443 
  79   2.0000     -10.294188      -280.1191 
  80   2.0000     -10.293029      -280.0875 
  81   2.0000     -10.287520      -279.9377 
  82   2.0000      -8.799064      -239.4347 
  83   2.0000      -8.796636      -239.3686 
  84   2.0000      -8.087471      -220.0713 
  85   2.0000      -8.084545      -219.9917 
  86   2.0000      -8.079351      -219.8503 
  87   2.0000      -8.076188      -219.7643 
  88   2.0000      -8.059987      -219.3234 
  89   2.0000      -8.051194      -219.0841 
  90   2.0000      -6.635418      -180.5589 
  91   2.0000      -6.632936      -180.4914 
  92   2.0000      -6.620781      -180.1606 
  93   2.0000      -6.620562      -180.1547 
  94   2.0000      -6.618369      -180.0950 
  95   2.0000      -6.618163      -180.0894 
  96   2.0000      -6.057122      -164.8227 
  97   2.0000      -6.054393      -164.7484 
  98   2.0000      -6.052776      -164.7044 
  99   2.0000      -6.049824      -164.6241 
 100   2.0000      -6.049005      -164.6018 
 101   2.0000      -6.048938      -164.6000 
 102   2.0000      -6.045873      -164.5166 
 103   2.0000      -6.045730      -164.5127 
 104   2.0000      -6.044748      -164.4860 
 105   2.0000      -6.041595      -164.4002 
 106   2.0000      -6.040619      -164.3736 
 107   2.0000      -6.037444      -164.2872 
 108   2.0000      -6.029853      -164.0807 
 109   2.0000      -6.025892      -163.9728 
 110   2.0000      -6.020929      -163.8378 
 111   2.0000      -6.020596      -163.8287 
 112   2.0000      -6.017031      -163.7318 
 113   2.0000      -6.011982      -163.5944 
 114   2.0000      -2.751232       -74.8648 
 115   2.0000      -2.748848       -74.8000 
 116   2.0000      -2.747174       -74.7544 
 117   2.0000      -2.747048       -74.7510 
 118   2.0000      -2.744714       -74.6875 
 119   2.0000      -2.744538       -74.6827 
 120   2.0000      -2.735398       -74.4340 
 121   2.0000      -2.735360       -74.4329 
 122   2.0000      -2.732974       -74.3680 
 123   2.0000      -2.732964       -74.3677 
 124   2.0000      -1.323553       -36.0157 
 125   2.0000      -1.316607       -35.8267 
 126   2.0000      -1.153300       -31.3829 
 127   2.0000      -1.142893       -31.0997 
 128   2.0000      -1.136126       -30.9156 
 129   2.0000      -1.134803       -30.8796 
 130   2.0000      -1.107455       -30.1354 
 131   2.0000      -1.106377       -30.1061 
 132   2.0000      -1.031099       -28.0576 
 133   2.0000      -1.028388       -27.9839 
 134   2.0000      -1.020344       -27.7650 
 135   2.0000      -1.019109       -27.7314 
 136   2.0000      -1.013473       -27.5780 
 137   2.0000      -1.012925       -27.5631 
 138   2.0000      -1.004715       -27.3397 
 139   2.0000      -1.000847       -27.2344 
 140   2.0000      -1.000783       -27.2327 
 141   2.0000      -0.997208       -27.1354 
 142   2.0000      -0.994954       -27.0741 
 143   2.0000      -0.984311       -26.7845 
 144   2.0000      -0.950877       -25.8747 
 145   2.0000      -0.949795       -25.8452 
 146   2.0000      -0.936641       -25.4873 
 147   2.0000      -0.931355       -25.3435 
 148   2.0000      -0.916747       -24.9460 
 149   2.0000      -0.914230       -24.8775 
 150   2.0000      -0.913749       -24.8644 
 151   2.0000      -0.907981       -24.7074 
 152   2.0000      -0.900172       -24.4949 
 153   2.0000      -0.894296       -24.3350 
 154   2.0000      -0.891934       -24.2708 
 155   2.0000      -0.891128       -24.2488 
 156   2.0000      -0.882427       -24.0121 
 157   2.0000      -0.874163       -23.7872 
 158   2.0000      -0.866495       -23.5785 
 159   2.0000      -0.856891       -23.3172 
 160   2.0000      -0.856055       -23.2944 
 161   2.0000      -0.840112       -22.8606 
 162   2.0000      -0.837912       -22.8007 
 163   2.0000      -0.836250       -22.7555 
 164   2.0000      -0.834084       -22.6966 
 165   2.0000      -0.830290       -22.5934 
 166   2.0000      -0.806064       -21.9341 
 167   2.0000      -0.798021       -21.7153 
 168   2.0000      -0.789698       -21.4888 
 169   2.0000      -0.774133       -21.0652 
 170   2.0000      -0.770881       -20.9767 
 171   2.0000      -0.765545       -20.8315 
 172   2.0000      -0.760333       -20.6897 
 173   2.0000      -0.746901       -20.3242 
 174   2.0000      -0.735811       -20.0224 
 175   2.0000      -0.724258       -19.7081 
 176   2.0000      -0.718819       -19.5601 
 177   2.0000      -0.708279       -19.2732 
 178   2.0000      -0.703981       -19.1563 
 179   2.0000      -0.698181       -18.9985 
 180   2.0000      -0.695659       -18.9299 
 181   2.0000      -0.687650       -18.7119 
 182   2.0000      -0.685331       -18.6488 
 183   2.0000      -0.674872       -18.3642 
 184   2.0000      -0.670156       -18.2359 
 185   2.0000      -0.667894       -18.1743 
 186   2.0000      -0.662392       -18.0246 
 187   2.0000      -0.657744       -17.8981 
 188   2.0000      -0.656143       -17.8546 
 189   2.0000      -0.643240       -17.5034 
 190   2.0000      -0.641556       -17.4576 
 191   2.0000      -0.638427       -17.3725 
 192   2.0000      -0.637244       -17.3403 
 193   2.0000      -0.634766       -17.2729 
 194   2.0000      -0.630955       -17.1691 
 195   2.0000      -0.628698       -17.1077 
 196   2.0000      -0.628296       -17.0968 
 197   2.0000      -0.627562       -17.0768 
 198   2.0000      -0.625410       -17.0183 
 199   2.0000      -0.614547       -16.7227 
 200   2.0000      -0.609121       -16.5750 
 201   2.0000      -0.604638       -16.4530 
 202   2.0000      -0.602705       -16.4004 
 203   2.0000      -0.599858       -16.3230 
 204   2.0000      -0.594837       -16.1863 
 205   2.0000      -0.588348       -16.0098 
 206   2.0000      -0.587414       -15.9844 
 207   2.0000      -0.586585       -15.9618 
 208   2.0000      -0.574281       -15.6270 
 209   2.0000      -0.569703       -15.5024 
 210   2.0000      -0.568162       -15.4605 
 211   2.0000      -0.563657       -15.3379 
 212   2.0000      -0.560321       -15.2471 
 213   2.0000      -0.556420       -15.1410 
 214   2.0000      -0.554746       -15.0954 
 215   2.0000      -0.553114       -15.0510 
 216   2.0000      -0.551082       -14.9957 
 217   2.0000      -0.547357       -14.8943 
 218   2.0000      -0.544933       -14.8284 
 219   2.0000      -0.543187       -14.7809 
 220   2.0000      -0.540693       -14.7130 
 221   2.0000      -0.540113       -14.6972 
 222   2.0000      -0.533951       -14.5295 
 223   2.0000      -0.531314       -14.4578 
 224   2.0000      -0.527183       -14.3454 
 225   2.0000      -0.525073       -14.2880 
 226   2.0000      -0.519433       -14.1345 
 227   2.0000      -0.517519       -14.0824 
 228   2.0000      -0.516072       -14.0430 
 229   2.0000      -0.513093       -13.9620 
 230   2.0000      -0.511037       -13.9060 
 231   2.0000      -0.508071       -13.8253 
 232   2.0000      -0.507056       -13.7977 
 233   2.0000      -0.504558       -13.7297 
 234   2.0000      -0.504358       -13.7243 
 235   2.0000      -0.503669       -13.7055 
 236   2.0000      -0.501246       -13.6396 
 237   2.0000      -0.497732       -13.5440 
 238   2.0000      -0.494634       -13.4597 
 239   2.0000      -0.485484       -13.2107 
 240   2.0000      -0.485267       -13.2048 
 241   2.0000      -0.484440       -13.1823 
 242   2.0000      -0.482453       -13.1282 
 243   2.0000      -0.479202       -13.0397 
 244   2.0000      -0.473954       -12.8969 
 245   2.0000      -0.468910       -12.7597 
 246   2.0000      -0.467824       -12.7301 
 247   2.0000      -0.466874       -12.7043 
 248   2.0000      -0.464622       -12.6430 
 249   2.0000      -0.461201       -12.5499 
 250   2.0000      -0.456929       -12.4337 
 251   2.0000      -0.456459       -12.4209 
 252   2.0000      -0.456431       -12.4201 
 253   2.0000      -0.454041       -12.3551 
 254   2.0000      -0.451849       -12.2954 
 255   2.0000      -0.450516       -12.2592 
 256   2.0000      -0.449947       -12.2437 
 257   2.0000      -0.449311       -12.2264 
 258   2.0000      -0.448212       -12.1965 
 259   2.0000      -0.446820       -12.1586 
 260   2.0000      -0.445492       -12.1225 
 261   2.0000      -0.441019       -12.0007 
 262   2.0000      -0.438216       -11.9245 
 263   2.0000      -0.433446       -11.7947 
 264   2.0000      -0.433187       -11.7876 
 265   2.0000      -0.432085       -11.7576 
 266   2.0000      -0.427503       -11.6329 
 267   2.0000      -0.424235       -11.5440 
 268   2.0000      -0.419432       -11.4133 
 269   2.0000      -0.416316       -11.3285 
 270   2.0000      -0.415347       -11.3022 
 271   2.0000      -0.413311       -11.2468 
 272   2.0000      -0.405808       -11.0426 
 273   2.0000      -0.396418       -10.7871 
 274   2.0000      -0.392001       -10.6669 
 275   2.0000      -0.390578       -10.6282 
 276   2.0000      -0.388604       -10.5744 
 277   2.0000      -0.382606       -10.4112 
 278   2.0000      -0.381385       -10.3780 
 279   2.0000      -0.380864       -10.3638 
 280   2.0000      -0.378745       -10.3062 
 281   2.0000      -0.378224       -10.2920 
 282   2.0000      -0.377579       -10.2745 
 283   2.0000      -0.371705       -10.1146 
 284   2.0000      -0.370604       -10.0847 
 285   2.0000      -0.363442        -9.8898 
 286   2.0000      -0.361908        -9.8480 
 287   2.0000      -0.356869        -9.7109 
 288   2.0000      -0.354261        -9.6399 
 289   2.0000      -0.353124        -9.6090 
 290   2.0000      -0.345738        -9.4080 
 291   2.0000      -0.341517        -9.2932 
 292   2.0000      -0.336956        -9.1690 
 293   2.0000      -0.326930        -8.8962 
 294   2.0000      -0.325519        -8.8578 
 295   2.0000      -0.320256        -8.7146 
 296   2.0000      -0.308789        -8.4026 
 297   2.0000      -0.301635        -8.2079 
[...]
   8   3.242     382.4   0.007766   0.009161  -6.517636  -0.611414     0.84 (  93-> 100)    0.02 (  93->  99)    0.02 (  92-> 100)
   9   3.327     372.7   0.236723   0.237590  -20.978664  -55.351659     0.52 (  92->  96)    0.11 (  91->  95)    0.04 (  88->  94)
  10   3.415     363.1   0.197631   0.187174  -33.931493  -7.686455     0.67 (  90->  94)    0.18 (  90->  95)    0.03 (  90->  96)
  11   3.458     358.6   0.326545   0.321269  -54.752756  -75.617462     0.40 (  92->  97)    0.14 (  91->  97)    0.08 (  91->  96)
  12   3.647     340.0   0.093635   0.082575  309.880522  284.240645     0.13 (  91->  94)    0.10 (  87->  94)    0.10 (  83->  94)
  13   3.672     337.7   0.420197   0.393821  -368.088179  -330.652377     0.29 (  89->  95)    0.10 (  89->  96)    0.07 (  89->  94)
  14   3.699     335.2   0.217106   0.209335  -211.019450  -159.936190     0.16 (  91->  94)    0.10 (  92->  95)    0.09 (  87->  94)
  15   3.739     331.6   0.028059   0.025497  112.147739  120.052003     0.15 (  88->  94)    0.10 (  91->  96)    0.07 (  92->  98)
  16   3.746     331.0   0.032379   0.032350  -46.029200  -22.338228     0.66 (  93-> 105)    0.10 (  93-> 101)    0.04 (  93-> 112)
  17   3.759     329.8   0.061992   0.060844   9.736797  -1.050878     0.20 (  93-> 105)    0.15 (  93-> 101)    0.09 (  93-> 102)
  18   3.797     326.5   0.003422   0.002597  35.534076  24.305871     0.24 (  83->  94)    0.20 (  87->  94)    0.07 (  83->  98)
  19   3.829     323.8   0.008573   0.006714  32.281999  19.099537     0.32 (  89->  97)    0.08 (  86->  95)    0.08 (  93-> 101)
  20   3.960     313.1   0.661170   0.602537  22.060282  -26.195798     0.21 (  92->  98)    0.19 (  91->  98)    0.08 (  93-> 101)
  21   4.029     307.7   0.079327   0.077882  113.247417  98.421851     0.19 (  91->  96)    0.14 (  88->  95)    0.13 (  92->  99)
  22   4.073     304.4   0.148055   0.137005  53.618872  67.140229     0.39 (  83->  98)    0.08 (  80->  98)    0.08 (  83->  94)
  23   4.150     298.7   0.456164   0.415182  63.928627  43.175207     0.34 (  90->  98)    0.14 (  93-> 102)    0.13 (  87->  94)
  24   4.162     297.9   0.364042   0.314774  169.062451  146.780145     0.14 (  88->  94)    0.08 (  88->  96)    0.08 (  85->  94)
  25   4.211     294.4   0.071034   0.062857  -50.371348  -75.616035     0.23 (  78->  97)    0.14 (  93-> 102)    0.11 (  90->  98)
  26   4.211     294.4   0.033536   0.028639   3.554300  -8.603268     0.39 (  78->  97)    0.09 (  93-> 102)    0.07 (  90->  98)
  27   4.233     292.9   0.331891   0.301107  159.118352  157.197407     0.39 (  86->  95)    0.10 (  89->  97)    0.08 (  85->  95)
  28   4.277     289.9   0.062838   0.053621  -259.799990  -239.275182     0.21 (  84->  94)    0.13 (  84->  96)    0.12 (  93-> 102)
  29   4.314     287.4   0.051630   0.045921  -8.166136  -12.705825     0.27 (  92->  99)    0.11 (  91->  95)    0.08 (  91->  96)
  30   4.358     284.5   0.397280   0.351852  17.456935  -13.230549     0.14 (  91->  97)    0.11 (  92->  97)    0.09 (  92->  96)
  31   4.401     281.7   0.056617   0.048373  22.801924  20.889339     0.31 (  93-> 103)    0.06 (  88->  97)    0.06 (  93-> 102)
  32   4.403     281.6   0.000973   0.000881   3.782537   4.559829     0.30 (  76->  97)    0.19 (  76-> 100)    0.14 (  76->  95)
  33   4.471     277.3   0.029357   0.024677  -37.991509  -34.391387     0.43 (  92-> 100)    0.13 (  91->  99)    0.07 (  91-> 100)
  34   4.546     272.7   0.031330   0.027226  23.196661   8.956236     0.21 (  93-> 103)    0.10 (  91->  96)    0.08 (  85->  94)
  35   4.550     272.5   0.002176   0.002148  -4.154460  -5.855547     0.46 (  78->  95)    0.12 (  78->  96)    0.11 (  78->  94)
  36   4.572     271.2   0.023433   0.023808  59.305640  69.325644     0.09 (  88->  96)    0.08 (  93-> 103)    0.08 (  90->  96)
  37   4.631     267.7   0.038543   0.032060   3.109349  11.083187     0.10 (  89->  94)    0.07 (  88->  95)    0.06 (  91->  94)
  38   4.649     266.7   0.001781   0.002586   7.306884  -2.590451     0.47 (  93-> 112)    0.17 (  93-> 110)    0.08 (  92-> 105)
  39   4.668     265.6   0.014605   0.014050  -4.846976  -13.260641     0.13 (  90->  94)    0.12 (  90->  96)    0.11 (  90->  95)
  40   4.719     262.8   0.013385   0.010650  -0.304994   1.725911     0.19 (  89->  94)    0.09 (  89->  96)    0.09 (  86->  97)
  41   4.728     262.2   0.039201   0.033197  -17.665334  -14.254799     0.16 (  92->  98)    0.16 (  88->  98)    0.09 (  90->  95)
  42   4.760     260.5   0.191647   0.156928  -56.832103  -29.192142     0.22 (  86->  97)    0.15 (  89->  94)    0.08 (  86->  96)
  43   4.821     257.2   0.006037   0.006840   3.660331  -5.828185     0.09 (  88->  94)    0.07 (  85->  95)    0.07 (  79->  94)
  44   4.835     256.4   0.029087   0.021450  -12.055646  -9.662250     0.38 (  87->  98)    0.21 (  80->  94)    0.05 (  80->  95)
  45   4.866     254.8   0.010990   0.009818  -28.354797  -26.623552     0.16 (  93-> 104)    0.14 (  81->  94)    0.06 (  93-> 112)
  46   4.907     252.7   0.056730   0.045507  23.855545  15.442424     0.12 (  91->  99)    0.11 (  88->  99)    0.05 (  92->  99)
  47   4.988     248.6   0.076294   0.062227  39.030649  22.570956     0.16 (  82->  95)    0.11 (  93-> 104)    0.08 (  85->  97)

-----------------------------------------------------------------------------
         ABSORPTION SPECTRUM VIA TRANSITION ELECTRIC DIPOLE MOMENTS
-----------------------------------------------------------------------------
State   Energy  Wavelength   fosc         T2         TX        TY        TZ  
        (cm-1)    (nm)                  (au**2)     (au)      (au)      (au) 
-----------------------------------------------------------------------------
   0   13163.4    759.7   1.714780348  42.88594  -4.72239   2.31144  -3.90413
   1   15580.8    641.8   0.242865771   5.13161   1.48275   0.07008   1.71118
   2   18007.8    555.3   0.308489068   5.63969   1.99826  -0.83178   0.97713
   3   19736.3    506.7   0.017687031   0.29503  -0.12038   0.48551  -0.21170
   4   22813.3    438.3   0.169188302   2.44150  -0.24538  -1.45061   0.52632
   5   23462.7    426.2   0.045447986   0.63769  -0.30049  -0.72669  -0.13900
   6   23630.8    423.2   0.135209447   1.88366  -0.86607  -0.03418   1.06415
   7   24416.4    409.6   0.646343616   8.71480   1.87806  -0.63030   2.18870
   8   26150.7    382.4   0.007766105   0.09777   0.14693  -0.19359   0.19673
   9   26830.3    372.7   0.236723426   2.90463  -0.83060  -1.43383   0.39859
  10   27541.9    363.1   0.197630758   2.36231  -0.17827  -1.50697   0.24409
  11   27888.4    358.6   0.326545343   3.85474   1.25589   1.50581  -0.10011
  12   29411.6    340.0   0.093635183   1.04809  -0.24774   0.98928  -0.08960
  13   29616.3    337.7   0.420197430   4.67088  -1.49219  -1.55487  -0.16316
  14   29830.9    335.2   0.217106287   2.39597   1.16659   0.99308   0.22102
  15   30153.1    331.6   0.028059248   0.30635   0.13528   0.53567  -0.03331
  16   30216.0    331.0   0.032378642   0.35277   0.45226   0.37578  -0.08379
  17   30321.0    329.8   0.061992318   0.67309   0.74308   0.31164  -0.15427
  18   30623.9    326.5   0.003421778   0.03678  -0.18743  -0.03340   0.02318
  19   30880.9    323.8   0.008572831   0.09139  -0.06138  -0.06601  -0.28856
  20   31938.0    313.1   0.661170080   6.81523  -0.81311  -2.32766   0.85795
  21   32497.6    307.7   0.079327117   0.80361   0.71207   0.36900   0.40051
  22   32848.9    304.4   0.148054684   1.48380   0.55037   1.01371  -0.39151
  23   33473.8    298.7   0.456164153   4.48634  -0.44543  -1.96014   0.66768
  24   33571.5    297.9   0.364041557   3.56990   0.04415  -1.66584   0.89047
  25   33964.3    294.4   0.071034058   0.68853   0.47809   0.67193  -0.09202
  26   33967.2    294.4   0.033536055   0.32503  -0.35831  -0.44176   0.03873
  27   34139.2    292.9   0.331890950   3.20050   0.45893   1.55638  -0.75337
  28   34496.4    289.9   0.062837765   0.59968  -0.72367  -0.26926   0.05908
  29   34798.3    287.4   0.051629906   0.48845  -0.57938  -0.33292   0.20476
  30   35153.4    284.5   0.397279980   3.72053  -0.79543  -1.66870   0.55069
  31   35494.1    281.7   0.056616961   0.52513   0.00814   0.49125  -0.53267
  32   35516.1    281.6   0.000972653   0.00902   0.00601  -0.04124   0.08532
  33   36058.1    277.3   0.029357433   0.26803   0.47724   0.04333   0.19597
  34   36663.8    272.7   0.031330433   0.28132  -0.00355   0.40116  -0.34696
  35   36698.9    272.5   0.002175708   0.01952  -0.04941  -0.11823   0.05566
  36   36875.3    271.2   0.023433077   0.20920  -0.41454  -0.17782   0.07577
  37   37353.1    267.7   0.038543230   0.33970  -0.05643   0.51385  -0.26921
  38   37498.3    266.7   0.001780963   0.01564   0.04153  -0.08114   0.08560
  39   37650.9    265.6   0.014604845   0.12770  -0.03234  -0.34354   0.09293
  40   38058.6    262.8   0.013384675   0.11578   0.07590   0.23680   0.23226
  41   38135.1    262.2   0.039201362   0.33842  -0.39275   0.29714  -0.30963
  42   38388.7    260.5   0.191647382   1.64352   0.87739   0.20935   0.91097
  43   38886.5    257.2   0.006037295   0.05111   0.15987   0.02138  -0.15841
  44   38996.4    256.4   0.029086811   0.24555   0.43449  -0.17527  -0.16140
  45   39246.0    254.8   0.010989609   0.09219  -0.29640   0.01516   0.06406
  46   39574.1    252.7   0.056729849   0.47193  -0.24931   0.44310  -0.46199
  47   40232.7    248.6   0.076294125   0.62429   0.07994   0.48394  -0.61944

-----------------------------------------------------------------------------
         ABSORPTION SPECTRUM VIA TRANSITION VELOCITY DIPOLE MOMENTS
-----------------------------------------------------------------------------
State   Energy  Wavelength   fosc         P2         PX        PY        PZ  
        (cm-1)    (nm)                  (au**2)     (au)      (au)      (au) 
-----------------------------------------------------------------------------
   0   13163.4    759.7   2.349855615   0.21141  -0.33114   0.16270  -0.27437
   1   15580.8    641.8   0.311149534   0.03313   0.11921   0.00379   0.13751
   2   18007.8    555.3   0.402688974   0.04956   0.18498  -0.08046   0.09417
   3   19736.3    506.7   0.018975649   0.00256  -0.01139   0.04506  -0.01998
   4   22813.3    438.3   0.190270140   0.02967  -0.02861  -0.15901   0.05971
   5   23462.7    426.2   0.046927210   0.00753  -0.03352  -0.07858  -0.01507
   6   23630.8    423.2   0.149401835   0.02413  -0.09615  -0.00979   0.12161
   7   24416.4    409.6   0.652975408   0.10896   0.20967  -0.06759   0.24584
   8   26150.7    382.4   0.009160708   0.00164   0.02180  -0.02244   0.02566
   9   26830.3    372.7   0.237590486   0.04357  -0.10501  -0.17458   0.04542
  10   27541.9    363.1   0.187173902   0.03523  -0.02582  -0.18341   0.03042
  11   27888.4    358.6   0.321268855   0.06123   0.15946   0.18894  -0.01057
  12   29411.6    340.0   0.082575337   0.01660  -0.02790   0.12551  -0.00827
  13   29616.3    337.7   0.393820817   0.07971  -0.19368  -0.20455  -0.01903
  14   29830.9    335.2   0.209334616   0.04268   0.15243   0.13735   0.02404
  15   30153.1    331.6   0.025496740   0.00525   0.01100   0.07153  -0.00405
  16   30216.0    331.0   0.032350364   0.00668   0.06296   0.04800  -0.02031
  17   30321.0    329.8   0.060843637   0.01261   0.09842   0.05018  -0.02007
  18   30623.9    326.5   0.002597460   0.00054  -0.02325  -0.00138  -0.00099
  19   30880.9    323.8   0.006714129   0.00142  -0.00392  -0.00201  -0.03738
  20   31938.0    313.1   0.602537303   0.13152  -0.11678  -0.32304   0.11633
  21   32497.6    307.7   0.077881746   0.01730   0.10405   0.05114   0.06210
  22   32848.9    304.4   0.137004934   0.03076   0.08168   0.14450  -0.05662
  23   33473.8    298.7   0.415181926   0.09498  -0.06781  -0.28498   0.09578
  24   33571.5    297.9   0.314773639   0.07222   0.00452  -0.23739   0.12589
  25   33964.3    294.4   0.062856824   0.01459   0.06693   0.09999  -0.01065
  26   33967.2    294.4   0.028638505   0.00665  -0.04908  -0.06497   0.00427
  27   34139.2    292.9   0.301107479   0.07026   0.06740   0.23055  -0.11207
  28   34496.4    289.9   0.053621259   0.01264  -0.10519  -0.03835   0.01030
  29   34798.3    287.4   0.045921490   0.01092  -0.08810  -0.04834   0.02869
  30   35153.4    284.5   0.351851790   0.08453  -0.12384  -0.25028   0.08100
  31   35494.1    281.7   0.048372756   0.01173   0.00326   0.07268  -0.08026
  32   35516.1    281.6   0.000880689   0.00021  -0.00076  -0.00407   0.01402
  33   36058.1    277.3   0.024676783   0.00608   0.07271   0.00722   0.02724
  34   36663.8    272.7   0.027225891   0.00682   0.00342   0.06521  -0.05058
  35   36698.9    272.5   0.002147878   0.00054  -0.00778  -0.02062   0.00728
  36   36875.3    271.2   0.023808147   0.00600  -0.06931  -0.03093   0.01550
  37   37353.1    267.7   0.032060139   0.00818  -0.00686   0.07863  -0.04422
  38   37498.3    266.7   0.002585513   0.00066   0.01135  -0.02295   0.00264
  39   37650.9    265.6   0.014050297   0.00362  -0.00491  -0.05839   0.01347
  40   38058.6    262.8   0.010649986   0.00277   0.00991   0.03864   0.03434
  41   38135.1    262.2   0.033197386   0.00865  -0.06493   0.04465  -0.04943
  42   38388.7    260.5   0.156927702   0.04117   0.14000   0.03703   0.14213
  43   38886.5    257.2   0.006839505   0.00182   0.03240   0.01101  -0.02543
  44   38996.4    256.4   0.021450216   0.00572   0.06621  -0.02693  -0.02466
  45   39246.0    254.8   0.009818472   0.00263  -0.04996   0.00054   0.01174
  46   39574.1    252.7   0.045507219   0.01231  -0.03702   0.07387  -0.07403
  47   40232.7    248.6   0.062226917   0.01711   0.01746   0.08078  -0.10139

-------------------------------------------------------------------
                             CD SPECTRUM
-------------------------------------------------------------------
State   Energy Wavelength       R         MX        MY        MZ   
        (cm-1)   (nm)       (1e40*cgs)   (au)      (au)      (au)  
-------------------------------------------------------------------
   0   13163.4    759.7    -302.31217   3.13828   4.37713  -1.53304
   1   15580.8    641.8    -257.19584  -1.62923  -2.18391   2.13880
   2   18007.8    555.3    417.71436  -2.39472   0.12608   3.19106
   3   19736.3    506.7     44.14135   0.72000  -0.21606  -0.02036
   4   22813.3    438.3     -2.80876  -0.40495  -1.47881  -4.24197
   5   23462.7    426.2    -155.97407   0.40303  -0.52576  -2.88296
   6   23630.8    423.2    201.03913  -1.31371  -3.49744  -1.98296
   7   24416.4    409.6    198.88517  -0.51163  -6.13841  -1.71421
   8   26150.7    382.4     -6.51764  -0.94156  -0.29183   0.55660
   9   26830.3    372.7    -20.97866  -0.29976  -1.38357  -5.37842
  10   27541.9    363.1    -33.93149   1.97843  -1.52730  -7.39469
  11   27888.4    358.6    -54.75276   0.51279   0.08250   5.35369
  12   29411.6    340.0    309.88052   0.00239  -1.17680   1.67204
  13   29616.3    337.7    -368.08818  -2.98788   2.22245  -3.42425
  14   29830.9    335.2    -211.01945   1.63777  -1.60196   2.60379
  15   30153.1    331.6    112.14774   0.93270  -1.10081   0.36842
  16   30216.0    331.0    -46.02920   0.45467   0.30332   1.48399
  17   30321.0    329.8      9.73680   0.17154   0.59018   2.28627
  18   30623.9    326.5     35.53408   0.74518  -0.87997  -1.74550
  19   30880.9    323.8     32.28200   0.16076   0.87085   0.24118
  20   31938.0    313.1     22.06028  -0.21609  -3.69455 -10.33733
  21   32497.6    307.7    113.24742   0.53280  -2.64483   0.28992
  22   32848.9    304.4     53.61887  -1.24818   3.37237   7.55821
  23   33473.8    298.7     63.92863   1.29230  -4.22654 -11.95219
  24   33571.5    297.9    169.06245   0.59261  -3.80248  -7.94823
  25   33964.3    294.4    -50.37135  -0.67812   1.47500   4.92536
  26   33967.2    294.4      3.55430   0.51255  -0.75068  -4.20950
  27   34139.2    292.9    159.11835   4.37317  -0.50419   2.51841
  28   34496.4    289.9    -259.79999  -1.71054   0.38087  -0.56118
  29   34798.3    287.4     -8.16614  -0.19834  -1.37000  -2.61948
  30   35153.4    284.5     17.45693  -2.77852  -0.18234  -4.70040
  31   35494.1    281.7     22.80192   1.07151   1.43898   1.52504
  32   35516.1    281.6      3.78254  -0.45592  -0.47584  -0.38598
  33   36058.1    277.3    -37.99151   0.42371  -0.94639  -0.00017
  34   36663.8    272.7     23.19666   0.38225   0.96481   1.39525
  35   36698.9    272.5     -4.15446  -0.05611  -0.34398  -0.46387
  36   36875.3    271.2     59.30564   0.85312  -2.04855  -3.46064
  37   37353.1    267.7      3.10935   0.03715   1.02591   1.99941
  38   37498.3    266.7      7.30688   0.05390  -0.11201  -0.49448
  39   37650.9    265.6     -4.84698   0.82263  -0.79811  -2.44288
  40   38058.6    262.8     -0.30499  -0.74963  -0.67324   0.93697
  41   38135.1    262.2    -17.66533  -0.38847   0.83204   1.04918
  42   38388.7    260.5    -56.83210  -1.84942  -2.33891   2.58341
  43   38886.5    257.2      3.66033   0.38450   0.56560   0.56240
  44   38996.4    256.4    -12.05565   1.37817   1.97018   1.25364
  45   39246.0    254.8    -28.35480  -0.49240  -0.13403  -0.36885
  46   39574.1    252.7     23.85554   1.10457   0.40762   0.01393
  47   40232.7    248.6     39.03065   1.58380   1.67053   1.77680

sTD-DFT done

Total run time:        6.841 sec

           *** ORCA-CIS/TD-DFT FINISHED WITHOUT ERROR ***

-------------------------   --------------------
FINAL SINGLE POINT ENERGY    -10416.570811070584
-------------------------   --------------------


                            ***************************************
                            *     ORCA property calculations      *
                            ***************************************

                                    ---------------------
                                    Active property flags
                                    ---------------------
   (+) Dipole Moment


------------------------------------------------------------------------------
                       ORCA ELECTRIC PROPERTIES CALCULATION
------------------------------------------------------------------------------

Dipole Moment Calculation                       ... on
Quadrupole Moment Calculation                   ... off
Polarizability Calculation                      ... off
GBWName                                         ... xtbopt.gbw
Electron density file                           ... xtbopt.scfp
The origin for moment calculation is the CENTER OF MASS  = (-23.304138, 17.728385 -1.012862)

-------------
DIPOLE MOMENT
-------------
                                X             Y             Z
Electronic contribution:     30.15233     121.79603      21.56697
Nuclear contribution   :    -25.55472    -116.14329     -23.25123
                        -----------------------------------------
Total Dipole Moment    :      4.59761       5.65274      -1.68426
                        -----------------------------------------
Magnitude (a.u.)       :      7.47851
Magnitude (Debye)      :     19.00887



--------------------
Rotational spectrum 
--------------------
 
Rotational constants in cm-1:     0.000847     0.000120     0.000108 
Rotational constants in MHz :    25.393943     3.611992     3.242027 

 Dipole components along the rotational axes: 
x,y,z [a.u.] :    -0.043737    -7.092548    -2.371084 
x,y,z [Debye]:    -0.111171   -18.027824    -6.026816 

 

Timings for individual modules:

Sum of individual times         ...     1081.640 sec (=  18.027 min)
GTO integral calculation        ...        7.646 sec (=   0.127 min)   0.7 %
SCF iterations                  ...     1065.727 sec (=  17.762 min)  98.5 %
CIS module                      ...        8.267 sec (=   0.138 min)   0.8 %
                             ****ORCA TERMINATED NORMALLY****
TOTAL RUN TIME: 0 days 0 hours 18 minutes 4 seconds 471 msec
