
                                 *****************
                                 * O   R   C   A *
                                 *****************

           --- An Ab Initio, DFT and Semiempirical electronic structure package ---

                  #######################################################
                  #                        -***-                        #
                  #          Department of theory and spectroscopy      #
                  #               Directorship: Frank Neese             #
                  #        Max Planck Institute fuer Kohlenforschung    #
                  #                Kaiser Wilhelm Platz 1               #
                  #                 D-45470 Muelheim/Ruhr               #
                  #                      Germany                        #
                  #                                                     #
                  #                  All rights reserved                #
                  #                        -***-                        #
                  #######################################################


                         Program Version 4.2.0 -  RELEASE  -


 With contributions from (in alphabetic order):
   Daniel Aravena         : Magnetic Suceptibility
   Michael Atanasov       : Ab Initio Ligand Field Theory (pilot matlab implementation)
   Alexander A. Auer      : GIAO ZORA, VPT2
   Ute Becker             : Parallelization
   Giovanni Bistoni       : ED, misc. LED, open-shell LED, HFLED
   Martin Brehm           : Molecular dynamics
   Dmytro Bykov           : SCF Hessian
   Vijay G. Chilkuri      : MRCI spin determinant printing, contributions to CSF-ICE
   Dipayan Datta          : RHF DLPNO-CCSD density
   Achintya Kumar Dutta   : EOM-CC, STEOM-CC
   Dmitry Ganyushin       : Spin-Orbit,Spin-Spin,Magnetic field MRCI
   Miquel Garcia          : C-PCM Hessian, Gaussian charge scheme
   Yang Guo               : DLPNO-NEVPT2, CIM, IAO-localization
   Andreas Hansen         : Spin unrestricted coupled pair/coupled cluster methods
   Benjamin Helmich-Paris : CASSCF linear response (MC-RPA)
   Lee Huntington         : MR-EOM, pCC
   Robert Izsak           : Overlap fitted RIJCOSX, COSX-SCS-MP3, EOM
   Christian Kollmar      : KDIIS, OOCD, Brueckner-CCSD(T), CCSD density
   Simone Kossmann        : Meta GGA functionals, TD-DFT gradient, OOMP2, MP2 Hessian
   Martin Krupicka        : AUTO-CI
   Lucas Lang             : DCDCAS
   Dagmar Lenk            : GEPOL surface, SMD
   Dimitrios Liakos       : Extrapolation schemes; Compound Job, initial MDCI parallelization
   Dimitrios Manganas     : Further ROCIS development; embedding schemes
   Dimitrios Pantazis     : SARC Basis sets
   Taras Petrenko         : DFT Hessian,TD-DFT gradient, ASA, ECA, R-Raman, ABS, FL, XAS/XES, NRVS
   Peter Pinski           : DLPNO-MP2, DLPNO-MP2 Gradient
   Christoph Reimann      : Effective Core Potentials
   Marius Retegan         : Local ZFS, SOC
   Christoph Riplinger    : Optimizer, TS searches, QM/MM, DLPNO-CCSD(T), (RO)-DLPNO pert. Triples
   Tobias Risthaus        : Range-separated hybrids, TD-DFT gradient, RPA, STAB
   Michael Roemelt        : Original ROCIS implementation
   Masaaki Saitow         : Open-shell DLPNO-CCSD energy and density
   Barbara Sandhoefer     : DKH picture change effects
   Avijit Sen             : IP-ROCIS
   Kantharuban Sivalingam : CASSCF convergence, NEVPT2, FIC-MRCI
   Bernardo de Souza      : ESD, SOC TD-DFT
   Georgi Stoychev        : AutoAux, RI-MP2 NMR
   Willem Van den Heuvel  : Paramagnetic NMR
   Boris Wezisla          : Elementary symmetry handling
   Frank Wennmohs         : Technical directorship


 We gratefully acknowledge several colleagues who have allowed us to
 interface, adapt or use parts of their codes:
   Stefan Grimme, W. Hujo, H. Kruse,             : VdW corrections, initial TS optimization,
                  C. Bannwarth                     DFT functionals, gCP, sTDA/sTD-DF
   Ed Valeev, F. Pavosevic, A. Kumar             : LibInt (2-el integral package), F12 methods
   Garnet Chan, S. Sharma, J. Yang, R. Olivares  : DMRG
   Ulf Ekstrom                                   : XCFun DFT Library
   Mihaly Kallay                                 : mrcc  (arbitrary order and MRCC methods)
   Andreas Klamt, Michael Diedenhofen            : otool_cosmo (COSMO solvation model)
   Jiri Pittner, Ondrej Demel                    : Mk-CCSD
   Frank Weinhold                                : gennbo (NPA and NBO analysis)
   Christopher J. Cramer and Donald G. Truhlar   : smd solvation model
   Lars Goerigk                                  : TD-DFT with DH, B97 family of functionals
   V. Asgeirsson, H. Jonsson                     : NEB implementation
   FAccTs GmbH                                   : IRC, NEB, NEB-TS, Multilevel, MM, QM/MM, CI optimization
   S Lehtola, MJT Oliveira, MAL Marques          : LibXC Library


 Your calculation uses the libint2 library for the computation of 2-el integrals
 For citations please refer to: http://libint.valeyev.net

 Your ORCA version has been built with support for libXC version: 4.2.3
 For citations please refer to: https://tddft.org/programs/libxc/

 This ORCA versions uses:
   CBLAS   interface :  Fast vector & matrix operations
   LAPACKE interface :  Fast linear algebra routines
   SCALAPACK package :  Parallel linear algebra routines


XCFun DFT library Copyright 2009-2010 Ulf Ekstrom and contributors.
See http://admol.org/xcfun for more information. This is free soft-
ware; see the source code for copying conditions. There is ABSOLUTELY
NO WARRANTY; not even for MERCHANTABILITY or FITNESS FOR A PARTICULAR
PURPOSE. For details see the documentation. Scientific users of this 
library should cite U. Ekstrom, L. Visscher, R. Bast, A. J. Thorvald-
sen and K. Ruud; J.Chem.Theor.Comp. 2010, DOI: 10.1021/ct100117s
XCFun Version 0.99 
----- Orbital basis set information -----
Your calculation utilizes the basis: def2-SVP
   F. Weigend and R. Ahlrichs, Phys. Chem. Chem. Phys. 7, 3297 (2005).

----- AuxJ basis set information -----
Your calculation utilizes the auxiliary basis: def2/J
   F. Weigend, Phys. Chem. Chem. Phys. 8, 1057 (2006).

================================================================================
                                        WARNINGS
                       Please study these warnings very carefully!
================================================================================

INFO   : Checking CIS options ...

WARNING: CIS/ROCIS methods need fully converged wavefunctions
  ===> : Setting SCFConvForced true
         You can overwrite this default with %scf ConvForced false 


INFO   : the flag for use of LIBINT has been found!

================================================================================
                                       INPUT FILE
================================================================================
NAME = xtbopt.inp
|  1> # ORCA input file
|  2> # SCF done       -211.131527327582          0.000516553171
|  3> ! CAM-B3LYP def2-SVP def2/J RIJCOSX Grid4 TightSCF
|  4> %maxcore 5000
|  5> %tddft
|  6>     Mode sTDDFT
|  7>     Ethresh 5.0
|  8>     maxcore 5000
|  9> end
| 10> 
| 11> %pal
| 12>   nprocs 6
| 13>   end
| 14> * xyz 0 1
| 15>    C        0.49572        -0.73536        -0.44301
| 16>    C        1.33042         0.35029        -0.23581
| 17>    C        2.68954         0.20732        -0.52244
| 18>    C        3.56363         1.30224        -0.30871
| 19>    N        4.26432         2.18979        -0.13034
| 20>    C        3.21015        -1.00514        -1.01453
| 21>    C        4.59319        -1.11799        -1.29560
| 22>    N        5.70950        -1.22950        -1.52524
| 23>    C        2.36572        -2.09752        -1.21792
| 24>    C        1.02687        -1.94452        -0.92755
| 25>    C       -0.04899        -2.95615        -1.04280
| 26>    O        0.09726        -4.10268        -1.40353
| 27>    C       -1.27194        -2.28519        -0.54748
| 28>    C       -0.94324        -0.90507        -0.24376
| 29>    C       -1.81953         0.09411         0.08742
| 30>    C       -1.43595         1.42707         0.35100
| 31>    N       -1.18181         2.52176         0.58180
| 32>    C       -3.22132        -0.05239         0.17548
| 33>    N       -4.36651        -0.09230         0.24442
| 34>    C       -2.46202        -2.88631        -0.22804
| 35>    C       -2.92263        -4.17531        -0.54951
| 36>    C       -2.52569        -5.08504        -1.52441
| 37>    C       -3.27764        -6.24868        -1.48994
| 38>    C       -4.26425        -6.24515        -0.47462
| 39>    S       -4.28827        -4.78882         0.39733
| 40>    C       -4.92318        -7.49710        -0.48167
| 41>    C       -4.36376        -8.28832        -1.50475
| 42>    C       -3.32707        -7.52638        -2.18195
| 43>    C       -2.57186        -7.93405        -3.24134
| 44>    C       -2.71343        -9.22236        -3.80137
| 45>    N       -2.82358       -10.27162        -4.25063
| 46>    C       -1.61593        -7.10061        -3.86275
| 47>    N       -0.85307        -6.43079        -4.39431
| 48>    C       -4.92569        -9.55729        -1.57399
| 49>    C       -5.90000        -9.74445        -0.60587
| 50>    S       -6.13626        -8.32108         0.39015
| 51>    C       -6.61505       -10.96114        -0.38160
| 52>    C       -7.53721       -11.15400         0.64157
| 53>    F       -7.83317       -10.12946         1.46210
| 54>    C       -8.17400       -12.37407         0.89317
| 55>    F       -9.02667       -12.41427         1.93343
| 56>    C       -7.95388       -13.52865         0.14920
| 57>    C       -7.04784       -13.35363        -0.92756
| 58>    C       -6.40071       -12.10974        -1.18509
| 59>    N       -5.61614       -12.28949        -2.25679
| 60>    N       -5.79599       -13.53322        -2.59407
| 61>    N       -6.62027       -14.21959        -1.85706
| 62>    C       -5.13823       -14.10495        -3.72722
| 63>    C       -8.54270       -14.79828         0.43793
| 64>    C       -8.27272       -15.97955        -0.23508
| 65>    C       -8.95910       -17.05625         0.31428
| 66>    C       -9.76869       -16.68980         1.40826
| 67>    S       -9.67526       -15.02442         1.75782
| 68>    C      -10.40923       -17.85260         1.90207
| 69>    C       -9.99472       -18.95518         1.12210
| 70>    C       -9.08000       -18.48720         0.09494
| 71>    C       -8.47898       -19.23729        -0.87298
| 72>    C       -8.71001       -20.62626        -0.96614
| 73>    N       -8.91168       -21.75390        -1.01634
| 74>    C       -7.59607       -18.67462        -1.81879
| 75>    N       -6.86986       -18.21499        -2.57756
| 76>    C      -10.57019       -20.14966         1.52451
| 77>    C      -11.43167       -19.98225         2.60322
| 78>    S      -11.49175       -18.30187         3.13233
| 79>    C      -12.16003       -20.95066         3.31854
| 80>    C      -12.44675       -22.24208         2.97869
| 81>    C      -12.81663       -23.19073         4.06334
| 82>    O      -13.10801       -22.91551         5.20242
| 83>    C      -12.69239       -24.53673         3.45755
| 84>    C      -12.79381       -25.76846         4.06820
| 85>    C      -12.58739       -26.90776         3.28796
| 86>    C      -12.27912       -26.78327         1.91960
| 87>    C      -12.19027       -25.53072         1.30847
| 88>    C      -12.40542       -24.40558         2.08468
| 89>    C      -12.40055       -22.98222         1.73748
| 90>    C      -12.59220       -22.49200         0.47251
| 91>    C      -12.81915       -21.13078         0.18817
| 92>    N      -13.02644       -20.03364        -0.07751
| 93>    C      -12.68370       -23.30158        -0.68053
| 94>    N      -12.77384       -23.91841        -1.64303
| 95>    C      -12.04985       -27.95170         1.15085
| 96>    N      -11.86033       -28.89172         0.52586
| 97>    C      -12.67753       -28.19193         3.87762
| 98>    N      -12.75302       -29.22099         4.37399
| 99>    H        0.97025         1.29303         0.14401
|100>    H        2.74688        -3.03573        -1.59162
|101>    H       -3.14407        -2.31808         0.39405
|102>    H       -1.72583        -4.89164        -2.21414
|103>    H       -4.65953       -10.33075        -2.26982
|104>    H       -4.27386       -13.49024        -3.96924
|105>    H       -5.81823       -14.12618        -4.58068
|106>    H       -4.84243       -15.12588        -3.49212
|107>    H       -7.60209       -16.01778        -1.07329
|108>    H      -10.34255       -21.10953         1.09857
|109>    H      -12.47784       -20.66793         4.31785
|110>    H      -13.02255       -25.84933         5.11996
|111>    H      -11.94354       -25.46939         0.26021
|112> *
|113> 
|114>                          ****END OF INPUT****
================================================================================

                       ****************************
                       * Single Point Calculation *
                       ****************************

---------------------------------
CARTESIAN COORDINATES (ANGSTROEM)
---------------------------------
  C      0.495720   -0.735360   -0.443010
  C      1.330420    0.350290   -0.235810
  C      2.689540    0.207320   -0.522440
  C      3.563630    1.302240   -0.308710
  N      4.264320    2.189790   -0.130340
  C      3.210150   -1.005140   -1.014530
  C      4.593190   -1.117990   -1.295600
  N      5.709500   -1.229500   -1.525240
  C      2.365720   -2.097520   -1.217920
  C      1.026870   -1.944520   -0.927550
  C     -0.048990   -2.956150   -1.042800
  O      0.097260   -4.102680   -1.403530
  C     -1.271940   -2.285190   -0.547480
  C     -0.943240   -0.905070   -0.243760
  C     -1.819530    0.094110    0.087420
  C     -1.435950    1.427070    0.351000
  N     -1.181810    2.521760    0.581800
  C     -3.221320   -0.052390    0.175480
  N     -4.366510   -0.092300    0.244420
  C     -2.462020   -2.886310   -0.228040
  C     -2.922630   -4.175310   -0.549510
  C     -2.525690   -5.085040   -1.524410
  C     -3.277640   -6.248680   -1.489940
  C     -4.264250   -6.245150   -0.474620
  S     -4.288270   -4.788820    0.397330
  C     -4.923180   -7.497100   -0.481670
  C     -4.363760   -8.288320   -1.504750
  C     -3.327070   -7.526380   -2.181950
  C     -2.571860   -7.934050   -3.241340
  C     -2.713430   -9.222360   -3.801370
  N     -2.823580  -10.271620   -4.250630
  C     -1.615930   -7.100610   -3.862750
  N     -0.853070   -6.430790   -4.394310
  C     -4.925690   -9.557290   -1.573990
  C     -5.900000   -9.744450   -0.605870
  S     -6.136260   -8.321080    0.390150
  C     -6.615050  -10.961140   -0.381600
  C     -7.537210  -11.154000    0.641570
  F     -7.833170  -10.129460    1.462100
  C     -8.174000  -12.374070    0.893170
  F     -9.026670  -12.414270    1.933430
  C     -7.953880  -13.528650    0.149200
  C     -7.047840  -13.353630   -0.927560
  C     -6.400710  -12.109740   -1.185090
  N     -5.616140  -12.289490   -2.256790
  N     -5.795990  -13.533220   -2.594070
  N     -6.620270  -14.219590   -1.857060
  C     -5.138230  -14.104950   -3.727220
  C     -8.542700  -14.798280    0.437930
  C     -8.272720  -15.979550   -0.235080
  C     -8.959100  -17.056250    0.314280
  C     -9.768690  -16.689800    1.408260
  S     -9.675260  -15.024420    1.757820
  C    -10.409230  -17.852600    1.902070
  C     -9.994720  -18.955180    1.122100
  C     -9.080000  -18.487200    0.094940
  C     -8.478980  -19.237290   -0.872980
  C     -8.710010  -20.626260   -0.966140
  N     -8.911680  -21.753900   -1.016340
  C     -7.596070  -18.674620   -1.818790
  N     -6.869860  -18.214990   -2.577560
  C    -10.570190  -20.149660    1.524510
  C    -11.431670  -19.982250    2.603220
  S    -11.491750  -18.301870    3.132330
  C    -12.160030  -20.950660    3.318540
  C    -12.446750  -22.242080    2.978690
  C    -12.816630  -23.190730    4.063340
  O    -13.108010  -22.915510    5.202420
  C    -12.692390  -24.536730    3.457550
  C    -12.793810  -25.768460    4.068200
  C    -12.587390  -26.907760    3.287960
  C    -12.279120  -26.783270    1.919600
  C    -12.190270  -25.530720    1.308470
  C    -12.405420  -24.405580    2.084680
  C    -12.400550  -22.982220    1.737480
  C    -12.592200  -22.492000    0.472510
  C    -12.819150  -21.130780    0.188170
  N    -13.026440  -20.033640   -0.077510
  C    -12.683700  -23.301580   -0.680530
  N    -12.773840  -23.918410   -1.643030
  C    -12.049850  -27.951700    1.150850
  N    -11.860330  -28.891720    0.525860
  C    -12.677530  -28.191930    3.877620
  N    -12.753020  -29.220990    4.373990
  H      0.970250    1.293030    0.144010
  H      2.746880   -3.035730   -1.591620
  H     -3.144070   -2.318080    0.394050
  H     -1.725830   -4.891640   -2.214140
  H     -4.659530  -10.330750   -2.269820
  H     -4.273860  -13.490240   -3.969240
  H     -5.818230  -14.126180   -4.580680
  H     -4.842430  -15.125880   -3.492120
  H     -7.602090  -16.017780   -1.073290
  H    -10.342550  -21.109530    1.098570
  H    -12.477840  -20.667930    4.317850
  H    -13.022550  -25.849330    5.119960
  H    -11.943540  -25.469390    0.260210

----------------------------
CARTESIAN COORDINATES (A.U.)
----------------------------
  NO LB      ZA    FRAG     MASS         X           Y           Z
   0 C     6.0000    0    12.011    0.936775   -1.389629   -0.837168
   1 C     6.0000    0    12.011    2.514129    0.661952   -0.445616
   2 C     6.0000    0    12.011    5.082494    0.391778   -0.987269
   3 C     6.0000    0    12.011    6.734285    2.460877   -0.583377
   4 N     7.0000    0    14.007    8.058397    4.138103   -0.246307
   5 C     6.0000    0    12.011    6.066304   -1.899439   -1.917184
   6 C     6.0000    0    12.011    8.679871   -2.112695   -2.448329
   7 N     7.0000    0    14.007   10.789391   -2.323418   -2.882286
   8 C     6.0000    0    12.011    4.470563   -3.963738   -2.301535
   9 C     6.0000    0    12.011    1.940503   -3.674610   -1.752815
  10 C     6.0000    0    12.011   -0.092578   -5.586314   -1.970606
  11 O     8.0000    0    15.999    0.183795   -7.752942   -2.652287
  12 C     6.0000    0    12.011   -2.403618   -4.318383   -1.034587
  13 C     6.0000    0    12.011   -1.782465   -1.710334   -0.460640
  14 C     6.0000    0    12.011   -3.438413    0.177842    0.165200
  15 C     6.0000    0    12.011   -2.713552    2.696771    0.663294
  16 N     7.0000    0    14.007   -2.233297    4.765436    1.099443
  17 C     6.0000    0    12.011   -6.087413   -0.099003    0.331609
  18 N     7.0000    0    14.007   -8.251508   -0.174422    0.461887
  19 C     6.0000    0    12.011   -4.652544   -5.454335   -0.430933
  20 C     6.0000    0    12.011   -5.522970   -7.890192   -1.038423
  21 C     6.0000    0    12.011   -4.772862   -9.609333   -2.880717
  22 C     6.0000    0    12.011   -6.193842  -11.808294   -2.815579
  23 C     6.0000    0    12.011   -8.058265  -11.801623   -0.896902
  24 S    16.0000    0    32.060   -8.103656   -9.049558    0.750845
  25 C     6.0000    0    12.011   -9.303462  -14.167466   -0.910224
  26 C     6.0000    0    12.011   -8.246311  -15.662655   -2.843565
  27 C     6.0000    0    12.011   -6.287251  -14.222797   -4.123288
  28 C     6.0000    0    12.011   -4.860111  -14.993182   -6.125245
  29 C     6.0000    0    12.011   -5.127640  -17.427735   -7.183548
  30 N     7.0000    0    14.007   -5.335793  -19.410549   -8.032527
  31 C     6.0000    0    12.011   -3.053665  -13.418208   -7.299540
  32 N     7.0000    0    14.007   -1.612069  -12.152432   -8.304042
  33 C     6.0000    0    12.011   -9.308205  -18.060661   -2.974410
  34 C     6.0000    0    12.011  -11.149384  -18.414342   -1.144928
  35 S    16.0000    0    32.060  -11.595851  -15.724562    0.737277
  36 C     6.0000    0    12.011  -12.500633  -20.713553   -0.721119
  37 C     6.0000    0    12.011  -14.243263  -21.078005    1.212392
  38 F     9.0000    0    18.998  -14.802546  -19.141905    2.762969
  39 C     6.0000    0    12.011  -15.446621  -23.383603    1.687847
  40 F     9.0000    0    18.998  -17.057934  -23.459570    3.653653
  41 C     6.0000    0    12.011  -15.030655  -25.565443    0.281947
  42 C     6.0000    0    12.011  -13.318487  -25.234704   -1.752834
  43 C     6.0000    0    12.011  -12.095589  -22.884092   -2.239496
  44 N     7.0000    0    14.007  -10.612967  -23.223770   -4.264715
  45 N     7.0000    0    14.007  -10.952834  -25.574080   -4.902082
  46 N     7.0000    0    14.007  -12.510497  -26.871131   -3.509335
  47 C     6.0000    0    12.011   -9.709848  -26.654493   -7.043425
  48 C     6.0000    0    12.011  -16.143363  -27.964696    0.827568
  49 C     6.0000    0    12.011  -15.633175  -30.196973   -0.444237
  50 C     6.0000    0    12.011  -16.930245  -32.231641    0.593903
  51 C     6.0000    0    12.011  -18.460149  -31.539151    2.661226
  52 S    16.0000    0    32.060  -18.283592  -28.392039    3.321798
  53 C     6.0000    0    12.011  -19.670594  -33.736525    3.594391
  54 C     6.0000    0    12.011  -18.887284  -35.820099    2.120462
  55 C     6.0000    0    12.011  -17.158713  -34.935745    0.179411
  56 C     6.0000    0    12.011  -16.022950  -36.353210   -1.649693
  57 C     6.0000    0    12.011  -16.459534  -38.977983   -1.825740
  58 N     7.0000    0    14.007  -16.840635  -41.108913   -1.920604
  59 C     6.0000    0    12.011  -14.354492  -35.289917   -3.437015
  60 N     7.0000    0    14.007  -12.982154  -34.421343   -4.870882
  61 C     6.0000    0    12.011  -19.974764  -38.077339    2.880906
  62 C     6.0000    0    12.011  -21.602726  -37.760980    4.919373
  63 S    16.0000    0    32.060  -21.716260  -34.585522    5.919246
  64 C     6.0000    0    12.011  -22.979126  -39.591010    6.271132
  65 C     6.0000    0    12.011  -23.520949  -42.031440    5.628908
  66 C     6.0000    0    12.011  -24.219921  -43.824129    7.678600
  67 O     8.0000    0    15.999  -24.770549  -43.304038    9.831149
  68 C     6.0000    0    12.011  -23.985141  -46.367700    6.533823
  69 C     6.0000    0    12.011  -24.176797  -48.695332    7.687784
  70 C     6.0000    0    12.011  -23.786720  -50.848297    6.213344
  71 C     6.0000    0    12.011  -23.204174  -50.613045    3.627518
  72 C     6.0000    0    12.011  -23.036272  -48.246069    2.472650
  73 C     6.0000    0    12.011  -23.442846  -46.119862    3.939474
  74 C     6.0000    0    12.011  -23.433643  -43.430102    3.283361
  75 C     6.0000    0    12.011  -23.795809  -42.503720    0.892914
  76 C     6.0000    0    12.011  -24.224683  -39.931387    0.355590
  77 N     7.0000    0    14.007  -24.616404  -37.858093   -0.146473
  78 C     6.0000    0    12.011  -23.968719  -44.033605   -1.286015
  79 N     7.0000    0    14.007  -24.139059  -45.199244   -3.104877
  80 C     6.0000    0    12.011  -22.770916  -52.821058    2.174791
  81 N     7.0000    0    14.007  -22.412776  -54.597438    0.993731
  82 C     6.0000    0    12.011  -23.957060  -53.275027    7.327640
  83 N     7.0000    0    14.007  -24.099715  -55.219668    8.265643
  84 H     1.0000    0     1.008    1.833507    2.443473    0.272139
  85 H     1.0000    0     1.008    5.190851   -5.736698   -3.007726
  86 H     1.0000    0     1.008   -5.941431   -4.380536    0.744647
  87 H     1.0000    0     1.008   -3.261346   -9.243860   -4.184118
  88 H     1.0000    0     1.008   -8.805236  -19.522288   -4.289338
  89 H     1.0000    0     1.008   -8.076425  -25.492859   -7.500777
  90 H     1.0000    0     1.008  -10.994861  -26.694612   -8.656231
  91 H     1.0000    0     1.008   -9.150867  -28.583771   -6.599150
  92 H     1.0000    0     1.008  -14.365868  -30.269217   -2.028224
  93 H     1.0000    0     1.008  -19.544587  -39.891231    2.075996
  94 H     1.0000    0     1.008  -23.579700  -39.056727    8.159554
  95 H     1.0000    0     1.008  -24.609053  -48.848154    9.675322
  96 H     1.0000    0     1.008  -22.570020  -48.130172    0.491726

--------------------------------
INTERNAL COORDINATES (ANGSTROEM)
--------------------------------
 C      0   0   0     0.000000000000     0.00000000     0.00000000
 C      1   0   0     1.385024134266     0.00000000     0.00000000
 C      2   1   0     1.396353949470   118.40009347     0.00000000
 C      3   2   1     1.417238034841   119.35711475   180.45469775
 N      4   3   2     1.144782658630   179.57737200    24.46836725
 C      3   2   1     1.408277881599   121.31207171     0.18796119
 C      6   3   2     1.415816057615   119.94132189   179.99244994
 N      7   6   3     1.145127515083   178.97442262   169.55704090
 C      6   3   2     1.395608677746   120.07516617   359.61851159
 C      9   6   3     1.378493039301   118.04000879     0.19065368
 C     10   9   6     1.481267213908   127.82363956   180.93152930
 O     11  10   9     1.210803962787   125.60165447     0.99263245
 C     11  10   9     1.480248602938   105.33507250   177.47109766
 C     13  11  10     1.450868961278   108.30324165     3.85235452
 C     14  13  11     1.369644124910   126.84226925   171.70972313
 C     15  14  13     1.411874780000   124.06020097   181.09702259
 N     16  15  14     1.147258460723   176.95294951   186.69994946
 C     15  14  13     1.412172800227   125.06373171   359.22222235
 N     18  15  14     1.147957171588   176.03491979   196.39262071
 C     13  11  10     1.371013338520   126.61065360   193.07735192
 C     20  13  11     1.406067399878   129.27404886   344.54163688
 C     21  20  13     1.391258439867   131.77390265   341.02233634
 C     22  21  20     1.385884206202   112.13553053   180.67089912
 C     23  22  21     1.415728242072   113.19503880   359.73369164
 S     24  23  22     1.697577930995   112.35662482     1.76798199
 C     24  23  22     1.414785231016   108.59002631   182.99965407
 C     26  24  23     1.409138925443   108.39621156   359.54533694
 C     23  22  21     1.453904554983   138.11501219   182.26524585
 C     28  23  22     1.363394346878   127.86317665   355.93407038
 C     29  28  23     1.411884670184   121.70247879   178.86041476
 N     30  29  28     1.146697047044   179.60323619   276.56688220
 C     29  28  23     1.412294157249   122.70830017   357.93227489
 N     32  29  28     1.145936405565   178.45671743   231.07063677
 C     27  26  24     1.389548258752   112.85512467   178.59808854
 C     34  27  26     1.386205315276   111.88438981   359.48131090
 S     26  24  23     1.706041101263   139.11379739   177.46057938
 C     35  34  27     1.428960493331   125.18939541   183.01957401
 C     37  35  34     1.390845388280   124.42294401   176.30076205
 F     38  37  35     1.345564570766   119.26509873     2.55692448
 C     38  37  35     1.399062139077   123.71041833   183.68738415
 F     40  38  37     1.345660817777   116.96710548   178.92391440
 C     40  38  37     1.391042469409   123.75317432     0.08601808
 C     42  40  38     1.418080597004   113.87628884   358.13040608
 C     37  35  34     1.418033771001   121.67530799   358.31824242
 N     44  37  35     1.340298861225   130.55520738   356.86791419
 N     45  44  37     1.301141089121   104.74706563   179.62205323
 N     46  45  44     1.301431917313   116.41532051   359.76090661
 C     46  45  44     1.429528710100   121.61247634   178.77176365
 C     42  40  38     1.428997670467   124.34525979   176.53210586
 C     49  42  40     1.386084583783   125.36803448   184.38351363
 C     50  49  42     1.390034821147   111.84238551   177.45415240
 C     51  50  49     1.409437409394   112.89237106     0.54167441
 S     52  51  50     1.704233523582   112.44425703   359.76488879
 C     52  51  50     1.416419305044   108.47677231   180.64243284
 C     54  52  51     1.412747110208   108.39353451     0.37895711
 C     51  50  49     1.452702566976   138.10836866   181.35810934
 C     56  51  50     1.364085471992   127.74288317   358.12765686
 C     57  56  51     1.411131215515   121.06154105   180.75325008
 N     58  57  56     1.146631064685   178.54694256   350.80935296
 C     57  56  51     1.410916068765   122.14663784     1.17521994
 N     60  57  56     1.146460908143   179.33246708    67.39825305
 C     55  54  52     1.385598065602   112.99198433   180.11399325
 C     62  55  54     1.390607479701   112.25908652     0.33386345
 S     54  52  51     1.699185908281   139.25168915   179.74904013
 C     63  62  55     1.407127897563   129.20897831   182.44292454
 C     65  63  62     1.365822827932   129.26422699   344.07270472
 C     66  65  63     1.487687352706   118.27538208   159.42779752
 O     67  66  65     1.207539481425   127.04258305    13.00025408
 C     67  66  65     1.481260646105   105.09454439   195.34572775
 C     69  67  66     1.378527559318   128.65194131   172.98736408
 C     70  69  67     1.396204914760   118.07845422   182.37303055
 C     71  70  69     1.408168044872   120.21577406     0.29247243
 C     72  71  70     1.396515557343   121.22897989   359.13373477
 C     73  72  71     1.383738236156   118.28919365     0.38917506
 C     66  65  63     1.445871337187   133.70212498   343.95183799
 C     75  66  65     1.370107467245   127.22532892   329.73214875
 C     76  75  66     1.408998022177   123.67711606     2.68601842
 N     77  76  75     1.147724351097   177.88225426   209.06727026
 C     76  75  66     1.411840383330   123.91204729   187.57991725
 N     79  76  75     1.146739167597   177.46001056   168.92994700
 C     72  71  70     1.417310819933   119.31417895   178.88242917
 N     81  72  71     1.144625672829   179.64883940   209.73462805
 C     71  70  69     1.415950819803   119.86265685   179.76739144
 N     83  71  70     1.145009345202   178.90746920   354.91101675
 H      2   1   3     1.078306250051   122.45925998   180.49300375
 H      9   6   3     1.079431628080   121.13939780   180.18115755
 H     20  13  11     1.084008073540   116.74604920   161.82735065
 H     22  21  20     1.073735094192   123.01679494     0.77534427
 H     34  27  26     1.073899858506   126.14247994   180.08238750
 H     48  46  45     1.087923508984   108.41715402    20.28999173
 H     48  46  45     1.091441562568   109.93449015   260.74951670
 H     48  46  45     1.088608154893   109.20300161   141.62666637
 H     50  49  42     1.074151820694   122.06182399   357.80154642
 H     62  55  54     1.074520949121   124.53954829   183.69032976
 H     65  63  62     1.086075469339   116.10718948   158.68159051
 H     70  69  67     1.079379934083   120.94218332     2.14775699
 H     73  72  71     1.078650123719   119.39521042   179.45456984

---------------------------
INTERNAL COORDINATES (A.U.)
---------------------------
 C      0   0   0     0.000000000000     0.00000000     0.00000000
 C      1   0   0     2.617316302635     0.00000000     0.00000000
 C      2   1   0     2.638726550517   118.40009347     0.00000000
 C      3   2   1     2.678191752426   119.35711475   180.45469775
 N      4   3   2     2.163325707673   179.57737200    24.46836725
 C      3   2   1     2.661259516680   121.31207171     0.18796119
 C      6   3   2     2.675504604900   119.94132189   179.99244994
 N      7   6   3     2.163977391925   178.97442262   169.55704090
 C      6   3   2     2.637318191064   120.07516617   359.61851159
 C      9   6   3     2.604974321795   118.04000879     0.19065368
 C     10   9   6     2.799189365443   127.82363956   180.93152930
 O     11  10   9     2.288087891533   125.60165447     0.99263245
 C     11  10   9     2.797264469672   105.33507250   177.47109766
 C     13  11  10     2.741744993022   108.30324165     3.85235452
 C     14  13  11     2.588252297014   126.84226925   171.70972313
 C     15  14  13     2.668056669590   124.06020097   181.09702259
 N     16  15  14     2.168004295590   176.95294951   186.69994946
 C     15  14  13     2.668619846201   125.06373171   359.22222235
 N     18  15  14     2.169324667772   176.03491979   196.39262071
 C     13  11  10     2.590839735756   126.61065360   193.07735192
 C     20  13  11     2.657082311604   129.27404886   344.54163688
 C     21  20  13     2.629097432854   131.77390265   341.02233634
 C     22  21  20     2.618941603049   112.13553053   180.67089912
 C     23  22  21     2.675338657574   113.19503880   359.73369164
 S     24  23  22     3.207957380569   112.35662482     1.76798199
 C     24  23  22     2.673556624936   108.59002631   182.99965407
 C     26  24  23     2.662886653736   108.39621156   359.54533694
 C     23  22  21     2.747481433778   138.11501219   182.26524585
 C     28  23  22     2.576441928137   127.86317665   355.93407038
 C     29  28  23     2.668075359329   121.70247879   178.86041476
 N     30  29  28     2.166943377490   179.60323619   276.56688220
 C     29  28  23     2.668849177738   122.70830017   357.93227489
 N     32  29  28     2.165505973409   178.45671743   231.07063677
 C     27  26  24     2.625865658908   112.85512467   178.59808854
 C     34  27  26     2.619548411258   111.88438981   359.48131090
 S     26  24  23     3.223950454601   139.11379739   177.46057938
 C     35  34  27     2.700343988588   125.18939541   183.01957401
 C     37  35  34     2.628316878477   124.42294401   176.30076205
 F     38  37  35     2.542748534255   119.26509873     2.55692448
 C     38  37  35     2.643844287194   123.71041833   183.68738415
 F     40  38  37     2.542930414747   116.96710548   178.92391440
 C     40  38  37     2.628689307837   123.75317432     0.08601808
 C     42  40  38     2.679783964166   113.87628884   358.13040608
 C     37  35  34     2.679695475844   121.67530799   358.31824242
 N     44  37  35     2.532797785321   130.55520738   356.86791419
 N     45  44  37     2.458800320031   104.74706563   179.62205323
 N     46  45  44     2.459349905665   116.41532051   359.76090661
 C     46  45  44     2.701417762667   121.61247634   178.77176365
 C     42  40  38     2.700414243194   124.34525979   176.53210586
 C     49  42  40     2.619320261799   125.36803448   184.38351363
 C     50  49  42     2.626785128581   111.84238551   177.45415240
 C     51  50  49     2.663450706659   112.89237106     0.54167441
 S     52  51  50     3.220534627817   112.44425703   359.76488879
 C     52  51  50     2.676644577331   108.47677231   180.64243284
 C     54  52  51     2.669705134781   108.39353451     0.37895711
 C     51  50  49     2.745210005630   138.10836866   181.35810934
 C     56  51  50     2.577747965326   127.74288317   358.12765686
 C     57  56  51     2.666651536350   121.06154105   180.75325008
 N     58  57  56     2.166818688901   178.54694256   350.80935296
 C     57  56  51     2.666244967915   122.14663784     1.17521994
 N     60  57  56     2.166497139637   179.33246708    67.39825305
 C     55  54  52     2.618400875679   112.99198433   180.11399325
 C     62  55  54     2.627867296417   112.25908652     0.33386345
 S     54  52  51     3.210996017269   139.25168915   179.74904013
 C     63  62  55     2.659086361794   129.20897831   182.44292454
 C     65  63  62     2.581031092249   129.26422699   344.07270472
 C     66  65  63     2.811321669512   118.27538208   159.42779752
 O     67  66  65     2.281918915790   127.04258305    13.00025408
 C     67  66  65     2.799176954094   105.09454439   195.34572775
 C     69  67  66     2.605039555174   128.65194131   172.98736408
 C     70  69  67     2.638444915731   118.07845422   182.37303055
 C     71  70  69     2.661051955348   120.21577406     0.29247243
 C     72  71  70     2.639031945138   121.22897989   359.13373477
 C     73  72  71     2.614886307370   118.28919365     0.38917506
 C     66  65  63     2.732300852171   133.70212498   343.95183799
 C     75  66  65     2.589127887133   127.22532892   329.73214875
 C     76  75  66     2.662620385152   123.67711606     2.68601842
 N     77  76  75     2.168884700805   177.88225426   209.06727026
 C     76  75  66     2.667991669303   123.91204729   187.57991725
 N     79  76  75     2.167022973798   177.46001056   168.92994700
 C     72  71  70     2.678329296317   119.31417895   178.88242917
 N     81  72  71     2.163029047503   179.64883940   209.73462805
 C     71  70  69     2.675759268528   119.86265685   179.76739144
 N     83  71  70     2.163754083212   178.90746920   354.91101675
 H      2   1   3     2.037703501093   122.45925998   180.49300375
 H      9   6   3     2.039830157364   121.13939780   180.18115755
 H     20  13  11     2.048478385950   116.74604920   161.82735065
 H     22  21  20     2.029065268403   123.01679494     0.77534427
 H     34  27  26     2.029376627834   126.14247994   180.08238750
 H     48  46  45     2.055877486634   108.41715402    20.28999173
 H     48  46  45     2.062525644432   109.93449015   260.74951670
 H     48  46  45     2.057171279901   109.20300161   141.62666637
 H     50  49  42     2.029852767364   122.06182399   357.80154642
 H     62  55  54     2.030550319000   124.53954829   183.69032976
 H     65  63  62     2.052385197821   116.10718948   158.68159051
 H     70  69  67     2.039732469866   120.94218332     2.14775699
 H     73  72  71     2.038353328150   119.39521042   179.45456984

---------------------
BASIS SET INFORMATION
---------------------
There are 6 groups of distinct atoms

 Group   1 Type C   : 7s4p1d contracted to 3s2p1d pattern {511/31/1}
 Group   2 Type N   : 7s4p1d contracted to 3s2p1d pattern {511/31/1}
 Group   3 Type O   : 7s4p1d contracted to 3s2p1d pattern {511/31/1}
 Group   4 Type S   : 10s7p1d contracted to 4s3p1d pattern {5311/511/1}
 Group   5 Type F   : 7s4p1d contracted to 3s2p1d pattern {511/31/1}
 Group   6 Type H   : 4s1p contracted to 2s1p pattern {31/1}

Atom   0C    basis set group =>   1
Atom   1C    basis set group =>   1
Atom   2C    basis set group =>   1
Atom   3C    basis set group =>   1
Atom   4N    basis set group =>   2
Atom   5C    basis set group =>   1
Atom   6C    basis set group =>   1
Atom   7N    basis set group =>   2
Atom   8C    basis set group =>   1
Atom   9C    basis set group =>   1
Atom  10C    basis set group =>   1
Atom  11O    basis set group =>   3
Atom  12C    basis set group =>   1
Atom  13C    basis set group =>   1
Atom  14C    basis set group =>   1
Atom  15C    basis set group =>   1
Atom  16N    basis set group =>   2
Atom  17C    basis set group =>   1
Atom  18N    basis set group =>   2
Atom  19C    basis set group =>   1
Atom  20C    basis set group =>   1
Atom  21C    basis set group =>   1
Atom  22C    basis set group =>   1
Atom  23C    basis set group =>   1
Atom  24S    basis set group =>   4
Atom  25C    basis set group =>   1
Atom  26C    basis set group =>   1
Atom  27C    basis set group =>   1
Atom  28C    basis set group =>   1
Atom  29C    basis set group =>   1
Atom  30N    basis set group =>   2
Atom  31C    basis set group =>   1
Atom  32N    basis set group =>   2
Atom  33C    basis set group =>   1
Atom  34C    basis set group =>   1
Atom  35S    basis set group =>   4
Atom  36C    basis set group =>   1
Atom  37C    basis set group =>   1
Atom  38F    basis set group =>   5
Atom  39C    basis set group =>   1
Atom  40F    basis set group =>   5
Atom  41C    basis set group =>   1
Atom  42C    basis set group =>   1
Atom  43C    basis set group =>   1
Atom  44N    basis set group =>   2
Atom  45N    basis set group =>   2
Atom  46N    basis set group =>   2
Atom  47C    basis set group =>   1
Atom  48C    basis set group =>   1
Atom  49C    basis set group =>   1
Atom  50C    basis set group =>   1
Atom  51C    basis set group =>   1
Atom  52S    basis set group =>   4
Atom  53C    basis set group =>   1
Atom  54C    basis set group =>   1
Atom  55C    basis set group =>   1
Atom  56C    basis set group =>   1
Atom  57C    basis set group =>   1
Atom  58N    basis set group =>   2
Atom  59C    basis set group =>   1
Atom  60N    basis set group =>   2
Atom  61C    basis set group =>   1
Atom  62C    basis set group =>   1
Atom  63S    basis set group =>   4
Atom  64C    basis set group =>   1
Atom  65C    basis set group =>   1
Atom  66C    basis set group =>   1
Atom  67O    basis set group =>   3
Atom  68C    basis set group =>   1
Atom  69C    basis set group =>   1
Atom  70C    basis set group =>   1
Atom  71C    basis set group =>   1
Atom  72C    basis set group =>   1
Atom  73C    basis set group =>   1
Atom  74C    basis set group =>   1
Atom  75C    basis set group =>   1
Atom  76C    basis set group =>   1
Atom  77N    basis set group =>   2
Atom  78C    basis set group =>   1
Atom  79N    basis set group =>   2
Atom  80C    basis set group =>   1
Atom  81N    basis set group =>   2
Atom  82C    basis set group =>   1
Atom  83N    basis set group =>   2
Atom  84H    basis set group =>   6
Atom  85H    basis set group =>   6
Atom  86H    basis set group =>   6
Atom  87H    basis set group =>   6
Atom  88H    basis set group =>   6
Atom  89H    basis set group =>   6
Atom  90H    basis set group =>   6
Atom  91H    basis set group =>   6
Atom  92H    basis set group =>   6
Atom  93H    basis set group =>   6
Atom  94H    basis set group =>   6
Atom  95H    basis set group =>   6
Atom  96H    basis set group =>   6
---------------------------------
AUXILIARY/J BASIS SET INFORMATION
---------------------------------
There are 6 groups of distinct atoms

 Group   1 Type C   : 12s5p4d2f1g contracted to 6s4p3d1f1g pattern {711111/2111/211/2/1}
 Group   2 Type N   : 12s5p4d2f1g contracted to 6s4p3d1f1g pattern {711111/2111/211/2/1}
 Group   3 Type O   : 12s5p4d2f1g contracted to 6s4p3d1f1g pattern {711111/2111/211/2/1}
 Group   4 Type S   : 14s5p5d2f1g contracted to 8s4p3d1f1g pattern {71111111/2111/311/2/1}
 Group   5 Type F   : 12s5p4d2f1g contracted to 6s4p3d1f1g pattern {711111/2111/211/2/1}
 Group   6 Type H   : 5s2p1d contracted to 3s1p1d pattern {311/2/1}

Atom   0C    basis set group =>   1
Atom   1C    basis set group =>   1
Atom   2C    basis set group =>   1
Atom   3C    basis set group =>   1
Atom   4N    basis set group =>   2
Atom   5C    basis set group =>   1
Atom   6C    basis set group =>   1
Atom   7N    basis set group =>   2
Atom   8C    basis set group =>   1
Atom   9C    basis set group =>   1
Atom  10C    basis set group =>   1
Atom  11O    basis set group =>   3
Atom  12C    basis set group =>   1
Atom  13C    basis set group =>   1
Atom  14C    basis set group =>   1
Atom  15C    basis set group =>   1
Atom  16N    basis set group =>   2
Atom  17C    basis set group =>   1
Atom  18N    basis set group =>   2
Atom  19C    basis set group =>   1
Atom  20C    basis set group =>   1
Atom  21C    basis set group =>   1
Atom  22C    basis set group =>   1
Atom  23C    basis set group =>   1
Atom  24S    basis set group =>   4
Atom  25C    basis set group =>   1
Atom  26C    basis set group =>   1
Atom  27C    basis set group =>   1
Atom  28C    basis set group =>   1
Atom  29C    basis set group =>   1
Atom  30N    basis set group =>   2
Atom  31C    basis set group =>   1
Atom  32N    basis set group =>   2
Atom  33C    basis set group =>   1
Atom  34C    basis set group =>   1
Atom  35S    basis set group =>   4
Atom  36C    basis set group =>   1
Atom  37C    basis set group =>   1
Atom  38F    basis set group =>   5
Atom  39C    basis set group =>   1
Atom  40F    basis set group =>   5
Atom  41C    basis set group =>   1
Atom  42C    basis set group =>   1
Atom  43C    basis set group =>   1
Atom  44N    basis set group =>   2
Atom  45N    basis set group =>   2
Atom  46N    basis set group =>   2
Atom  47C    basis set group =>   1
Atom  48C    basis set group =>   1
Atom  49C    basis set group =>   1
Atom  50C    basis set group =>   1
Atom  51C    basis set group =>   1
Atom  52S    basis set group =>   4
Atom  53C    basis set group =>   1
Atom  54C    basis set group =>   1
Atom  55C    basis set group =>   1
Atom  56C    basis set group =>   1
Atom  57C    basis set group =>   1
Atom  58N    basis set group =>   2
Atom  59C    basis set group =>   1
Atom  60N    basis set group =>   2
Atom  61C    basis set group =>   1
Atom  62C    basis set group =>   1
Atom  63S    basis set group =>   4
Atom  64C    basis set group =>   1
Atom  65C    basis set group =>   1
Atom  66C    basis set group =>   1
Atom  67O    basis set group =>   3
Atom  68C    basis set group =>   1
Atom  69C    basis set group =>   1
Atom  70C    basis set group =>   1
Atom  71C    basis set group =>   1
Atom  72C    basis set group =>   1
Atom  73C    basis set group =>   1
Atom  74C    basis set group =>   1
Atom  75C    basis set group =>   1
Atom  76C    basis set group =>   1
Atom  77N    basis set group =>   2
Atom  78C    basis set group =>   1
Atom  79N    basis set group =>   2
Atom  80C    basis set group =>   1
Atom  81N    basis set group =>   2
Atom  82C    basis set group =>   1
Atom  83N    basis set group =>   2
Atom  84H    basis set group =>   6
Atom  85H    basis set group =>   6
Atom  86H    basis set group =>   6
Atom  87H    basis set group =>   6
Atom  88H    basis set group =>   6
Atom  89H    basis set group =>   6
Atom  90H    basis set group =>   6
Atom  91H    basis set group =>   6
Atom  92H    basis set group =>   6
Atom  93H    basis set group =>   6
Atom  94H    basis set group =>   6
Atom  95H    basis set group =>   6
Atom  96H    basis set group =>   6


           ************************************************************
           *        Program running with 6 parallel MPI-processes     *
           *              working on a common directory               *
           ************************************************************
------------------------------------------------------------------------------
                           ORCA GTO INTEGRAL CALCULATION
                           -- RI-GTO INTEGRALS CHOSEN --
------------------------------------------------------------------------------

                         BASIS SET STATISTICS AND STARTUP INFO

Gaussian basis set:
 # of primitive gaussian shells          ... 1097
 # of primitive gaussian functions       ... 2155
 # of contracted shells                  ...  551
 # of contracted basis functions         ... 1257
 Highest angular momentum                ...    2
 Maximum contraction depth               ...    5
Auxiliary gaussian basis set:
 # of primitive gaussian shells          ... 2132
 # of primitive gaussian functions       ... 6116
 # of contracted shells                  ... 1333
 # of contracted aux-basis functions     ... 4267
 Highest angular momentum                ...    4
 Maximum contraction depth               ...    7
Ratio of auxiliary to basis functions    ...  3.39
Integral package used                  ... LIBINT
 One Electron integrals                  ... done
 Ordering auxiliary basis shells         ... done
 Integral threshhold             Thresh  ...  2.500e-11
 Primitive cut-off               TCut    ...  2.500e-12
 Pre-screening matrix                    ... done
 Shell pair data                         ... 
 Ordering of the shell pairs             ... done (   0.009 sec) 43636 of 152076 pairs
 Determination of significant pairs      ... done (   0.000 sec)
 Creation of shell pair data             ... done (   0.004 sec)
 Storage of shell pair data              ... done (   0.759 sec)
 Shell pair data done in (   0.773 sec)
 Computing two index integrals           ... done
 Cholesky decomposition of the V-matrix  ... done


Timings:
 Total evaluation time                   ...   6.212 sec (  0.104 min)
 One electron matrix time                ...   0.911 sec (  0.015 min) = 14.7%
 Schwartz matrix evaluation time         ...   0.694 sec (  0.012 min) = 11.2%
 Two index repulsion integral time       ...   0.542 sec (  0.009 min) =  8.7%
 Cholesky decomposition of V             ...   3.277 sec (  0.055 min) = 52.7%
 Three index repulsion integral time     ...   0.000 sec (  0.000 min) =  0.0%



           ************************************************************
           *        Program running with 6 parallel MPI-processes     *
           *              working on a common directory               *
           ************************************************************
-------------------------------------------------------------------------------
                                 ORCA SCF
-------------------------------------------------------------------------------

------------
SCF SETTINGS
------------
Hamiltonian:
 Density Functional     Method          .... DFT(GTOs)
 Exchange Functional    Exchange        .... WB88
 Correlation Functional Correlation     .... LYP
 LDA part of GGA corr.  LDAOpt          .... VWN-5
 Gradients option       PostSCFGGA      .... off
 Hybrid DFT is turned on
   Fraction HF Exchange ScalHFX         ....  0.190000
   Scaling of DF-GGA-X  ScalDFX         ....  0.350000
   Scaling of DF-GGA-C  ScalDFC         ....  0.810000
   Scaling of DF-LDA-C  ScalLDAC        ....  1.000000
   Perturbative correction              ....  0.000000
   Density functional embedding theory  .... OFF
 Long-range corrected/Screened/Range-Separated Hybrid DFT is turned on
   Amount of maximum screened exact exchange              ....  0.460000
   Range separation parameter mu (erf(mu*r12)/r12)        ....  0.330000
 RI-approximation to the Coulomb term is turned on
   Number of auxiliary basis functions  .... 4267
   RIJ-COSX (HFX calculated with COS-X)).... on


General Settings:
 Integral files         IntName         .... xtbopt
 Hartree-Fock type      HFTyp           .... RHF
 Total Charge           Charge          ....    0
 Multiplicity           Mult            ....    1
 Number of Electrons    NEL             ....  582
 Basis Dimension        Dim             .... 1257
 Nuclear Repulsion      ENuc            ....  11995.5611248947 Eh

Convergence Acceleration:
 DIIS                   CNVDIIS         .... on
   Start iteration      DIISMaxIt       ....    12
   Startup error        DIISStart       ....  0.200000
   # of expansion vecs  DIISMaxEq       ....     5
   Bias factor          DIISBfac        ....   1.050
   Max. coefficient     DIISMaxC        ....  10.000
 Newton-Raphson         CNVNR           .... off
 SOSCF                  CNVSOSCF        .... on
   Start iteration      SOSCFMaxIt      ....   150
   Startup grad/error   SOSCFStart      ....  0.003300
 Level Shifting         CNVShift        .... on
   Level shift para.    LevelShift      ....    0.2500
   Turn off err/grad.   ShiftErr        ....    0.0010
 Zerner damping         CNVZerner       .... off
 Static damping         CNVDamp         .... on
   Fraction old density DampFac         ....    0.7000
   Max. Damping (<1)    DampMax         ....    0.9800
   Min. Damping (>=0)   DampMin         ....    0.0000
   Turn off err/grad.   DampErr         ....    0.1000
 Fernandez-Rico         CNVRico         .... off

SCF Procedure:
 Maximum # iterations   MaxIter         ....   125
 SCF integral mode      SCFMode         .... Direct
   Integral package                     .... LIBINT
 Reset frequency        DirectResetFreq ....    20
 Integral Threshold     Thresh          ....  2.500e-11 Eh
 Primitive CutOff       TCut            ....  2.500e-12 Eh

Convergence Tolerance:
 Convergence Check Mode ConvCheckMode   .... Total+1el-Energy
 Convergence forced     ConvForced      .... 1
 Energy Change          TolE            ....  1.000e-08 Eh
 1-El. energy change                    ....  1.000e-05 Eh
 Orbital Gradient       TolG            ....  1.000e-05
 Orbital Rotation angle TolX            ....  1.000e-05
 DIIS Error             TolErr          ....  5.000e-07


Diagonalization of the overlap matrix:
Smallest eigenvalue                        ... 1.238e-04
Time for diagonalization                   ...    0.929 sec
Threshold for overlap eigenvalues          ... 1.000e-08
Number of eigenvalues below threshold      ... 0
Time for construction of square roots      ...    0.665 sec
Total time needed                          ...    1.595 sec

-------------------
DFT GRID GENERATION
-------------------

General Integration Accuracy     IntAcc      ...  4.670
Radial Grid Type                 RadialGrid  ... Gauss-Chebyshev
Angular Grid (max. acc.)         AngularGrid ... Lebedev-302
Angular grid pruning method      GridPruning ... 3 (G Style)
Weight generation scheme         WeightScheme... Becke
Basis function cutoff            BFCut       ...    1.0000e-11
Integration weight cutoff        WCut        ...    1.0000e-14
Grids for H and He will be reduced by one unit

# of grid points (after initial pruning)     ... 568586 (   0.0 sec)
# of grid points (after weights+screening)   ... 491772 (  12.1 sec)
nearest neighbour list constructed           ...    0.0 sec
Grid point re-assignment to atoms done       ...    0.1 sec
Grid point division into batches done        ...    2.0 sec
Reduced shell lists constructed in    2.8 sec

Total number of grid points                  ...   491772
Total number of batches                      ...     7731
Average number of points per batch           ...       63
Average number of grid points per atom       ...     5070
Average number of shells per batch           ...    78.91 (14.32%)
Average number of basis functions per batch  ...   172.97 (13.76%)
Average number of large shells per batch     ...    51.82 (65.67%)
Average number of large basis fcns per batch ...   113.96 (65.89%)
Maximum spatial batch extension              ...  18.61, 19.17, 22.21 au
Average spatial batch extension              ...   0.35,  0.36,  0.39 au

Time for grid setup =   18.399 sec

------------------------------
INITIAL GUESS: MODEL POTENTIAL
------------------------------
Loading Hartree-Fock densities                     ... done
Calculating cut-offs                               ... done
Setting up the integral package                    ... done
Initializing the effective Hamiltonian             ... done
Starting the Coulomb interaction                   ... done (   1.4 sec)
Reading the grid                                   ... done
Mapping shells                                     ... done
Starting the XC term evaluation                    ... done (   3.6 sec)
  promolecular density results
     # of electrons  =    581.994428063
     EX              =   -549.626693851
     EC              =    -20.086598983
     EX+EC           =   -569.713292834
Transforming the Hamiltonian                       ... done (   0.5 sec)
Diagonalizing the Hamiltonian                      ... done (   1.1 sec)
Back transforming the eigenvectors                 ... done (   0.3 sec)
Now organizing SCF variables                       ... done
                      ------------------
                      INITIAL GUESS DONE (  25.4 sec)
                      ------------------
--------------------
COSX GRID GENERATION
--------------------

General Integration Accuracy     IntAcc      ...  3.340
Radial Grid Type                 RadialGrid  ... Gauss-Chebyshev
Angular Grid (max. acc.)         AngularGrid ... Lebedev-50
Angular grid pruning method      GridPruning ... 3 (G Style)
Weight generation scheme         WeightScheme... Becke
Basis function cutoff            BFCut       ...    1.0000e-11
Integration weight cutoff        WCut        ...    1.0000e-14
Grids for H and He will be reduced by one unit

# of grid points (after initial pruning)     ...  53174 (   0.0 sec)
# of grid points (after weights+screening)   ...  48130 (   1.2 sec)
nearest neighbour list constructed           ...    0.0 sec
Grid point re-assignment to atoms done       ...    0.0 sec
Grid point division into batches done        ...    0.0 sec
Reduced shell lists constructed in    0.1 sec

Total number of grid points                  ...    48130
Total number of batches                      ...      803
Average number of points per batch           ...       59
Average number of grid points per atom       ...      496
Average number of shells per batch           ...    94.91 (17.23%)
Average number of basis functions per batch  ...   210.59 (16.75%)
Average number of large shells per batch     ...    62.90 (66.27%)
Average number of large basis fcns per batch ...   140.20 (66.58%)
Maximum spatial batch extension              ...  15.52, 16.43, 18.29 au
Average spatial batch extension              ...   0.61,  0.66,  0.95 au

Overlap Fitting                  UseSFitting ... on
Constructing numerical overlap ... done (      0.3 sec)
Inverting numerical overlap    ... done (      0.4 sec)
Obtaining analytic overlap     ... done (      0.0 sec)
Final contraction and storage  ... done (      0.8 sec)


General Integration Accuracy     IntAcc      ...  3.670
Radial Grid Type                 RadialGrid  ... Gauss-Chebyshev
Angular Grid (max. acc.)         AngularGrid ... Lebedev-50
Angular grid pruning method      GridPruning ... 3 (G Style)
Weight generation scheme         WeightScheme... Becke
Basis function cutoff            BFCut       ...    1.0000e-11
Integration weight cutoff        WCut        ...    1.0000e-14
Grids for H and He will be reduced by one unit

# of grid points (after initial pruning)     ...  65676 (   0.0 sec)
# of grid points (after weights+screening)   ...  59188 (   1.4 sec)
nearest neighbour list constructed           ...    0.0 sec
Grid point re-assignment to atoms done       ...    0.0 sec
Grid point division into batches done        ...    0.0 sec
Reduced shell lists constructed in    0.1 sec

Total number of grid points                  ...    59188
Total number of batches                      ...      976
Average number of points per batch           ...       60
Average number of grid points per atom       ...      610
Average number of shells per batch           ...    93.76 (17.02%)
Average number of basis functions per batch  ...   207.99 (16.55%)
Average number of large shells per batch     ...    61.79 (65.90%)
Average number of large basis fcns per batch ...   137.46 (66.09%)
Maximum spatial batch extension              ...  16.67, 18.20, 27.31 au
Average spatial batch extension              ...   0.61,  0.64,  0.87 au

Overlap Fitting                  UseSFitting ... on
Constructing numerical overlap ... done (      0.4 sec)
Inverting numerical overlap    ... done (      0.2 sec)
Obtaining analytic overlap     ... done (      0.0 sec)
Final contraction and storage  ... done (      0.8 sec)


General Integration Accuracy     IntAcc      ...  4.010
Radial Grid Type                 RadialGrid  ... Gauss-Chebyshev
Angular Grid (max. acc.)         AngularGrid ... Lebedev-110
Angular grid pruning method      GridPruning ... 3 (G Style)
Weight generation scheme         WeightScheme... Becke
Basis function cutoff            BFCut       ...    1.0000e-11
Integration weight cutoff        WCut        ...    1.0000e-14
Grids for H and He will be reduced by one unit

# of grid points (after initial pruning)     ... 132516 (   0.0 sec)
# of grid points (after weights+screening)   ... 117900 (   3.0 sec)
nearest neighbour list constructed           ...    0.0 sec
Grid point re-assignment to atoms done       ...    0.0 sec
Grid point division into batches done        ...    0.1 sec
Reduced shell lists constructed in    0.3 sec

Total number of grid points                  ...   117900
Total number of batches                      ...     1898
Average number of points per batch           ...       62
Average number of grid points per atom       ...     1215
Average number of shells per batch           ...    88.03 (15.98%)
Average number of basis functions per batch  ...   194.61 (15.48%)
Average number of large shells per batch     ...    58.43 (66.37%)
Average number of large basis fcns per batch ...   129.59 (66.59%)
Maximum spatial batch extension              ...  16.87, 18.20, 19.59 au
Average spatial batch extension              ...   0.50,  0.55,  0.69 au

Overlap Fitting                  UseSFitting ... on
Constructing numerical overlap ... done (      0.7 sec)
Inverting numerical overlap    ... done (      0.2 sec)
Obtaining analytic overlap     ... done (      0.0 sec)
Final contraction and storage  ... done (      0.8 sec)

Time for X-Grid setup             =   12.173 sec
--------------
SCF ITERATIONS
--------------
ITER       Energy         Delta-E        Max-DP      RMS-DP      [F,P]     Damp
               ***  Starting incremental Fock matrix formation  ***
  0  -5089.6387350567   0.000000000000 0.07842989  0.00108153  0.2384333 0.7000
  1  -5090.4233568353  -0.784621778610 0.04733484  0.00074325  0.1006227 0.7000
                               ***Turning on DIIS***
  2  -5090.7181030722  -0.294746236805 0.07919171  0.00131113  0.0327968 0.0000
  3  -5091.2296873695  -0.511584297372 0.05386416  0.00056136  0.0543817 0.0000
  4  -5091.3252788314  -0.095591461886 0.01505239  0.00020011  0.0196570 0.0000
  5  -5091.3349017305  -0.009622899055 0.00671584  0.00007557  0.0046618 0.0000
                      *** Initiating the SOSCF procedure ***
                           *** Shutting down DIIS ***
                      *** Re-Reading the Fockian *** 
                      *** Removing any level shift *** 
ITER      Energy       Delta-E        Grad      Rot      Max-DP    RMS-DP
  6  -5091.33619703  -0.0012952954  0.002701  0.002701  0.002502  0.000037
               *** Restarting incremental Fock matrix formation ***
  7  -5091.33665893  -0.0004619032  0.002011  0.012638  0.002326  0.000041
  8  -5091.33702455  -0.0003656161  0.000678  0.010937  0.003004  0.000045
  9  -5091.33704204  -0.0000174905  0.001470  0.002159  0.001987  0.000014
 10  -5091.33712062  -0.0000785880  0.000369  0.001586  0.000722  0.000009
 11  -5091.33712220  -0.0000015782  0.000141  0.000635  0.000449  0.000004
 12  -5091.33712773  -0.0000055304  0.000028  0.000217  0.000186  0.000002
 13  -5091.33712767   0.0000000668  0.000035  0.000079  0.000105  0.000001
 14  -5091.33712811  -0.0000004434  0.000012  0.000053  0.000045  0.000000
 15  -5091.33712809   0.0000000142  0.000016  0.000028  0.000030  0.000000
 16  -5091.33712813  -0.0000000315  0.000003  0.000014  0.000011  0.000000
 17  -5091.33712814  -0.0000000099  0.000004  0.000005  0.000007  0.000000
                  ***Gradient check signals convergence***
              ***Rediagonalizing the Fockian in SOSCF/NRSCF***

               *****************************************************
               *                     SUCCESS                       *
               *           SCF CONVERGED AFTER  18 CYCLES          *
               *****************************************************

Setting up the final grid:

General Integration Accuracy     IntAcc      ...  5.010
Radial Grid Type                 RadialGrid  ... Gauss-Chebyshev
Angular Grid (max. acc.)         AngularGrid ... Lebedev-434
Angular grid pruning method      GridPruning ... 3 (G Style)
Weight generation scheme         WeightScheme... Becke
Basis function cutoff            BFCut       ...    1.0000e-11
Integration weight cutoff        WCut        ...    1.0000e-14
Grids for H and He will be reduced by one unit

# of grid points (after initial pruning)     ... 988704 (   0.0 sec)
# of grid points (after weights+screening)   ... 852004 (  21.2 sec)
nearest neighbour list constructed           ...    0.0 sec
Grid point re-assignment to atoms done       ...    0.1 sec
Grid point division into batches done        ...    6.4 sec
Reduced shell lists constructed in    7.7 sec

Total number of grid points                  ...   852004
Total number of batches                      ...    13363
Average number of points per batch           ...       63
Average number of grid points per atom       ...     8784
Average number of shells per batch           ...    76.25 (13.84%)
Average number of basis functions per batch  ...   166.74 (13.26%)
Average number of large shells per batch     ...    49.96 (65.52%)
Average number of large basis fcns per batch ...   109.67 (65.78%)
Maximum spatial batch extension              ...  17.99, 19.12, 23.34 au
Average spatial batch extension              ...   0.29,  0.30,  0.33 au

Final grid set up in   38.6 sec
Final integration                            ... done (   5.8 sec)
Change in XC energy                          ...     0.000030867
Integrated number of electrons               ...   581.999933039
Previous integrated no of electrons          ...   582.000313089
Old exchange energy                            =   -151.385693059 Eh
New exchange energy                            =   -151.384024962 Eh
Exchange energy change after final integration =      0.001668097 Eh
Total energy after final integration           =  -5091.335429207 Eh
Final COS-X integration done in                =   122.926 sec

----------------
TOTAL SCF ENERGY
----------------

Total Energy       :        -5091.33542921 Eh         -138542.28038 eV

Components:
Nuclear Repulsion  :        11995.56112489 Eh          326415.81287 eV
Electronic Energy  :       -17086.89655410 Eh         -464958.09325 eV
One Electron Energy:       -30838.64402636 Eh         -839162.16614 eV
Two Electron Energy:        13751.74747226 Eh          374204.07289 eV

Virial components:
Potential Energy   :       -10148.50639090 Eh         -276154.89834 eV
Kinetic Energy     :         5057.17096169 Eh          137612.61796 eV
Virial Ratio       :            2.00675565


DFT components:
N(Alpha)           :      290.999966519494 electrons
N(Beta)            :      290.999966519494 electrons
N(Total)           :      581.999933038989 electrons
E(XC)              :     -426.677581489487 Eh       
DFET-embed. en.    :        0.000000000000 Eh       

---------------
SCF CONVERGENCE
---------------

  Last Energy change         ...   -3.4132e-08  Tolerance :   1.0000e-08
  Last MAX-Density change    ...    7.1054e-15  Tolerance :   1.0000e-07
  Last RMS-Density change    ...    3.8805e-17  Tolerance :   5.0000e-09
  Last Orbital Gradient      ...    4.3428e-07  Tolerance :   1.0000e-05
  Last Orbital Rotation      ...    2.5500e-06  Tolerance :   1.0000e-05

             **** THE GBW FILE WAS UPDATED (xtbopt.gbw) ****
             **** DENSITY FILE WAS UPDATED (xtbopt.scfp) ****
             **** ENERGY FILE WAS UPDATED (xtbopt.en.tmp) ****
             **** THE GBW FILE WAS UPDATED (xtbopt.gbw) ****
             **** DENSITY FILE WAS UPDATED (xtbopt.scfp) ****
----------------
ORBITAL ENERGIES
----------------

  NO   OCC          E(Eh)            E(eV) 
   0   2.0000     -89.013806     -2422.1888 
   1   2.0000     -89.013207     -2422.1725 
   2   2.0000     -89.010313     -2422.0937 
   3   2.0000     -89.009863     -2422.0815 
   4   2.0000     -24.832694      -675.7320 
   5   2.0000     -24.832182      -675.7180 
   6   2.0000     -19.243213      -523.6345 
   7   2.0000     -19.241006      -523.5744 
   8   2.0000     -14.575252      -396.6128 
   9   2.0000     -14.477340      -393.9485 
  10   2.0000     -14.476801      -393.9338 
  11   2.0000     -14.447913      -393.1477 
  12   2.0000     -14.447382      -393.1332 
  13   2.0000     -14.446711      -393.1150 
  14   2.0000     -14.443611      -393.0306 
  15   2.0000     -14.439083      -392.9074 
  16   2.0000     -14.437266      -392.8580 
  17   2.0000     -14.434536      -392.7837 
  18   2.0000     -14.433612      -392.7585 
  19   2.0000     -14.430654      -392.6780 
  20   2.0000     -14.430630      -392.6774 
  21   2.0000     -14.429554      -392.6481 
  22   2.0000     -14.429533      -392.6475 
  23   2.0000     -10.408111      -283.2191 
  24   2.0000     -10.407546      -283.2037 
  25   2.0000     -10.395059      -282.8639 
  26   2.0000     -10.392253      -282.7876 
  27   2.0000     -10.382989      -282.5355 
  28   2.0000     -10.382939      -282.5341 
  29   2.0000     -10.369981      -282.1815 
  30   2.0000     -10.369444      -282.1669 
  31   2.0000     -10.369042      -282.1560 
  32   2.0000     -10.367603      -282.1168 
  33   2.0000     -10.366486      -282.0864 
  34   2.0000     -10.365081      -282.0482 
  35   2.0000     -10.364705      -282.0379 
  36   2.0000     -10.363122      -281.9949 
  37   2.0000     -10.362844      -281.9873 
  38   2.0000     -10.362584      -281.9802 
  39   2.0000     -10.362061      -281.9660 
  40   2.0000     -10.362051      -281.9658 
  41   2.0000     -10.351898      -281.6895 
  42   2.0000     -10.350375      -281.6480 
  43   2.0000     -10.350095      -281.6404 
  44   2.0000     -10.350070      -281.6397 
  45   2.0000     -10.349350      -281.6201 
  46   2.0000     -10.348035      -281.5844 
  47   2.0000     -10.347137      -281.5599 
  48   2.0000     -10.346712      -281.5483 
  49   2.0000     -10.346542      -281.5437 
  50   2.0000     -10.345843      -281.5247 
  51   2.0000     -10.345754      -281.5223 
  52   2.0000     -10.345468      -281.5145 
  53   2.0000     -10.345098      -281.5044 
  54   2.0000     -10.344784      -281.4959 
  55   2.0000     -10.344548      -281.4895 
  56   2.0000     -10.343702      -281.4664 
  57   2.0000     -10.342823      -281.4425 
  58   2.0000     -10.342789      -281.4416 
  59   2.0000     -10.339714      -281.3579 
  60   2.0000     -10.339136      -281.3422 
  61   2.0000     -10.339098      -281.3412 
  62   2.0000     -10.337457      -281.2965 
  63   2.0000     -10.336875      -281.2807 
  64   2.0000     -10.336734      -281.2768 
  65   2.0000     -10.336451      -281.2691 
  66   2.0000     -10.336142      -281.2607 
  67   2.0000     -10.334808      -281.2244 
  68   2.0000     -10.332403      -281.1590 
  69   2.0000     -10.328801      -281.0610 
  70   2.0000     -10.327901      -281.0365 
  71   2.0000     -10.327684      -281.0306 
  72   2.0000     -10.327209      -281.0176 
  73   2.0000     -10.327074      -281.0140 
  74   2.0000     -10.326246      -280.9914 
  75   2.0000     -10.325793      -280.9791 
  76   2.0000     -10.325766      -280.9784 
  77   2.0000     -10.325665      -280.9756 
  78   2.0000     -10.325474      -280.9704 
  79   2.0000     -10.324594      -280.9465 
  80   2.0000     -10.321836      -280.8714 
  81   2.0000     -10.320797      -280.8432 
  82   2.0000     -10.315440      -280.6974 
  83   2.0000     -10.315362      -280.6953 
  84   2.0000      -8.108584      -220.6458 
  85   2.0000      -8.108111      -220.6329 
  86   2.0000      -8.104428      -220.5327 
  87   2.0000      -8.103902      -220.5184 
  88   2.0000      -6.077706      -165.3828 
  89   2.0000      -6.077218      -165.3695 
  90   2.0000      -6.073755      -165.2753 
  91   2.0000      -6.073582      -165.2706 
  92   2.0000      -6.073200      -165.2602 
  93   2.0000      -6.073099      -165.2574 
  94   2.0000      -6.071066      -165.2021 
  95   2.0000      -6.070583      -165.1890 
  96   2.0000      -6.069324      -165.1547 
  97   2.0000      -6.068787      -165.1401 
  98   2.0000      -6.066831      -165.0869 
  99   2.0000      -6.066360      -165.0741 
 100   2.0000      -1.355000       -36.8714 
 101   2.0000      -1.337833       -36.4043 
 102   2.0000      -1.255419       -34.1617 
 103   2.0000      -1.159271       -31.5454 
 104   2.0000      -1.156913       -31.4812 
 105   2.0000      -1.066661       -29.0253 
 106   2.0000      -1.066500       -29.0209 
 107   2.0000      -1.047187       -28.4954 
 108   2.0000      -1.046626       -28.4801 
 109   2.0000      -1.039440       -28.2846 
 110   2.0000      -1.038058       -28.2470 
 111   2.0000      -1.033297       -28.1175 
 112   2.0000      -1.032294       -28.0902 
 113   2.0000      -1.031213       -28.0607 
 114   2.0000      -1.030497       -28.0412 
 115   2.0000      -1.024570       -27.8800 
 116   2.0000      -1.022149       -27.8141 
 117   2.0000      -1.018745       -27.7215 
 118   2.0000      -1.015727       -27.6393 
 119   2.0000      -1.015206       -27.6252 
 120   2.0000      -1.014300       -27.6005 
 121   2.0000      -1.012993       -27.5649 
 122   2.0000      -1.011101       -27.5135 
 123   2.0000      -1.009332       -27.4653 
 124   2.0000      -1.009260       -27.4634 
 125   2.0000      -0.985018       -26.8037 
 126   2.0000      -0.983969       -26.7752 
 127   2.0000      -0.978503       -26.6264 
 128   2.0000      -0.976993       -26.5853 
 129   2.0000      -0.958311       -26.0770 
 130   2.0000      -0.944708       -25.7068 
 131   2.0000      -0.938506       -25.5381 
 132   2.0000      -0.930812       -25.3287 
 133   2.0000      -0.930273       -25.3140 
 134   2.0000      -0.922797       -25.1106 
 135   2.0000      -0.911435       -24.8014 
 136   2.0000      -0.907651       -24.6984 
 137   2.0000      -0.906453       -24.6658 
 138   2.0000      -0.902953       -24.5706 
 139   2.0000      -0.890199       -24.2236 
 140   2.0000      -0.883559       -24.0429 
 141   2.0000      -0.877463       -23.8770 
 142   2.0000      -0.877160       -23.8687 
 143   2.0000      -0.861796       -23.4507 
 144   2.0000      -0.850197       -23.1350 
 145   2.0000      -0.845765       -23.0144 
 146   2.0000      -0.822679       -22.3862 
 147   2.0000      -0.813363       -22.1327 
 148   2.0000      -0.812914       -22.1205 
 149   2.0000      -0.799310       -21.7503 
 150   2.0000      -0.798236       -21.7211 
 151   2.0000      -0.796570       -21.6758 
 152   2.0000      -0.777273       -21.1507 
 153   2.0000      -0.771157       -20.9842 
 154   2.0000      -0.759516       -20.6675 
 155   2.0000      -0.758432       -20.6380 
 156   2.0000      -0.751259       -20.4428 
 157   2.0000      -0.749545       -20.3962 
 158   2.0000      -0.731298       -19.8996 
 159   2.0000      -0.723260       -19.6809 
 160   2.0000      -0.718852       -19.5610 
 161   2.0000      -0.716148       -19.4874 
 162   2.0000      -0.713105       -19.4046 
 163   2.0000      -0.706289       -19.2191 
 164   2.0000      -0.705405       -19.1950 
 165   2.0000      -0.701272       -19.0826 
 166   2.0000      -0.693150       -18.8616 
 167   2.0000      -0.691006       -18.8032 
 168   2.0000      -0.684564       -18.6279 
 169   2.0000      -0.678461       -18.4619 
 170   2.0000      -0.666735       -18.1428 
 171   2.0000      -0.665626       -18.1126 
 172   2.0000      -0.664665       -18.0864 
 173   2.0000      -0.660846       -17.9825 
 174   2.0000      -0.659144       -17.9362 
 175   2.0000      -0.653471       -17.7819 
 176   2.0000      -0.652683       -17.7604 
 177   2.0000      -0.646466       -17.5912 
 178   2.0000      -0.637357       -17.3434 
 179   2.0000      -0.637090       -17.3361 
 180   2.0000      -0.634111       -17.2550 
 181   2.0000      -0.625485       -17.0203 
 182   2.0000      -0.621546       -16.9131 
 183   2.0000      -0.618175       -16.8214 
 184   2.0000      -0.616610       -16.7788 
 185   2.0000      -0.608959       -16.5706 
 186   2.0000      -0.604861       -16.4591 
 187   2.0000      -0.603883       -16.4325 
 188   2.0000      -0.598875       -16.2962 
 189   2.0000      -0.594157       -16.1678 
 190   2.0000      -0.592566       -16.1245 
 191   2.0000      -0.580891       -15.8068 
 192   2.0000      -0.577441       -15.7130 
 193   2.0000      -0.572191       -15.5701 
 194   2.0000      -0.571846       -15.5607 
 195   2.0000      -0.569258       -15.4903 
 196   2.0000      -0.568120       -15.4593 
 197   2.0000      -0.567646       -15.4464 
 198   2.0000      -0.564405       -15.3583 
 199   2.0000      -0.563269       -15.3273 
 200   2.0000      -0.560866       -15.2619 
 201   2.0000      -0.557666       -15.1749 
 202   2.0000      -0.552990       -15.0476 
 203   2.0000      -0.542130       -14.7521 
 204   2.0000      -0.541710       -14.7407 
 205   2.0000      -0.538201       -14.6452 
 206   2.0000      -0.536188       -14.5904 
 207   2.0000      -0.533307       -14.5120 
 208   2.0000      -0.531706       -14.4684 
 209   2.0000      -0.530746       -14.4423 
 210   2.0000      -0.529517       -14.4089 
 211   2.0000      -0.526371       -14.3233 
 212   2.0000      -0.525148       -14.2900 
 213   2.0000      -0.524125       -14.2622 
 214   2.0000      -0.522685       -14.2230 
 215   2.0000      -0.520304       -14.1582 
 216   2.0000      -0.520031       -14.1508 
 217   2.0000      -0.517928       -14.0935 
 218   2.0000      -0.515996       -14.0410 
 219   2.0000      -0.512840       -13.9551 
 220   2.0000      -0.510351       -13.8874 
 221   2.0000      -0.507972       -13.8226 
 222   2.0000      -0.506335       -13.7781 
 223   2.0000      -0.504476       -13.7275 
 224   2.0000      -0.500604       -13.6221 
 225   2.0000      -0.495221       -13.4756 
 226   2.0000      -0.494001       -13.4425 
 227   2.0000      -0.490342       -13.3429 
 228   2.0000      -0.489705       -13.3256 
 229   2.0000      -0.478027       -13.0078 
 230   2.0000      -0.477371       -12.9899 
 231   2.0000      -0.475594       -12.9416 
 232   2.0000      -0.472597       -12.8600 
 233   2.0000      -0.471709       -12.8358 
 234   2.0000      -0.469957       -12.7882 
 235   2.0000      -0.469572       -12.7777 
 236   2.0000      -0.468807       -12.7569 
 237   2.0000      -0.467738       -12.7278 
 238   2.0000      -0.463406       -12.6099 
 239   2.0000      -0.463380       -12.6092 
 240   2.0000      -0.462810       -12.5937 
 241   2.0000      -0.461566       -12.5598 
 242   2.0000      -0.459317       -12.4986 
 243   2.0000      -0.457312       -12.4441 
 244   2.0000      -0.457128       -12.4391 
 245   2.0000      -0.456058       -12.4100 
 246   2.0000      -0.456013       -12.4087 
 247   2.0000      -0.455879       -12.4051 
 248   2.0000      -0.455610       -12.3978 
 249   2.0000      -0.455178       -12.3860 
 250   2.0000      -0.455026       -12.3819 
 251   2.0000      -0.454694       -12.3728 
 252   2.0000      -0.453758       -12.3474 
 253   2.0000      -0.453583       -12.3426 
 254   2.0000      -0.453442       -12.3388 
 255   2.0000      -0.448740       -12.2108 
 256   2.0000      -0.447756       -12.1841 
 257   2.0000      -0.446169       -12.1409 
 258   2.0000      -0.445872       -12.1328 
 259   2.0000      -0.443215       -12.0605 
 260   2.0000      -0.440904       -11.9976 
 261   2.0000      -0.439215       -11.9517 
 262   2.0000      -0.437163       -11.8958 
 263   2.0000      -0.436629       -11.8813 
 264   2.0000      -0.432266       -11.7626 
 265   2.0000      -0.429883       -11.6977 
 266   2.0000      -0.429855       -11.6969 
 267   2.0000      -0.429050       -11.6751 
 268   2.0000      -0.427537       -11.6339 
 269   2.0000      -0.426806       -11.6140 
 270   2.0000      -0.423091       -11.5129 
 271   2.0000      -0.422850       -11.5063 
 272   2.0000      -0.404661       -11.0114 
 273   2.0000      -0.401960       -10.9379 
 274   2.0000      -0.398065       -10.8319 
 275   2.0000      -0.378206       -10.2915 
 276   2.0000      -0.373566       -10.1652 
 277   2.0000      -0.371522       -10.1096 
 278   2.0000      -0.370730       -10.0881 
 279   2.0000      -0.367841       -10.0095 
 280   2.0000      -0.365785        -9.9535 
 281   2.0000      -0.363183        -9.8827 
 282   2.0000      -0.359025        -9.7696 
 283   2.0000      -0.354186        -9.6379 
 284   2.0000      -0.345164        -9.3924 
 285   2.0000      -0.342022        -9.3069 
 286   2.0000      -0.340418        -9.2632 
 287   2.0000      -0.338198        -9.2028 
 288   2.0000      -0.323888        -8.8134 
 289   2.0000      -0.294335        -8.0093 
 290   2.0000      -0.269217        -7.3258 
 291   0.0000      -0.135540        -3.6882 
 292   0.0000      -0.126468        -3.4414 
 293   0.0000      -0.111039        -3.0215 
[...]
  24   4.058     305.5   0.044765   0.042487  17.171884  18.014986     0.12 ( 104-> 111)    0.08 (  94-> 106)    0.07 ( 102-> 109)
  25   4.097     302.7   0.036642   0.034456  -156.651276  -133.971673     0.13 ( 102-> 109)    0.06 ( 103-> 107)    0.06 ( 102-> 106)
  26   4.151     298.7   0.339886   0.303216  99.421910  96.514473     0.11 ( 104-> 111)    0.06 ( 101-> 108)    0.06 ( 105-> 110)
  27   4.205     294.8   0.299843   0.271587  -12.739525  -5.450207     0.46 ( 100-> 109)    0.07 ( 103-> 107)    0.07 ( 102-> 109)
  28   4.236     292.7   0.074404   0.066731  371.208266  343.900553     0.16 ( 104-> 112)    0.13 ( 104-> 111)    0.08 ( 102-> 109)
  29   4.279     289.7   0.177761   0.160215  -54.460166  -51.940120     0.27 (  98-> 107)    0.26 ( 101-> 108)    0.05 ( 103-> 108)
  30   4.305     288.0   0.031465   0.028715  -52.461118  -51.495373     0.53 (  98-> 107)    0.16 ( 101-> 108)    0.02 (  98-> 109)
  31   4.326     286.6   0.291854   0.255502  -69.821816  -65.054892     0.13 ( 103-> 108)    0.07 (  99-> 110)    0.06 (  93-> 108)
  32   4.364     284.1   0.135533   0.114688  169.088715  156.068559     0.13 ( 103-> 108)    0.12 ( 104-> 112)    0.07 ( 102-> 108)
  33   4.397     282.0   0.426762   0.375304  -671.102271  -596.488703     0.16 ( 100-> 109)    0.13 ( 103-> 109)    0.07 (  92-> 109)
  34   4.439     279.3   0.025946   0.022721  -32.012652  -27.722171     0.24 ( 100-> 107)    0.15 ( 100-> 106)    0.10 ( 102-> 107)
  35   4.450     278.6   0.076791   0.065789  487.254731  440.782544     0.19 ( 101-> 107)    0.08 ( 101-> 106)    0.05 ( 102-> 107)
  36   4.474     277.1   0.121543   0.103471  -104.061848  -95.999030     0.21 ( 101-> 107)    0.08 (  99-> 108)    0.07 (  97-> 108)
  37   4.538     273.2   0.131408   0.115184  29.109360  21.527656     0.18 ( 103-> 109)    0.16 (  99-> 109)    0.11 ( 104-> 109)
  38   4.548     272.6   0.173331   0.146343  228.575015  203.946611     0.12 ( 101-> 107)    0.11 (  97-> 106)    0.06 (  99-> 109)
  39   4.607     269.1   0.023498   0.019058  87.058957  79.746908     0.16 (  90-> 106)    0.06 (  97-> 107)    0.05 (  91-> 107)
  40   4.626     268.0   0.157064   0.127745  122.939057  99.559942     0.13 (  92-> 106)    0.06 ( 102-> 111)    0.05 ( 105-> 113)
  41   4.644     267.0   0.095372   0.077817  -75.220144  -67.602035     0.16 ( 105-> 113)    0.07 ( 101-> 108)    0.06 ( 103-> 110)
  42   4.659     266.1   0.042276   0.035712  -159.602122  -147.653330     0.31 ( 105-> 113)    0.08 ( 104-> 114)    0.05 ( 102-> 110)
  43   4.679     265.0   0.186925   0.162904  -126.755083  -124.017778     0.13 ( 105-> 114)    0.12 (  99-> 108)    0.07 ( 103-> 108)
  44   4.720     262.7   0.229946   0.188717  -90.166949  -82.797291     0.24 ( 105-> 114)    0.09 ( 105-> 113)    0.08 (  99-> 108)
  45   4.742     261.5   0.005273   0.004075  40.448116  28.756431     0.41 (  94-> 109)    0.12 ( 100-> 111)    0.09 ( 105-> 114)
  46   4.746     261.2   0.158285   0.128646  95.182810  86.351820     0.42 ( 101-> 110)    0.15 ( 101-> 111)    0.05 ( 101-> 108)
  47   4.824     257.0   0.003277   0.002595   3.014170   3.730177     0.16 ( 102-> 107)    0.12 ( 100-> 107)    0.12 (  99-> 106)
  48   4.832     256.6   0.015474   0.011668  53.556576  32.419065     0.11 (  94-> 109)    0.10 ( 100-> 111)    0.06 ( 103-> 111)
  49   4.857     255.3   0.065860   0.056978  72.326843  72.457895     0.13 (  98-> 112)    0.11 (  98-> 110)    0.10 (  99-> 107)
  50   4.877     254.2   0.020666   0.016868  -7.417878  -5.211606     0.12 (  96-> 109)    0.08 (  96-> 106)    0.08 ( 100-> 111)
  51   4.895     253.3   0.019435   0.015949  -5.839545  -6.202133     0.14 ( 103-> 110)    0.12 (  99-> 110)    0.11 ( 103-> 112)
  52   4.910     252.5   0.075560   0.060733  -31.461843  -21.962989     0.11 (  98-> 112)    0.10 (  99-> 107)    0.08 (  98-> 108)
  53   4.947     250.6   0.126356   0.094095   3.000707   3.218812     0.13 (  92-> 108)    0.07 (  91-> 108)    0.06 (  95-> 110)

-----------------------------------------------------------------------------
         ABSORPTION SPECTRUM VIA TRANSITION ELECTRIC DIPOLE MOMENTS
-----------------------------------------------------------------------------
State   Energy  Wavelength   fosc         T2         TX        TY        TZ  
        (cm-1)    (nm)                  (au**2)     (au)      (au)      (au) 
-----------------------------------------------------------------------------
   0   13333.9    750.0   1.098439133  27.12033  -2.44836  -4.56038   0.57346
   1   14562.4    686.7   0.057112174   1.29114  -0.53765  -0.97467  -0.22824
   2   18925.6    528.4   1.368630662  23.80742  -2.33000  -4.27976   0.24936
   3   20362.0    491.1   0.413038055   6.67800   0.97593   2.38894   0.13613
   4   22162.8    451.2   0.001769093   0.02628  -0.11771  -0.07582  -0.08170
   5   23058.4    433.7   0.170570941   2.43529  -0.90384  -0.82260   0.97041
   6   23851.9    419.3   0.081578575   1.12597  -0.84761  -0.47697  -0.42430
   7   24446.9    409.1   0.232492664   3.13084   0.64819   1.51142  -0.65291
   8   26484.0    377.6   0.053955354   0.67070  -0.21581  -0.72132   0.32221
   9   28020.7    356.9   0.065990391   0.77531   0.67726   0.17002  -0.53640
  10   28280.3    353.6   0.002340568   0.02725   0.04861  -0.13580  -0.08026
  11   28684.5    348.6   0.057968709   0.66531  -0.17813   0.40991  -0.68231
  12   29024.3    344.5   0.139029510   1.57696  -0.41367  -1.18140  -0.10070
  13   29661.5    337.1   0.159492336   1.77020   0.87088  -0.39345  -0.92573
  14   30095.1    332.3   0.004386377   0.04798  -0.02372   0.14931  -0.15851
  15   30215.2    331.0   0.263705576   2.87322   0.81192  -0.72371  -1.30010
  16   30474.4    328.1   0.061746693   0.66704  -0.19113   0.25701   0.75131
  17   31074.0    321.8   0.034987812   0.37068  -0.26925   0.18825   0.51258
  18   31473.5    317.7   0.028913109   0.30243  -0.44214  -0.25980   0.19862
  19   31695.9    315.5   0.014556784   0.15120   0.09741  -0.36803   0.07911
  20   31745.9    315.0   0.092328137   0.95746  -0.25521   0.74272  -0.58369
  21   32129.4    311.2   0.024109586   0.24704  -0.46593   0.12564  -0.11898
  22   32344.2    309.2   0.240652931   2.44946  -0.55344  -1.43592   0.28513
  23   32557.9    307.1   0.207425732   2.09740  -0.82318   1.07286   0.51840
  24   32730.8    305.5   0.044764857   0.45025   0.43374   0.31745  -0.40168
  25   33041.0    302.7   0.036642454   0.36510  -0.13197   0.52288   0.27253
  26   33479.7    298.7   0.339885581   3.34216  -1.25253  -1.32720  -0.10883
  27   33918.9    294.8   0.299842579   2.91022   0.87561  -0.56310  -1.35146
  28   34163.2    292.7   0.074404077   0.71699   0.09597   0.11960  -0.83275
  29   34515.8    289.7   0.177761190   1.69549   0.88943  -0.23773  -0.92081
  30   34720.1    288.0   0.031465370   0.29835   0.24407  -0.19633  -0.44748
  31   34895.5    286.6   0.291854173   2.75342  -1.62160   0.23407   0.26279
  32   35196.1    284.1   0.135533498   1.26773  -0.74844   0.68993   0.48122
  33   35465.1    282.0   0.426762313   3.96151  -0.19323   1.47869  -1.31819
  34   35805.6    279.3   0.025946106   0.23856   0.09725   0.40954   0.24774
  35   35889.7    278.6   0.076790941   0.70439  -0.54992   0.24537   0.58461
  36   36086.3    277.1   0.121542833   1.10882   0.96125  -0.39982  -0.15800
  37   36600.1    273.2   0.131407855   1.18199   0.07145  -1.02529   0.35451
  38   36683.4    272.6   0.173331238   1.55555  -0.62157  -0.11461   1.07520
  39   37159.6    269.1   0.023498216   0.20818   0.09446  -0.04847  -0.44374
  40   37313.2    268.0   0.157063602   1.38576  -0.49937  -0.49892   0.94205
  41   37456.9    267.0   0.095371800   0.83823  -0.66280   0.56698   0.27833
  42   37576.3    266.1   0.042275992   0.37039  -0.46247   0.30840   0.24778
  43   37736.1    265.0   0.186924811   1.63074   1.06024   0.69978  -0.13018
  44   38069.4    262.7   0.229945763   1.98850  -0.21646   1.37508   0.22541
  45   38245.0    261.5   0.005272536   0.04539  -0.08434  -0.16666   0.10246
  46   38281.3    261.2   0.158285438   1.36123  -0.33154   0.92695   0.62616
  47   38907.9    257.0   0.003276591   0.02772   0.00673   0.12840   0.10580
  48   38974.1    256.6   0.015473711   0.13071   0.08408   0.24383   0.25334
  49   39173.3    255.3   0.065859663   0.55348   0.34376  -0.43327  -0.49759
  50   39335.4    254.2   0.020666330   0.17296   0.24527   0.25837  -0.21460
  51   39481.8    253.3   0.019435285   0.16206   0.03870  -0.38338  -0.11653
  52   39599.2    252.5   0.075559874   0.62818   0.48438   0.14434  -0.61051
  53   39901.3    250.6   0.126355537   1.04252  -0.41514  -0.92260  -0.13777

-----------------------------------------------------------------------------
         ABSORPTION SPECTRUM VIA TRANSITION VELOCITY DIPOLE MOMENTS
-----------------------------------------------------------------------------
State   Energy  Wavelength   fosc         P2         PX        PY        PZ  
        (cm-1)    (nm)                  (au**2)     (au)      (au)      (au) 
-----------------------------------------------------------------------------
   0   13333.9    750.0   1.423584592   0.12973  -0.16864  -0.31592   0.03855
   1   14562.4    686.7   0.068082096   0.00678  -0.04088  -0.06989  -0.01482
   2   18925.6    528.4   1.487672564   0.19243  -0.20837  -0.38541   0.02157
   3   20362.0    491.1   0.436461592   0.06074   0.09231   0.22808   0.01412
   4   22162.8    451.2   0.002345283   0.00036  -0.01090  -0.01083  -0.01092
   5   23058.4    433.7   0.165423760   0.02607  -0.09366  -0.07989   0.10448
   6   23851.9    419.3   0.085005335   0.01386  -0.09245  -0.05585  -0.04680
   7   24446.9    409.1   0.236645766   0.03954   0.07317   0.16962  -0.07358
   8   26484.0    377.6   0.048073997   0.00870  -0.02557  -0.08020   0.04020
   9   28020.7    356.9   0.067242346   0.01288   0.08762   0.01479  -0.07057
  10   28280.3    353.6   0.001978192   0.00038   0.00569  -0.01617  -0.00940
  11   28684.5    348.6   0.056017411   0.01098  -0.02312   0.05520  -0.08603
  12   29024.3    344.5   0.147846931   0.02933  -0.05779  -0.16073  -0.01247
  13   29661.5    337.1   0.149362107   0.03028   0.11336  -0.05102  -0.12176
  14   30095.1    332.3   0.002717767   0.00056  -0.00326   0.01428  -0.01856
  15   30215.2    331.0   0.236344514   0.04881   0.10385  -0.09602  -0.16971
  16   30474.4    328.1   0.051594552   0.01075  -0.02407   0.03092   0.09597
  17   31074.0    321.8   0.032195408   0.00684  -0.03482   0.02829   0.06946
  18   31473.5    317.7   0.022429596   0.00482  -0.05672  -0.03102   0.02541
  19   31695.9    315.5   0.012339507   0.00267   0.01485  -0.04860   0.00952
  20   31745.9    315.0   0.085699697   0.01859  -0.03336   0.10269  -0.08328
  21   32129.4    311.2   0.021941331   0.00482  -0.06502   0.01849  -0.01578
  22   32344.2    309.2   0.213046089   0.04710  -0.07575  -0.19953   0.03932
  23   32557.9    307.1   0.181168011   0.04031  -0.11459   0.14947   0.06958
  24   32730.8    305.5   0.042486556   0.00950   0.06321   0.04725  -0.05723
  25   33041.0    302.7   0.034455537   0.00778  -0.01875   0.07791   0.03687
  26   33479.7    298.7   0.303215861   0.06938  -0.18119  -0.19064  -0.01440
  27   33918.9    294.8   0.271587296   0.06296   0.12895  -0.08332  -0.19847
  28   34163.2    292.7   0.066730736   0.01558   0.01634   0.02229  -0.12172
  29   34515.8    289.7   0.160215066   0.03779   0.13294  -0.03510  -0.13744
  30   34720.1    288.0   0.028714814   0.00681   0.03819  -0.02709  -0.06798
  31   34895.5    286.6   0.255502399   0.06094  -0.24099   0.03660   0.03901
  32   35196.1    284.1   0.114687705   0.02759  -0.11184   0.10054   0.07050
  33   35465.1    282.0   0.375303728   0.09097  -0.02825   0.22274  -0.20138
  34   35805.6    279.3   0.022721155   0.00556   0.01181   0.06151   0.04047
  35   35889.7    278.6   0.065788878   0.01614  -0.08345   0.03295   0.08993
  36   36086.3    277.1   0.103470994   0.02552   0.14590  -0.06045  -0.02403
  37   36600.1    273.2   0.115183653   0.02881   0.01232  -0.16009   0.05506
  38   36683.4    272.6   0.146342701   0.03669  -0.09420  -0.01637   0.16598
  39   37159.6    269.1   0.019057876   0.00484   0.01418  -0.00855  -0.06757
  40   37313.2    268.0   0.127745111   0.03258  -0.07565  -0.07740   0.14444
  41   37456.9    267.0   0.077817087   0.01992  -0.10334   0.08814   0.03837
  42   37576.3    266.1   0.035712452   0.00917  -0.07232   0.04595   0.04278
  43   37736.1    265.0   0.162903532   0.04201   0.17013   0.11140  -0.02567
  44   38069.4    262.7   0.188716735   0.04910  -0.03372   0.21603   0.03596
  45   38245.0    261.5   0.004074759   0.00107  -0.01226  -0.02725   0.01312
  46   38281.3    261.2   0.128645536   0.03366  -0.05161   0.14639   0.09780
  47   38907.9    257.0   0.002594864   0.00069   0.00008   0.02011   0.01690
  48   38974.1    256.6   0.011667541   0.00311   0.01761   0.03757   0.03723
  49   39173.3    255.3   0.056977871   0.01525   0.05756  -0.07285  -0.08145
  50   39335.4    254.2   0.016867820   0.00453   0.04095   0.03988  -0.03560
  51   39481.8    253.3   0.015949269   0.00430   0.00578  -0.06313  -0.01688
  52   39599.2    252.5   0.060733064   0.01644   0.07867   0.02055  -0.09913
  53   39901.3    250.6   0.094095383   0.02566  -0.06281  -0.14509  -0.02576

-------------------------------------------------------------------
                             CD SPECTRUM
-------------------------------------------------------------------
State   Energy Wavelength       R         MX        MY        MZ   
        (cm-1)   (nm)       (1e40*cgs)   (au)      (au)      (au)  
-------------------------------------------------------------------
   0   13333.9    750.0    -50.60358   0.13631  -0.26629  -1.16129
   1   14562.4    686.7     32.27966   0.03286   0.14930  -0.11498
   2   18925.6    528.4    137.41657   0.24775   0.00326   0.03312
   3   20362.0    491.1    -124.58029  -1.61514   0.85044   0.53729
   4   22162.8    451.2      7.18936   0.16841  -0.01666   0.14613
   5   23058.4    433.7    279.73341   2.93224  -1.82736  -0.04081
   6   23851.9    419.3    -175.58323  -1.34722   0.70174   0.14691
   7   24446.9    409.1    -20.51162  -1.72235   1.06048   0.61171
   8   26484.0    377.6      7.39112   0.64078  -0.45127  -0.67839
   9   28020.7    356.9    110.46900  -1.28581   0.87336  -0.47298
  10   28280.3    353.6     -5.18306  -0.62871   0.25130  -1.07995
  11   28684.5    348.6    -151.14300  -3.40812   2.10098   1.21220
  12   29024.3    344.5     34.47326  -1.61253   0.76044  -0.84484
  13   29661.5    337.1    -87.68610  -3.62194   1.70724  -4.53475
  14   30095.1    332.3     29.58844   0.50655  -0.09507   0.62655
  15   30215.2    331.0    144.97305  -2.26411   1.75258  -1.91648
  16   30474.4    328.1    -108.95089   3.54034  -1.74155   2.11158
  17   31074.0    321.8     57.37847   1.44065  -0.86401   0.59920
  18   31473.5    317.7     94.12787   0.64743  -0.76876  -1.57483
  19   31695.9    315.5     81.28539  -0.85156   0.41637  -1.37333
  20   31745.9    315.0    -133.54980  -3.28233   2.00226   3.01230
  21   32129.4    311.2    -87.95962  -0.93315   0.63671   1.19039
  22   32344.2    309.2    -26.95263   0.95960  -0.68429  -1.18249
  23   32557.9    307.1    -209.64855   0.88795  -0.41008   3.97429
  24   32730.8    305.5     17.17188  -1.90967   0.83157  -1.22356
  25   33041.0    302.7    -156.65128   0.99921  -0.47980   3.84284
  26   33479.7    298.7     99.42191   0.86508  -0.44701  -0.62931
  27   33918.9    294.8    -12.73953  -6.41585   3.30308  -5.57305
  28   34163.2    292.7    371.20827  -2.39151   1.79641   1.87344
  29   34515.8    289.7    -54.46017  -1.65641   1.22545  -2.16726
  30   34720.1    288.0    -52.46112  -0.51735   0.48168  -0.99087
  31   34895.5    286.6    -69.82182  -0.14326  -0.06982   0.30535
  32   35196.1    284.1    169.08871   0.59991  -0.43038   0.05944
  33   35465.1    282.0    -671.10227  -8.50884   4.83239   4.50827
  34   35805.6    279.3    -32.01265   1.93913  -0.91119   1.29326
  35   35889.7    278.6    487.25473   3.45426  -1.71895   0.43495
  36   36086.3    277.1    -104.06185   0.40409  -0.17148   0.09831
  37   36600.1    273.2     29.10936   2.26454  -1.39477  -4.83857
  38   36683.4    272.6    228.57502   5.00198  -2.81125   1.69011
  39   37159.6    269.1     87.05896  -3.31604   1.48581  -0.03591
  40   37313.2    268.0    122.93906   6.00550  -2.92471   1.08087
  41   37456.9    267.0    -75.22014  -0.32695   0.10418   0.15571
  42   37576.3    266.1    -159.60212  -0.90531   0.38926   0.55835
  43   37736.1    265.0    -126.75508   0.39088   0.01342  -0.87501
  44   38069.4    262.7    -90.16695  -0.16087  -0.00881   1.59622
  45   38245.0    261.5     40.44812  -0.36941  -0.02868  -2.02546
  46   38281.3    261.2     95.18281   1.05676  -0.63147   0.84946
  47   38907.9    257.0      3.01417   0.88549  -0.29118   0.17620
  48   38974.1    256.6     53.55658   1.99282  -0.86969  -0.72115
  49   39173.3    255.3     72.32684  -1.95498   1.09976  -1.69155
  50   39335.4    254.2     -7.41788  -0.41837   0.38461  -0.16174
  51   39481.8    253.3     -5.83954  -0.05359  -0.15201   0.26973
  52   39599.2    252.5    -31.46184  -2.93695   1.66441  -2.15527
  53   39901.3    250.6      3.00071  -0.05729   0.02721   0.08282

sTD-DFT done

Total run time:       11.129 sec

           *** ORCA-CIS/TD-DFT FINISHED WITHOUT ERROR ***

-------------------------   --------------------
FINAL SINGLE POINT ENERGY     -5091.335429206728
-------------------------   --------------------


                            ***************************************
                            *     ORCA property calculations      *
                            ***************************************

                                    ---------------------
                                    Active property flags
                                    ---------------------
   (+) Dipole Moment


------------------------------------------------------------------------------
                       ORCA ELECTRIC PROPERTIES CALCULATION
------------------------------------------------------------------------------

Dipole Moment Calculation                       ... on
Quadrupole Moment Calculation                   ... off
Polarizability Calculation                      ... off
GBWName                                         ... xtbopt.gbw
Electron density file                           ... xtbopt.scfp
The origin for moment calculation is the CENTER OF MASS  = (-12.106729, -23.825831  0.217820)

-------------
DIPOLE MOMENT
-------------
                                X             Y             Z
Electronic contribution:    -12.53156       9.92827      13.72443
Nuclear contribution   :     10.69701      -9.44001     -11.90800
                        -----------------------------------------
Total Dipole Moment    :     -1.83455       0.48826       1.81642
                        -----------------------------------------
Magnitude (a.u.)       :      2.62742
Magnitude (Debye)      :      6.67838



--------------------
Rotational spectrum 
--------------------
 
Rotational constants in cm-1:     0.002421     0.000140     0.000137 
Rotational constants in MHz :    72.591359     4.199693     4.099985 

 Dipole components along the rotational axes: 
x,y,z [a.u.] :     0.642438     2.547613     0.017112 
x,y,z [Debye]:     1.632948     6.475518     0.043495 

 

Timings for individual modules:

Sum of individual times         ...     1347.215 sec (=  22.454 min)
GTO integral calculation        ...        9.925 sec (=   0.165 min)   0.7 %
SCF iterations                  ...     1324.114 sec (=  22.069 min)  98.3 %
CIS module                      ...       13.176 sec (=   0.220 min)   1.0 %
                             ****ORCA TERMINATED NORMALLY****
TOTAL RUN TIME: 0 days 0 hours 22 minutes 29 seconds 908 msec
