
                                 *****************
                                 * O   R   C   A *
                                 *****************

           --- An Ab Initio, DFT and Semiempirical electronic structure package ---

                  #######################################################
                  #                        -***-                        #
                  #          Department of theory and spectroscopy      #
                  #               Directorship: Frank Neese             #
                  #        Max Planck Institute fuer Kohlenforschung    #
                  #                Kaiser Wilhelm Platz 1               #
                  #                 D-45470 Muelheim/Ruhr               #
                  #                      Germany                        #
                  #                                                     #
                  #                  All rights reserved                #
                  #                        -***-                        #
                  #######################################################


                         Program Version 4.2.0 -  RELEASE  -


 With contributions from (in alphabetic order):
   Daniel Aravena         : Magnetic Suceptibility
   Michael Atanasov       : Ab Initio Ligand Field Theory (pilot matlab implementation)
   Alexander A. Auer      : GIAO ZORA, VPT2
   Ute Becker             : Parallelization
   Giovanni Bistoni       : ED, misc. LED, open-shell LED, HFLED
   Martin Brehm           : Molecular dynamics
   Dmytro Bykov           : SCF Hessian
   Vijay G. Chilkuri      : MRCI spin determinant printing, contributions to CSF-ICE
   Dipayan Datta          : RHF DLPNO-CCSD density
   Achintya Kumar Dutta   : EOM-CC, STEOM-CC
   Dmitry Ganyushin       : Spin-Orbit,Spin-Spin,Magnetic field MRCI
   Miquel Garcia          : C-PCM Hessian, Gaussian charge scheme
   Yang Guo               : DLPNO-NEVPT2, CIM, IAO-localization
   Andreas Hansen         : Spin unrestricted coupled pair/coupled cluster methods
   Benjamin Helmich-Paris : CASSCF linear response (MC-RPA)
   Lee Huntington         : MR-EOM, pCC
   Robert Izsak           : Overlap fitted RIJCOSX, COSX-SCS-MP3, EOM
   Christian Kollmar      : KDIIS, OOCD, Brueckner-CCSD(T), CCSD density
   Simone Kossmann        : Meta GGA functionals, TD-DFT gradient, OOMP2, MP2 Hessian
   Martin Krupicka        : AUTO-CI
   Lucas Lang             : DCDCAS
   Dagmar Lenk            : GEPOL surface, SMD
   Dimitrios Liakos       : Extrapolation schemes; Compound Job, initial MDCI parallelization
   Dimitrios Manganas     : Further ROCIS development; embedding schemes
   Dimitrios Pantazis     : SARC Basis sets
   Taras Petrenko         : DFT Hessian,TD-DFT gradient, ASA, ECA, R-Raman, ABS, FL, XAS/XES, NRVS
   Peter Pinski           : DLPNO-MP2, DLPNO-MP2 Gradient
   Christoph Reimann      : Effective Core Potentials
   Marius Retegan         : Local ZFS, SOC
   Christoph Riplinger    : Optimizer, TS searches, QM/MM, DLPNO-CCSD(T), (RO)-DLPNO pert. Triples
   Tobias Risthaus        : Range-separated hybrids, TD-DFT gradient, RPA, STAB
   Michael Roemelt        : Original ROCIS implementation
   Masaaki Saitow         : Open-shell DLPNO-CCSD energy and density
   Barbara Sandhoefer     : DKH picture change effects
   Avijit Sen             : IP-ROCIS
   Kantharuban Sivalingam : CASSCF convergence, NEVPT2, FIC-MRCI
   Bernardo de Souza      : ESD, SOC TD-DFT
   Georgi Stoychev        : AutoAux, RI-MP2 NMR
   Willem Van den Heuvel  : Paramagnetic NMR
   Boris Wezisla          : Elementary symmetry handling
   Frank Wennmohs         : Technical directorship


 We gratefully acknowledge several colleagues who have allowed us to
 interface, adapt or use parts of their codes:
   Stefan Grimme, W. Hujo, H. Kruse,             : VdW corrections, initial TS optimization,
                  C. Bannwarth                     DFT functionals, gCP, sTDA/sTD-DF
   Ed Valeev, F. Pavosevic, A. Kumar             : LibInt (2-el integral package), F12 methods
   Garnet Chan, S. Sharma, J. Yang, R. Olivares  : DMRG
   Ulf Ekstrom                                   : XCFun DFT Library
   Mihaly Kallay                                 : mrcc  (arbitrary order and MRCC methods)
   Andreas Klamt, Michael Diedenhofen            : otool_cosmo (COSMO solvation model)
   Jiri Pittner, Ondrej Demel                    : Mk-CCSD
   Frank Weinhold                                : gennbo (NPA and NBO analysis)
   Christopher J. Cramer and Donald G. Truhlar   : smd solvation model
   Lars Goerigk                                  : TD-DFT with DH, B97 family of functionals
   V. Asgeirsson, H. Jonsson                     : NEB implementation
   FAccTs GmbH                                   : IRC, NEB, NEB-TS, Multilevel, MM, QM/MM, CI optimization
   S Lehtola, MJT Oliveira, MAL Marques          : LibXC Library


 Your calculation uses the libint2 library for the computation of 2-el integrals
 For citations please refer to: http://libint.valeyev.net

 Your ORCA version has been built with support for libXC version: 4.2.3
 For citations please refer to: https://tddft.org/programs/libxc/

 This ORCA versions uses:
   CBLAS   interface :  Fast vector & matrix operations
   LAPACKE interface :  Fast linear algebra routines
   SCALAPACK package :  Parallel linear algebra routines


XCFun DFT library Copyright 2009-2010 Ulf Ekstrom and contributors.
See http://admol.org/xcfun for more information. This is free soft-
ware; see the source code for copying conditions. There is ABSOLUTELY
NO WARRANTY; not even for MERCHANTABILITY or FITNESS FOR A PARTICULAR
PURPOSE. For details see the documentation. Scientific users of this 
library should cite U. Ekstrom, L. Visscher, R. Bast, A. J. Thorvald-
sen and K. Ruud; J.Chem.Theor.Comp. 2010, DOI: 10.1021/ct100117s
XCFun Version 0.99 
----- Orbital basis set information -----
Your calculation utilizes the basis: def2-SVP
   F. Weigend and R. Ahlrichs, Phys. Chem. Chem. Phys. 7, 3297 (2005).

----- AuxJ basis set information -----
Your calculation utilizes the auxiliary basis: def2/J
   F. Weigend, Phys. Chem. Chem. Phys. 8, 1057 (2006).

================================================================================
                                        WARNINGS
                       Please study these warnings very carefully!
================================================================================

INFO   : Checking CIS options ...

WARNING: CIS/ROCIS methods need fully converged wavefunctions
  ===> : Setting SCFConvForced true
         You can overwrite this default with %scf ConvForced false 


INFO   : the flag for use of LIBINT has been found!

================================================================================
                                       INPUT FILE
================================================================================
NAME = xtbopt.inp
|  1> # ORCA input file
|  2> # SCF done       -178.544167061549          0.004031654854
|  3> ! CAM-B3LYP def2-SVP def2/J RIJCOSX Grid4 TightSCF
|  4> %maxcore 5000
|  5> %tddft
|  6>     Mode sTDDFT
|  7>     Ethresh 5.0
|  8>     maxcore 5000
|  9> end
| 10> 
| 11> %pal
| 12>   nprocs 6
| 13>   end
| 14> * xyz 0 1
| 15>    C        1.03455         0.87333        -1.38122
| 16>    C        0.24920         1.15355        -2.60960
| 17>    O        0.04263         2.24407        -3.09965
| 18>    C       -0.15395        -0.17484        -3.11694
| 19>    C        0.20876        -1.15307        -2.19136
| 20>    C        0.81543        -0.50794        -1.03001
| 21>    C        0.88507        -1.03869         0.23514
| 22>    C        1.18902        -0.25150         1.36504
| 23>    N        1.38994         0.37986         2.30421
| 24>    C        0.55451        -2.36768         0.55900
| 25>    N        0.30989        -3.44268         0.88016
| 26>    C       -0.03875        -2.50755        -2.44505
| 27>    C       -0.63764        -2.85539        -3.62840
| 28>    C       -1.01644        -1.89071        -4.58833
| 29>    C       -0.77627        -0.50830        -4.33561
| 30>    C       -1.15357         0.44940        -5.30032
| 31>    C       -1.74132         0.05335        -6.46986
| 32>    C       -1.97910        -1.30725        -6.72476
| 33>    C       -1.62694        -2.25746        -5.80577
| 34>    C        1.89301         1.81675        -0.89463
| 35>    C        3.06396         1.65293        -0.12709
| 36>    C        3.81798         2.69990         0.38721
| 37>    C        5.02746         2.35156         0.97584
| 38>    C        5.34777         1.00312         0.94319
| 39>   Se        3.97220         0.02277         0.12881
| 40>    C        6.55118         0.37071         1.41001
| 41>    C        7.60052         1.11177         1.90709
| 42>    C        8.78567         0.46887         2.31484
| 43>    C        9.97271         0.98286         2.81338
| 44>    C       10.36238         2.40071         3.08362
| 45>    C       10.71469         3.10573         1.75942
| 46>    N       11.46940         4.32095         2.02005
| 47>    C        9.32172         3.17580         3.92829
| 48>    N        8.28123         3.82131         3.13770
| 49>    C       10.87013        -0.13884         2.98041
| 50>    C       12.16339        -0.19578         3.34779
| 51>    C       12.91820        -1.48422         3.34258
| 52>    C       12.08299        -2.69446         3.07727
| 53>    C       10.79174        -2.62103         2.70813
| 54>    C       10.14752        -1.36350         2.60579
| 55>    C        8.88747        -0.98261         2.20137
| 56>    C        7.78195        -1.71949         1.71011
| 57>    C        6.66359        -1.06015         1.32922
| 58>    C       13.78404        -1.58990         4.57161
| 59>    C       13.54774        -2.42726         5.58438
| 60>    C       14.40012        -2.60385         6.72745
| 61>    C       15.60949        -1.99752         7.00636
| 62>    C       16.27534        -2.48109         8.13170
| 63>    C       15.61822        -3.47370         8.83397
| 64>   Se       13.97542        -3.88053         8.02542
| 65>    C       16.09626        -4.17799         9.97325
| 66>    C       17.38931        -4.52573        10.20747
| 67>    C       17.85715        -4.88384        11.57446
| 68>    O       17.15181        -5.10631        12.53474
| 69>    C       19.33106        -4.85737        11.49697
| 70>    C       19.72539        -4.61774        10.17928
| 71>    C       18.54149        -4.55171         9.32936
| 72>    C       18.51515        -4.75853         7.97340
| 73>    C       17.32305        -5.01946         7.26787
| 74>    N       16.37959        -5.31240         6.68099
| 75>    C       19.65895        -4.82292         7.15354
| 76>    N       20.55346        -4.85256         6.43420
| 77>    C       21.08320        -4.53261         9.84331
| 78>    C       22.01759        -4.70177        10.83113
| 79>    C       21.65366        -4.96305        12.17066
| 80>    C       20.27490        -5.03931        12.52684
| 81>    C       19.91772        -5.29862        13.86596
| 82>    C       20.88788        -5.48198        14.81278
| 83>    C       22.24732        -5.41204        14.46647
| 84>    C       22.62276        -5.15669        13.17616
| 85>    H        0.24909        -3.26279        -1.73167
| 86>    H       -0.82783        -3.89650        -3.84694
| 87>    H       -0.96441         1.49110        -5.09322
| 88>    H       -2.02598         0.78680        -7.21005
| 89>    H       -2.44199        -1.59794        -7.65656
| 90>    H       -1.80922        -3.30519        -5.99879
| 91>    H        1.71612         2.82521        -1.25860
| 92>    H        3.46395         3.71835         0.34014
| 93>    H        5.67868         3.08443         1.42034
| 94>    H        7.54762         2.18535         1.99343
| 95>    H       11.28273         2.38324         3.67546
| 96>    H        9.79369         3.25984         1.17746
| 97>    H       11.36369         2.43922         1.18317
| 98>    H       10.89323         5.00965         2.49076
| 99>    H       11.79193         4.73094         1.15091
|100>    H        9.86680         3.89842         4.55624
|101>    H        8.83192         2.46153         4.59516
|102>    H        8.64117         4.65127         2.67899
|103>    H        7.52329         4.11294         3.74394
|104>    H       12.72140         0.68778         3.62594
|105>    H       13.62307        -1.40148         2.49379
|106>    H       12.59328        -3.64318         3.14730
|107>    H       10.22961        -3.51658         2.48613
|108>    H        7.84765        -2.79538         1.63758
|109>    H        5.80781        -1.60823         0.94569
|110>    H       14.63720        -0.92622         4.59273
|111>    H       12.66984        -3.06292         5.55228
|112>    H       16.02465        -1.22076         6.38807
|113>    H       17.22341        -2.08725         8.46234
|114>    H       15.38265        -4.42445        10.75501
|115>    H       21.38872        -4.33142         8.82931
|116>    H       23.06919        -4.64035        10.58918
|117>    H       18.86993        -5.35277        14.11981
|118>    H       20.61327        -5.68455        15.83745
|119>    H       22.99586        -5.56372        15.22955
|120>    H       23.66722        -5.10368        12.90681
|121> *
|122> 
|123>                          ****END OF INPUT****
================================================================================

                       ****************************
                       * Single Point Calculation *
                       ****************************

---------------------------------
CARTESIAN COORDINATES (ANGSTROEM)
---------------------------------
  C      1.034550    0.873330   -1.381220
  C      0.249200    1.153550   -2.609600
  O      0.042630    2.244070   -3.099650
  C     -0.153950   -0.174840   -3.116940
  C      0.208760   -1.153070   -2.191360
  C      0.815430   -0.507940   -1.030010
  C      0.885070   -1.038690    0.235140
  C      1.189020   -0.251500    1.365040
  N      1.389940    0.379860    2.304210
  C      0.554510   -2.367680    0.559000
  N      0.309890   -3.442680    0.880160
  C     -0.038750   -2.507550   -2.445050
  C     -0.637640   -2.855390   -3.628400
  C     -1.016440   -1.890710   -4.588330
  C     -0.776270   -0.508300   -4.335610
  C     -1.153570    0.449400   -5.300320
  C     -1.741320    0.053350   -6.469860
  C     -1.979100   -1.307250   -6.724760
  C     -1.626940   -2.257460   -5.805770
  C      1.893010    1.816750   -0.894630
  C      3.063960    1.652930   -0.127090
  C      3.817980    2.699900    0.387210
  C      5.027460    2.351560    0.975840
  C      5.347770    1.003120    0.943190
  Se     3.972200    0.022770    0.128810
  C      6.551180    0.370710    1.410010
  C      7.600520    1.111770    1.907090
  C      8.785670    0.468870    2.314840
  C      9.972710    0.982860    2.813380
  C     10.362380    2.400710    3.083620
  C     10.714690    3.105730    1.759420
  N     11.469400    4.320950    2.020050
  C      9.321720    3.175800    3.928290
  N      8.281230    3.821310    3.137700
  C     10.870130   -0.138840    2.980410
  C     12.163390   -0.195780    3.347790
  C     12.918200   -1.484220    3.342580
  C     12.082990   -2.694460    3.077270
  C     10.791740   -2.621030    2.708130
  C     10.147520   -1.363500    2.605790
  C      8.887470   -0.982610    2.201370
  C      7.781950   -1.719490    1.710110
  C      6.663590   -1.060150    1.329220
  C     13.784040   -1.589900    4.571610
  C     13.547740   -2.427260    5.584380
  C     14.400120   -2.603850    6.727450
  C     15.609490   -1.997520    7.006360
  C     16.275340   -2.481090    8.131700
  C     15.618220   -3.473700    8.833970
  Se    13.975420   -3.880530    8.025420
  C     16.096260   -4.177990    9.973250
  C     17.389310   -4.525730   10.207470
  C     17.857150   -4.883840   11.574460
  O     17.151810   -5.106310   12.534740
  C     19.331060   -4.857370   11.496970
  C     19.725390   -4.617740   10.179280
  C     18.541490   -4.551710    9.329360
  C     18.515150   -4.758530    7.973400
  C     17.323050   -5.019460    7.267870
  N     16.379590   -5.312400    6.680990
  C     19.658950   -4.822920    7.153540
  N     20.553460   -4.852560    6.434200
  C     21.083200   -4.532610    9.843310
  C     22.017590   -4.701770   10.831130
  C     21.653660   -4.963050   12.170660
  C     20.274900   -5.039310   12.526840
  C     19.917720   -5.298620   13.865960
  C     20.887880   -5.481980   14.812780
  C     22.247320   -5.412040   14.466470
  C     22.622760   -5.156690   13.176160
  H      0.249090   -3.262790   -1.731670
  H     -0.827830   -3.896500   -3.846940
  H     -0.964410    1.491100   -5.093220
  H     -2.025980    0.786800   -7.210050
  H     -2.441990   -1.597940   -7.656560
  H     -1.809220   -3.305190   -5.998790
  H      1.716120    2.825210   -1.258600
  H      3.463950    3.718350    0.340140
  H      5.678680    3.084430    1.420340
  H      7.547620    2.185350    1.993430
  H     11.282730    2.383240    3.675460
  H      9.793690    3.259840    1.177460
  H     11.363690    2.439220    1.183170
  H     10.893230    5.009650    2.490760
  H     11.791930    4.730940    1.150910
  H      9.866800    3.898420    4.556240
  H      8.831920    2.461530    4.595160
  H      8.641170    4.651270    2.678990
  H      7.523290    4.112940    3.743940
  H     12.721400    0.687780    3.625940
  H     13.623070   -1.401480    2.493790
  H     12.593280   -3.643180    3.147300
  H     10.229610   -3.516580    2.486130
  H      7.847650   -2.795380    1.637580
  H      5.807810   -1.608230    0.945690
  H     14.637200   -0.926220    4.592730
  H     12.669840   -3.062920    5.552280
  H     16.024650   -1.220760    6.388070
  H     17.223410   -2.087250    8.462340
  H     15.382650   -4.424450   10.755010
  H     21.388720   -4.331420    8.829310
  H     23.069190   -4.640350   10.589180
  H     18.869930   -5.352770   14.119810
  H     20.613270   -5.684550   15.837450
  H     22.995860   -5.563720   15.229550
  H     23.667220   -5.103680   12.906810

----------------------------
CARTESIAN COORDINATES (A.U.)
----------------------------
  NO LB      ZA    FRAG     MASS         X           Y           Z
   0 C     6.0000    0    12.011    1.955016    1.650355   -2.610128
   1 C     6.0000    0    12.011    0.470920    2.179894   -4.931429
   2 O     8.0000    0    15.999    0.080559    4.240678   -5.857490
   3 C     6.0000    0    12.011   -0.290923   -0.330400   -5.890163
   4 C     6.0000    0    12.011    0.394499   -2.178987   -4.141070
   5 C     6.0000    0    12.011    1.540939   -0.959867   -1.946437
   6 C     6.0000    0    12.011    1.672540   -1.962840    0.444350
   7 C     6.0000    0    12.011    2.246922   -0.475266    2.579552
   8 N     7.0000    0    14.007    2.626606    0.717831    4.354326
   9 C     6.0000    0    12.011    1.047872   -4.474267    1.056357
  10 N     7.0000    0    14.007    0.585607   -6.505722    1.663261
  11 C     6.0000    0    12.011   -0.073227   -4.738583   -4.620475
  12 C     6.0000    0    12.011   -1.204965   -5.395905   -6.856682
  13 C     6.0000    0    12.011   -1.920793   -3.572924   -8.670687
  14 C     6.0000    0    12.011   -1.466938   -0.960548   -8.193116
  15 C     6.0000    0    12.011   -2.179931    0.849243  -10.016153
  16 C     6.0000    0    12.011   -3.290618    0.100817  -12.226264
  17 C     6.0000    0    12.011   -3.739957   -2.470344  -12.707955
  18 C     6.0000    0    12.011   -3.074471   -4.265981  -10.971315
  19 C     6.0000    0    12.011    3.577270    3.433160   -1.690606
  20 C     6.0000    0    12.011    5.790045    3.123585   -0.240165
  21 C     6.0000    0    12.011    7.214937    5.102072    0.731721
  22 C     6.0000    0    12.011    9.500523    4.443804    1.844070
  23 C     6.0000    0    12.011   10.105821    1.895622    1.782371
  24 Se   34.0000    0    78.960    7.506370    0.043029    0.243416
  25 C     6.0000    0    12.011   12.379936    0.700540    2.664533
  26 C     6.0000    0    12.011   14.362901    2.100941    3.603878
  27 C     6.0000    0    12.011   16.602510    0.886036    4.374414
  28 C     6.0000    0    12.011   18.845691    1.857336    5.316518
  29 C     6.0000    0    12.011   19.582060    4.536684    5.827197
  30 C     6.0000    0    12.011   20.247830    5.868979    3.324822
  31 N     7.0000    0    14.007   21.674025    8.165412    3.817341
  32 C     6.0000    0    12.011   17.615498    6.001392    7.423392
  33 N     7.0000    0    14.007   15.649257    7.221229    5.929394
  34 C     6.0000    0    12.011   20.541569   -0.262370    5.632159
  35 C     6.0000    0    12.011   22.985476   -0.369971    6.326406
  36 C     6.0000    0    12.011   24.411860   -2.804769    6.316561
  37 C     6.0000    0    12.011   22.833542   -5.091791    5.815198
  38 C     6.0000    0    12.011   20.393433   -4.953029    5.117624
  39 C     6.0000    0    12.011   19.176034   -2.576642    4.924229
  40 C     6.0000    0    12.011   16.794884   -1.856864    4.159986
  41 C     6.0000    0    12.011   14.705754   -3.249365    3.231640
  42 C     6.0000    0    12.011   12.592360   -2.003393    2.511862
  43 C     6.0000    0    12.011   26.048061   -3.004476    8.639091
  44 C     6.0000    0    12.011   25.601518   -4.586857   10.552949
  45 C     6.0000    0    12.011   27.212283   -4.920563   12.713038
  46 C     6.0000    0    12.011   29.497661   -3.774766   13.240102
  47 C     6.0000    0    12.011   30.755935   -4.688581   15.366686
  48 C     6.0000    0    12.011   29.514158   -6.564342   16.693784
  49 Se   34.0000    0    78.960   26.409716   -7.333139   15.165846
  50 C     6.0000    0    12.011   30.417523   -7.895257   18.846711
  51 C     6.0000    0    12.011   32.861034   -8.552390   19.289323
  52 C     6.0000    0    12.011   33.745123   -9.229120   21.872560
  53 O     8.0000    0    15.999   32.412224   -9.649527   23.687226
  54 C     6.0000    0    12.011   36.530409   -9.179099   21.726125
  55 C     6.0000    0    12.011   37.275585   -8.726264   19.236051
  56 C     6.0000    0    12.011   35.038338   -8.601485   17.629935
  57 C     6.0000    0    12.011   34.988563   -8.992319   15.067542
  58 C     6.0000    0    12.011   32.735820   -9.485405   13.734284
  59 N     7.0000    0    14.007   30.952939  -10.038981   12.625241
  60 C     6.0000    0    12.011   37.150032   -9.113998   13.518231
  61 N     7.0000    0    14.007   38.840411   -9.170009   12.158876
  62 C     6.0000    0    12.011   39.841474   -8.565392   18.601160
  63 C     6.0000    0    12.011   41.607215   -8.885058   20.467869
  64 C     6.0000    0    12.011   40.919487   -9.378805   22.999214
  65 C     6.0000    0    12.011   38.314008   -9.522916   23.672297
  66 C     6.0000    0    12.011   37.639036  -10.012941   26.202867
  67 C     6.0000    0    12.011   39.472373  -10.359441   27.992097
  68 C     6.0000    0    12.011   42.041342  -10.227273   27.337666
  69 C     6.0000    0    12.011   42.750821   -9.744732   24.899334
  70 H     1.0000    0     1.008    0.470712   -6.165780   -3.272382
  71 H     1.0000    0     1.008   -1.564372   -7.363318   -7.269663
  72 H     1.0000    0     1.008   -1.822471    2.817771   -9.624791
  73 H     1.0000    0     1.008   -3.828547    1.486837  -13.625020
  74 H     1.0000    0     1.008   -4.614692   -3.019669  -14.468802
  75 H     1.0000    0     1.008   -3.418930   -6.245904  -11.336070
  76 H     1.0000    0     1.008    3.242997    5.338873   -2.378409
  77 H     1.0000    0     1.008    6.545917    7.026663    0.642771
  78 H     1.0000    0     1.008   10.731150    5.828728    2.684054
  79 H     1.0000    0     1.008   14.262935    4.129713    3.767037
  80 H     1.0000    0     1.008   21.321270    4.503671    6.945613
  81 H     1.0000    0     1.008   18.507392    6.160205    2.225077
  82 H     1.0000    0     1.008   21.474262    4.609458    2.235867
  83 H     1.0000    0     1.008   20.585221    9.466867    4.706854
  84 H     1.0000    0     1.008   22.283518    8.940181    2.174905
  85 H     1.0000    0     1.008   18.645550    7.366946    8.610046
  86 H     1.0000    0     1.008   16.689910    4.651618    8.683594
  87 H     1.0000    0     1.008   16.329445    8.789626    5.062557
  88 H     1.0000    0     1.008   14.216958    7.772330    7.075021
  89 H     1.0000    0     1.008   24.039962    1.299716    6.852034
  90 H     1.0000    0     1.008   25.743871   -2.648413    4.712580
  91 H     1.0000    0     1.008   23.797850   -6.884612    5.947535
  92 H     1.0000    0     1.008   19.331161   -6.645373    4.698105
  93 H     1.0000    0     1.008   14.829909   -5.282503    3.094578
  94 H     1.0000    0     1.008   10.975170   -3.039114    1.787095
  95 H     1.0000    0     1.008   27.660299   -1.750302    8.679002
  96 H     1.0000    0     1.008   23.942528   -5.788080   10.492289
  97 H     1.0000    0     1.008   30.282200   -2.306902   12.071703
  98 H     1.0000    0     1.008   32.547528   -3.944331   15.991505
  99 H     1.0000    0     1.008   29.068996   -8.360999   20.324023
 100 H     1.0000    0     1.008   40.418823   -8.185198   16.684978
 101 H     1.0000    0     1.008   43.594451   -8.768991   20.010650
 102 H     1.0000    0     1.008   35.659000  -10.115269   26.682574
 103 H     1.0000    0     1.008   38.953435  -10.742243   29.928443
 104 H     1.0000    0     1.008   43.455878  -10.513907   28.779679
 105 H     1.0000    0     1.008   44.724564   -9.644557   24.390336

--------------------------------
INTERNAL COORDINATES (ANGSTROEM)
--------------------------------
 C      0   0   0     0.000000000000     0.00000000     0.00000000
 C      1   0   0     1.484659993163     0.00000000     0.00000000
 O      2   1   0     1.213282340513   126.43361612     0.00000000
 C      2   1   3     1.478020226587   104.99019325   177.37889987
 C      4   2   1     1.394700976339   109.36891283     6.83822866
 C      1   2   3     1.441967007736   107.57389457   169.50759961
 C      6   1   2     1.373735714976   125.92316555   207.53320926
 C      7   6   1     1.410222574135   122.21859898     0.09193035
 N      8   7   6     1.149358336160   177.44367509   116.00979282
 C      7   6   1     1.407256065292   124.39567857   174.33322691
 N     10   7   6     1.148306444291   176.86103110   169.37181213
 C      5   4   2     1.400084242680   120.81854060   181.25699849
 C     12   5   4     1.371123305979   118.62170992     0.45743733
 C     13  12   5     1.412643814732   122.02906388   359.61198679
 C      4   2   1     1.408415536303   129.07434362   188.37005550
 C     15   4   2     1.410748015806   123.30847839   358.57745727
 C     16  15   4     1.367526773632   120.20975579   179.27581530
 C     17  16  15     1.404544658742   120.56514363     0.12862420
 C     18  17  16     1.368012547384   120.48846721     0.04833271
 C      1   2   3     1.365197676566   119.80814389   342.37435539
 C     20   1   2     1.409637735909   129.50190242   207.16963149
 C     21  20   1     1.388955302125   124.39959460   184.30311948
 C     22  21  20     1.389484761665   116.13141720   187.73698230
 C     23  22  21     1.386345899190   115.78403965     1.70663794
 Se    24  23  22     1.875231647504   110.44078366   358.23796120
 C     24  23  22     1.437379194437   127.85994668   176.63885083
 C     26  24  23     1.377451591019   121.21783810   356.40535444
 C     27  26  24     1.408602497158   119.99118001   182.18294683
 C     28  27  26     1.386287060208   130.94371032   178.47821673
 C     29  28  27     1.495048824955   129.77733148     0.43351823
 C     30  29  28     1.541000057268   109.76398240   282.77919267
 N     31  30  29     1.454054617062   110.30386966   197.24619940
 C     30  29  28     1.548291042601   113.46487153    50.49292648
 N     33  30  29     1.457509913620   113.92984165   271.75022208
 C     29  28  27     1.446192437852   106.57743033   183.55211588
 C     35  29  28     1.345634294896   131.35633153   175.22905505
 C     36  35  29     1.493265855031   121.42351743   185.07614932
 C     37  36  35     1.494204135251   114.64109930   352.38331152
 C     38  37  36     1.344984337084   122.76177439     7.92388914
 C     39  38  37     1.416642010142   120.32298515   357.47481539
 C     40  39  38     1.377083414685   133.06640218   176.45350524
 C     41  40  39     1.416510851494   132.22861113   358.39839341
 C     42  41  40     1.352972844258   119.29071317   182.85363260
 C     37  36  35     1.507103814905   110.36849637   221.80800857
 C     44  37  36     1.335182583956   124.11610069   109.08749144
 C     45  44  37     1.436782766252   125.13825666   176.05018361
 C     46  45  44     1.381304692637   128.76314807   358.52937396
 C     47  46  45     1.394125633865   115.39733023   186.65528084
 C     48  47  46     1.382123170850   115.60592586   358.29094506
 Se    46  45  44     1.869494058108   120.10067446   183.06837418
 C     49  48  47     1.422148221565   127.07741142   176.89536522
 C     51  49  48     1.359323515025   125.76584327   325.47751837
 C     52  51  49     1.488549192267   121.24834182   161.34940915
 O     53  52  51     1.212078831966   126.07345929    12.14502779
 C     53  52  51     1.476182932126   105.14650601   194.03126741
 C     55  53  52     1.396146705006   109.54992301   355.40307288
 C     52  51  49     1.448886084169   131.04157485   345.72494764
 C     57  52  51     1.371894977613   125.90580068   331.14610863
 C     58  57  52     1.409595493679   122.60533968   357.88429675
 N     59  58  57     1.149068644425   175.71619597   249.86098586
 C     58  57  52     1.408756519665   124.50765319   182.25650536
 N     61  58  57     1.148249409014   176.63033761   208.44681623
 C     56  55  53     1.401346122091   120.68841356   179.37738566
 C     63  56  55     1.370214629210   118.71180114     0.61169782
 C     64  63  56     1.412463416942   122.06166959     0.23659579
 C     55  53  52     1.408747076696   128.92204189   175.67756144
 C     66  55  53     1.409986383941   123.25327609     0.46017617
 C     67  66  55     1.367954468394   120.15558561   179.16428468
 C     68  67  66     1.404599349744   120.60244139     0.13475325
 C     69  68  67     1.367866481861   120.49857799     0.12520118
 H     12   5   4     1.078030773030   120.70693559   179.53483496
 H     13  12   5     1.080667386294   119.72300863   179.37840432
 H     16  15   4     1.078800632925   118.51195687   359.48027531
 H     17  16  15     1.080213615078   120.17470180   180.27329032
 H     18  17  16     1.080286567629   119.32379116   180.17788820
 H     19  18  17     1.080842667413   120.65928532   179.95998997
 H     20   1   2     1.086625880697   114.80868672    18.48347921
 H     22  21  20     1.079255867855   121.13703964     8.74485137
 H     23  22  21     1.076460020298   122.06245902   181.12453937
 H     27  26  24     1.078344574800   121.81234633     1.95434372
 H     30  29  28     1.094360045415   107.56649152   167.59330138
 H     31  30  29     1.100303746108   109.09943897    70.85943989
 H     31  30  29     1.094303725023   108.02552300   314.10801430
 H     32  31  30     1.013828123007   110.85309832   292.94209671
 H     32  31  30     1.013667470426   110.45602717   173.63569219
 H     33  30  29     1.101641081886   107.86529996   146.96359072
 H     33  30  29     1.093069654597   107.87188082    30.98934469
 H     34  33  30     1.014300384156   110.75488546   284.87022713
 H     34  33  30     1.013433785750   109.68647943   166.38996136
 H     36  35  29     1.081397640186   122.11189217     2.75019770
 H     37  36  35     1.106405029182   105.08079416   108.68951777
 H     38  37  36     1.079522914717   115.85367454   184.72325055
 H     39  38  37     1.080409153701   120.70698157   177.52600316
 H     42  41  40     1.080331607887   119.59656790     2.33187593
 H     43  42  41     1.086207326296   120.31460668   179.71087501
 H     44  37  36     1.081110162009   115.23023968   289.22310305
 H     45  44  37     1.084344251426   119.24045127   358.42117528
 H     47  46  45     1.076102433461   122.58925420     5.28951921
 H     48  47  46     1.078549711464   122.72635828   180.54249428
 H     51  49  48     1.086798261546   117.89420805   142.37645698
 H     63  56  55     1.077968407005   120.76218877   181.02012877
 H     64  63  56     1.080821344580   119.67588821   179.93393843
 H     67  66  55     1.079460943759   118.58481416   359.46139597
 H     68  67  66     1.079997160135   120.09911392   180.24988524
 H     69  68  67     1.079634216019   119.32594408   180.22982004
 H     70  69  68     1.079933411929   120.65655940   180.08307033

---------------------------
INTERNAL COORDINATES (A.U.)
---------------------------
 C      0   0   0     0.000000000000     0.00000000     0.00000000
 C      1   0   0     2.805600789068     0.00000000     0.00000000
 O      2   1   0     2.292771346692   126.43361612     0.00000000
 C      2   1   3     2.793053448645   104.99019325   177.37889987
 C      4   2   1     2.635602883993   109.36891283     6.83822866
 C      1   2   3     2.724922738772   107.57389457   169.50759961
 C      6   1   2     2.595984281691   125.92316555   207.53320926
 C      7   6   1     2.664934452989   122.21859898     0.09193035
 N      8   7   6     2.171972485081   177.44367509   116.00979282
 C      7   6   1     2.659328563701   124.39567857   174.33322691
 N     10   7   6     2.169984697527   176.86103110   169.37181213
 C      5   4   2     2.645775783083   120.81854060   181.25699849
 C     12   5   4     2.591047544138   118.62170992     0.45743733
 C     13  12   5     2.669509934621   122.02906388   359.61198679
 C      4   2   1     2.661519646373   129.07434362   188.37005550
 C     15   4   2     2.665927393846   123.30847839   358.57745727
 C     16  15   4     2.584251082969   120.20975579   179.27581530
 C     17  16  15     2.654204747884   120.56514363     0.12862420
 C     18  17  16     2.585169062324   120.48846721     0.04833271
 C      1   2   3     2.579849727375   119.80814389   342.37435539
 C     20   1   2     2.663829268910   129.50190242   207.16963149
 C     21  20   1     2.624745133273   124.39959460   184.30311948
 C     22  21  20     2.625745666804   116.13141720   187.73698230
 C     23  22  21     2.619814076353   115.78403965     1.70663794
 Se    24  23  22     3.543674251444   110.44078366   358.23796120
 C     24  23  22     2.716253028082   127.85994668   176.63885083
 C     26  24  23     2.603006269759   121.21783810   356.40535444
 C     27  26  24     2.661872951186   119.99118001   182.18294683
 C     28  27  26     2.619702886792   130.94371032   178.47821673
 C     29  28  27     2.825232836006   129.77733148     0.43351823
 C     30  29  28     2.912068080593   109.76398240   282.77919267
 N     31  30  29     2.747765010011   110.30386966   197.24619940
 C     30  29  28     2.925846046120   113.46487153    50.49292648
 N     33  30  29     2.754294574217   113.92984165   271.75022208
 C     29  28  27     2.732907644488   106.57743033   183.55211588
 C     35  29  28     2.542880293765   131.35633153   175.22905505
 C     36  35  29     2.821863511143   121.42351743   185.07614932
 C     37  36  35     2.823636603796   114.64109930   352.38331152
 C     38  37  36     2.541652051501   122.76177439     7.92388914
 C     39  38  37     2.677065428977   120.32298515   357.47481539
 C     40  39  38     2.602310517319   133.06640218   176.45350524
 C     41  40  39     2.676817575051   132.22861113   358.39839341
 C     42  41  40     2.556748142280   119.29071317   182.85363260
 C     37  36  35     2.848013465558   110.36849637   221.80800857
 C     44  37  36     2.523129422459   124.11610069   109.08749144
 C     45  44  37     2.715125942155   125.13825666   176.05018361
 C     46  45  44     2.610287576584   128.76314807   358.52937396
 C     47  46  45     2.634515644285   115.39733023   186.65528084
 C     48  47  46     2.611834276253   115.60592586   358.29094506
 Se    46  45  44     3.532831778817   120.10067446   183.06837418
 C     49  48  47     2.687470660601   127.07741142   176.89536522
 C     51  49  48     2.568749170796   125.76584327   325.47751837
 C     52  51  49     2.812950310255   121.24834182   161.34940915
 O     53  52  51     2.290497045139   126.07345929    12.14502779
 C     53  52  51     2.789581465287   105.14650601   194.03126741
 C     55  53  52     2.638334915238   109.54992301   355.40307288
 C     52  51  49     2.737997898330   131.04157485   345.72494764
 C     57  52  51     2.592505792191   125.90580068   331.14610863
 C     58  57  52     2.663749442663   122.60533968   357.88429675
 N     59  58  57     2.171425047039   175.71619597   249.86098586
 C     58  57  52     2.662164011544   124.50765319   182.25650536
 N     61  58  57     2.169876916473   176.63033761   208.44681623
 C     56  55  53     2.648160389585   120.68841356   179.37738566
 C     63  56  55     2.589330393899   118.71180114     0.61169782
 C     64  63  56     2.669169032203   122.06166959     0.23659579
 C     55  53  52     2.662146166918   128.92204189   175.67756144
 C     66  55  53     2.664488118207   123.25327609     0.46017617
 C     67  66  55     2.585059308939   120.15558561   179.16428468
 C     68  67  66     2.654308098899   120.60244139     0.13475325
 C     69  68  67     2.584893038488   120.49857799     0.12520118
 H     12   5   4     2.037182924966   120.70693559   179.53483496
 H     13  12   5     2.042165401957   119.72300863   179.37840432
 H     16  15   4     2.038637749330   118.51195687   359.48027531
 H     17  16  15     2.041307898631   120.17470180   180.27329032
 H     18  17  16     2.041445758973   119.32379116   180.17788820
 H     19  18  17     2.042496635267   120.65928532   179.95998997
 H     20   1   2     2.053425324548   114.80868672    18.48347921
 H     22  21  20     2.039498018674   121.13703964     8.74485137
 H     23  22  21     2.034214632479   122.06245902   181.12453937
 H     27  26  24     2.037775924371   121.81234633     1.95434372
 H     30  29  28     2.068040777739   107.56649152   167.59330138
 H     31  30  29     2.079272744272   109.09943897    70.85943989
 H     31  30  29     2.067934347624   108.02552300   314.10801430
 H     32  31  30     1.915857499351   110.85309832   292.94209671
 H     32  31  30     1.915553909970   110.45602717   173.63569219
 H     33  30  29     2.081799942642   107.86529996   146.96359072
 H     33  30  29     2.065602292488   107.87188082    30.98934469
 H     34  33  30     1.916749943587   110.75488546   284.87022713
 H     34  33  30     1.915112309931   109.68647943   166.38996136
 H     36  35  29     2.043545381820   122.11189217     2.75019770
 H     37  36  35     2.090802498348   105.08079416   108.68951777
 H     38  37  36     2.040002664108   115.85367454   184.72325055
 H     39  38  37     2.041677413076   120.70698157   177.52600316
 H     42  41  40     2.041530872725   119.59656790     2.33187593
 H     43  42  41     2.052634371359   120.31460668   179.71087501
 H     44  37  36     2.043002126797   115.23023968   289.22310305
 H     45  44  37     2.049113670086   119.24045127   358.42117528
 H     47  46  45     2.033538891287   122.58925420     5.28951921
 H     48  47  46     2.038163576488   122.72635828   180.54249428
 H     51  49  48     2.053751077144   117.89420805   142.37645698
 H     63  56  55     2.037065070258   120.76218877   181.02012877
 H     64  63  56     2.042456340953   119.67588821   179.93393843
 H     67  66  55     2.039885555968   118.58481416   359.46139597
 H     68  67  66     2.040898858068   120.09911392   180.24988524
 H     69  68  67     2.040212993088   119.32594408   180.22982004
 H     70  69  68     2.040778391416   120.65655940   180.08307033

---------------------
BASIS SET INFORMATION
---------------------
There are 5 groups of distinct atoms

 Group   1 Type C   : 7s4p1d contracted to 3s2p1d pattern {511/31/1}
 Group   2 Type O   : 7s4p1d contracted to 3s2p1d pattern {511/31/1}
 Group   3 Type N   : 7s4p1d contracted to 3s2p1d pattern {511/31/1}
 Group   4 Type Se  : 14s10p6d contracted to 5s4p3d pattern {63311/5311/411}
 Group   5 Type H   : 4s1p contracted to 2s1p pattern {31/1}

Atom   0C    basis set group =>   1
Atom   1C    basis set group =>   1
Atom   2O    basis set group =>   2
Atom   3C    basis set group =>   1
Atom   4C    basis set group =>   1
Atom   5C    basis set group =>   1
Atom   6C    basis set group =>   1
Atom   7C    basis set group =>   1
Atom   8N    basis set group =>   3
Atom   9C    basis set group =>   1
Atom  10N    basis set group =>   3
Atom  11C    basis set group =>   1
Atom  12C    basis set group =>   1
Atom  13C    basis set group =>   1
Atom  14C    basis set group =>   1
Atom  15C    basis set group =>   1
Atom  16C    basis set group =>   1
Atom  17C    basis set group =>   1
Atom  18C    basis set group =>   1
Atom  19C    basis set group =>   1
Atom  20C    basis set group =>   1
Atom  21C    basis set group =>   1
Atom  22C    basis set group =>   1
Atom  23C    basis set group =>   1
Atom  24Se   basis set group =>   4
Atom  25C    basis set group =>   1
Atom  26C    basis set group =>   1
Atom  27C    basis set group =>   1
Atom  28C    basis set group =>   1
Atom  29C    basis set group =>   1
Atom  30C    basis set group =>   1
Atom  31N    basis set group =>   3
Atom  32C    basis set group =>   1
Atom  33N    basis set group =>   3
Atom  34C    basis set group =>   1
Atom  35C    basis set group =>   1
Atom  36C    basis set group =>   1
Atom  37C    basis set group =>   1
Atom  38C    basis set group =>   1
Atom  39C    basis set group =>   1
Atom  40C    basis set group =>   1
Atom  41C    basis set group =>   1
Atom  42C    basis set group =>   1
Atom  43C    basis set group =>   1
Atom  44C    basis set group =>   1
Atom  45C    basis set group =>   1
Atom  46C    basis set group =>   1
Atom  47C    basis set group =>   1
Atom  48C    basis set group =>   1
Atom  49Se   basis set group =>   4
Atom  50C    basis set group =>   1
Atom  51C    basis set group =>   1
Atom  52C    basis set group =>   1
Atom  53O    basis set group =>   2
Atom  54C    basis set group =>   1
Atom  55C    basis set group =>   1
Atom  56C    basis set group =>   1
Atom  57C    basis set group =>   1
Atom  58C    basis set group =>   1
Atom  59N    basis set group =>   3
Atom  60C    basis set group =>   1
Atom  61N    basis set group =>   3
Atom  62C    basis set group =>   1
Atom  63C    basis set group =>   1
Atom  64C    basis set group =>   1
Atom  65C    basis set group =>   1
Atom  66C    basis set group =>   1
Atom  67C    basis set group =>   1
Atom  68C    basis set group =>   1
Atom  69C    basis set group =>   1
Atom  70H    basis set group =>   5
Atom  71H    basis set group =>   5
Atom  72H    basis set group =>   5
Atom  73H    basis set group =>   5
Atom  74H    basis set group =>   5
Atom  75H    basis set group =>   5
Atom  76H    basis set group =>   5
Atom  77H    basis set group =>   5
Atom  78H    basis set group =>   5
Atom  79H    basis set group =>   5
Atom  80H    basis set group =>   5
Atom  81H    basis set group =>   5
Atom  82H    basis set group =>   5
Atom  83H    basis set group =>   5
Atom  84H    basis set group =>   5
Atom  85H    basis set group =>   5
Atom  86H    basis set group =>   5
Atom  87H    basis set group =>   5
Atom  88H    basis set group =>   5
Atom  89H    basis set group =>   5
Atom  90H    basis set group =>   5
Atom  91H    basis set group =>   5
Atom  92H    basis set group =>   5
Atom  93H    basis set group =>   5
Atom  94H    basis set group =>   5
Atom  95H    basis set group =>   5
Atom  96H    basis set group =>   5
Atom  97H    basis set group =>   5
Atom  98H    basis set group =>   5
Atom  99H    basis set group =>   5
Atom 100H    basis set group =>   5
Atom 101H    basis set group =>   5
Atom 102H    basis set group =>   5
Atom 103H    basis set group =>   5
Atom 104H    basis set group =>   5
Atom 105H    basis set group =>   5
---------------------------------
AUXILIARY/J BASIS SET INFORMATION
---------------------------------
There are 5 groups of distinct atoms

 Group   1 Type C   : 12s5p4d2f1g contracted to 6s4p3d1f1g pattern {711111/2111/211/2/1}
 Group   2 Type O   : 12s5p4d2f1g contracted to 6s4p3d1f1g pattern {711111/2111/211/2/1}
 Group   3 Type N   : 12s5p4d2f1g contracted to 6s4p3d1f1g pattern {711111/2111/211/2/1}
 Group   4 Type Se  : 19s5p5d3f1g contracted to 8s4p3d2f1g pattern {121111111/2111/311/21/1}
 Group   5 Type H   : 5s2p1d contracted to 3s1p1d pattern {311/2/1}

Atom   0C    basis set group =>   1
Atom   1C    basis set group =>   1
Atom   2O    basis set group =>   2
Atom   3C    basis set group =>   1
Atom   4C    basis set group =>   1
Atom   5C    basis set group =>   1
Atom   6C    basis set group =>   1
Atom   7C    basis set group =>   1
Atom   8N    basis set group =>   3
Atom   9C    basis set group =>   1
Atom  10N    basis set group =>   3
Atom  11C    basis set group =>   1
Atom  12C    basis set group =>   1
Atom  13C    basis set group =>   1
Atom  14C    basis set group =>   1
Atom  15C    basis set group =>   1
Atom  16C    basis set group =>   1
Atom  17C    basis set group =>   1
Atom  18C    basis set group =>   1
Atom  19C    basis set group =>   1
Atom  20C    basis set group =>   1
Atom  21C    basis set group =>   1
Atom  22C    basis set group =>   1
Atom  23C    basis set group =>   1
Atom  24Se   basis set group =>   4
Atom  25C    basis set group =>   1
Atom  26C    basis set group =>   1
Atom  27C    basis set group =>   1
Atom  28C    basis set group =>   1
Atom  29C    basis set group =>   1
Atom  30C    basis set group =>   1
Atom  31N    basis set group =>   3
Atom  32C    basis set group =>   1
Atom  33N    basis set group =>   3
Atom  34C    basis set group =>   1
Atom  35C    basis set group =>   1
Atom  36C    basis set group =>   1
Atom  37C    basis set group =>   1
Atom  38C    basis set group =>   1
Atom  39C    basis set group =>   1
Atom  40C    basis set group =>   1
Atom  41C    basis set group =>   1
Atom  42C    basis set group =>   1
Atom  43C    basis set group =>   1
Atom  44C    basis set group =>   1
Atom  45C    basis set group =>   1
Atom  46C    basis set group =>   1
Atom  47C    basis set group =>   1
Atom  48C    basis set group =>   1
Atom  49Se   basis set group =>   4
Atom  50C    basis set group =>   1
Atom  51C    basis set group =>   1
Atom  52C    basis set group =>   1
Atom  53O    basis set group =>   2
Atom  54C    basis set group =>   1
Atom  55C    basis set group =>   1
Atom  56C    basis set group =>   1
Atom  57C    basis set group =>   1
Atom  58C    basis set group =>   1
Atom  59N    basis set group =>   3
Atom  60C    basis set group =>   1
Atom  61N    basis set group =>   3
Atom  62C    basis set group =>   1
Atom  63C    basis set group =>   1
Atom  64C    basis set group =>   1
Atom  65C    basis set group =>   1
Atom  66C    basis set group =>   1
Atom  67C    basis set group =>   1
Atom  68C    basis set group =>   1
Atom  69C    basis set group =>   1
Atom  70H    basis set group =>   5
Atom  71H    basis set group =>   5
Atom  72H    basis set group =>   5
Atom  73H    basis set group =>   5
Atom  74H    basis set group =>   5
Atom  75H    basis set group =>   5
Atom  76H    basis set group =>   5
Atom  77H    basis set group =>   5
Atom  78H    basis set group =>   5
Atom  79H    basis set group =>   5
Atom  80H    basis set group =>   5
Atom  81H    basis set group =>   5
Atom  82H    basis set group =>   5
Atom  83H    basis set group =>   5
Atom  84H    basis set group =>   5
Atom  85H    basis set group =>   5
Atom  86H    basis set group =>   5
Atom  87H    basis set group =>   5
Atom  88H    basis set group =>   5
Atom  89H    basis set group =>   5
Atom  90H    basis set group =>   5
Atom  91H    basis set group =>   5
Atom  92H    basis set group =>   5
Atom  93H    basis set group =>   5
Atom  94H    basis set group =>   5
Atom  95H    basis set group =>   5
Atom  96H    basis set group =>   5
Atom  97H    basis set group =>   5
Atom  98H    basis set group =>   5
Atom  99H    basis set group =>   5
Atom 100H    basis set group =>   5
Atom 101H    basis set group =>   5
Atom 102H    basis set group =>   5
Atom 103H    basis set group =>   5
Atom 104H    basis set group =>   5
Atom 105H    basis set group =>   5


           ************************************************************
           *        Program running with 6 parallel MPI-processes     *
           *              working on a common directory               *
           ************************************************************
------------------------------------------------------------------------------
                           ORCA GTO INTEGRAL CALCULATION
                           -- RI-GTO INTEGRALS CHOSEN --
------------------------------------------------------------------------------

                         BASIS SET STATISTICS AND STARTUP INFO

Gaussian basis set:
 # of primitive gaussian shells          ... 1056
 # of primitive gaussian functions       ... 2032
 # of contracted shells                  ...  540
 # of contracted basis functions         ... 1196
 Highest angular momentum                ...    2
 Maximum contraction depth               ...    6
Auxiliary gaussian basis set:
 # of primitive gaussian shells          ... 1986
 # of primitive gaussian functions       ... 5514
 # of contracted shells                  ... 1236
 # of contracted aux-basis functions     ... 3844
 Highest angular momentum                ...    4
 Maximum contraction depth               ...   12
Ratio of auxiliary to basis functions    ...  3.21
Integral package used                  ... LIBINT
 One Electron integrals                  ... done
 Ordering auxiliary basis shells         ... done
 Integral threshhold             Thresh  ...  2.500e-11
 Primitive cut-off               TCut    ...  2.500e-12
 Pre-screening matrix                    ... done
 Shell pair data                         ... 
 Ordering of the shell pairs             ... done (   0.010 sec) 45177 of 146070 pairs
 Determination of significant pairs      ... done (   0.000 sec)
 Creation of shell pair data             ... done (   0.006 sec)
 Storage of shell pair data              ... done (   0.010 sec)
 Shell pair data done in (   0.026 sec)
 Computing two index integrals           ... done
 Cholesky decomposition of the V-matrix  ... done


Timings:
 Total evaluation time                   ...   2.326 sec (  0.039 min)
 One electron matrix time                ...   0.619 sec (  0.010 min) = 26.6%
 Schwartz matrix evaluation time         ...   0.759 sec (  0.013 min) = 32.7%
 Two index repulsion integral time       ...   0.350 sec (  0.006 min) = 15.0%
 Cholesky decomposition of V             ...   0.553 sec (  0.009 min) = 23.8%
 Three index repulsion integral time     ...   0.000 sec (  0.000 min) =  0.0%



           ************************************************************
           *        Program running with 6 parallel MPI-processes     *
           *              working on a common directory               *
           ************************************************************
-------------------------------------------------------------------------------
                                 ORCA SCF
-------------------------------------------------------------------------------

------------
SCF SETTINGS
------------
Hamiltonian:
 Density Functional     Method          .... DFT(GTOs)
 Exchange Functional    Exchange        .... WB88
 Correlation Functional Correlation     .... LYP
 LDA part of GGA corr.  LDAOpt          .... VWN-5
 Gradients option       PostSCFGGA      .... off
 Hybrid DFT is turned on
   Fraction HF Exchange ScalHFX         ....  0.190000
   Scaling of DF-GGA-X  ScalDFX         ....  0.350000
   Scaling of DF-GGA-C  ScalDFC         ....  0.810000
   Scaling of DF-LDA-C  ScalLDAC        ....  1.000000
   Perturbative correction              ....  0.000000
   Density functional embedding theory  .... OFF
 Long-range corrected/Screened/Range-Separated Hybrid DFT is turned on
   Amount of maximum screened exact exchange              ....  0.460000
   Range separation parameter mu (erf(mu*r12)/r12)        ....  0.330000
 RI-approximation to the Coulomb term is turned on
   Number of auxiliary basis functions  .... 3844
   RIJ-COSX (HFX calculated with COS-X)).... on


General Settings:
 Integral files         IntName         .... xtbopt
 Hartree-Fock type      HFTyp           .... RHF
 Total Charge           Charge          ....    0
 Multiplicity           Mult            ....    1
 Number of Electrons    NEL             ....  522
 Basis Dimension        Dim             .... 1196
 Nuclear Repulsion      ENuc            ....  10157.2157156128 Eh

Convergence Acceleration:
 DIIS                   CNVDIIS         .... on
   Start iteration      DIISMaxIt       ....    12
   Startup error        DIISStart       ....  0.200000
   # of expansion vecs  DIISMaxEq       ....     5
   Bias factor          DIISBfac        ....   1.050
   Max. coefficient     DIISMaxC        ....  10.000
 Newton-Raphson         CNVNR           .... off
 SOSCF                  CNVSOSCF        .... on
   Start iteration      SOSCFMaxIt      ....   150
   Startup grad/error   SOSCFStart      ....  0.003300
 Level Shifting         CNVShift        .... on
   Level shift para.    LevelShift      ....    0.2500
   Turn off err/grad.   ShiftErr        ....    0.0010
 Zerner damping         CNVZerner       .... off
 Static damping         CNVDamp         .... on
   Fraction old density DampFac         ....    0.7000
   Max. Damping (<1)    DampMax         ....    0.9800
   Min. Damping (>=0)   DampMin         ....    0.0000
   Turn off err/grad.   DampErr         ....    0.1000
 Fernandez-Rico         CNVRico         .... off

SCF Procedure:
 Maximum # iterations   MaxIter         ....   125
 SCF integral mode      SCFMode         .... Direct
   Integral package                     .... LIBINT
 Reset frequency        DirectResetFreq ....    20
 Integral Threshold     Thresh          ....  2.500e-11 Eh
 Primitive CutOff       TCut            ....  2.500e-12 Eh

Convergence Tolerance:
 Convergence Check Mode ConvCheckMode   .... Total+1el-Energy
 Convergence forced     ConvForced      .... 1
 Energy Change          TolE            ....  1.000e-08 Eh
 1-El. energy change                    ....  1.000e-05 Eh
 Orbital Gradient       TolG            ....  1.000e-05
 Orbital Rotation angle TolX            ....  1.000e-05
 DIIS Error             TolErr          ....  5.000e-07


Diagonalization of the overlap matrix:
Smallest eigenvalue                        ... 2.030e-04
Time for diagonalization                   ...    0.234 sec
Threshold for overlap eigenvalues          ... 1.000e-08
Number of eigenvalues below threshold      ... 0
Time for construction of square roots      ...    0.152 sec
Total time needed                          ...    0.389 sec

-------------------
DFT GRID GENERATION
-------------------

General Integration Accuracy     IntAcc      ...  4.670
Radial Grid Type                 RadialGrid  ... Gauss-Chebyshev
Angular Grid (max. acc.)         AngularGrid ... Lebedev-302
Angular grid pruning method      GridPruning ... 3 (G Style)
Weight generation scheme         WeightScheme... Becke
Basis function cutoff            BFCut       ...    1.0000e-11
Integration weight cutoff        WCut        ...    1.0000e-14
Grids for H and He will be reduced by one unit

# of grid points (after initial pruning)     ... 563880 (   0.0 sec)
# of grid points (after weights+screening)   ... 483448 (   7.0 sec)
nearest neighbour list constructed           ...    0.0 sec
Grid point re-assignment to atoms done       ...    0.1 sec
Grid point division into batches done        ...    1.7 sec
Reduced shell lists constructed in    2.8 sec

Total number of grid points                  ...   483448
Total number of batches                      ...     7605
Average number of points per batch           ...       63
Average number of grid points per atom       ...     4561
Average number of shells per batch           ...    92.95 (17.21%)
Average number of basis functions per batch  ...   198.87 (16.63%)
Average number of large shells per batch     ...    59.66 (64.19%)
Average number of large basis fcns per batch ...   129.19 (64.96%)
Maximum spatial batch extension              ...  20.44, 20.35, 19.51 au
Average spatial batch extension              ...   0.36,  0.33,  0.34 au

Time for grid setup =   10.063 sec

------------------------------
INITIAL GUESS: MODEL POTENTIAL
------------------------------
Loading Hartree-Fock densities                     ... done
Calculating cut-offs                               ... done
Setting up the integral package                    ... done
Initializing the effective Hamiltonian             ... done
Starting the Coulomb interaction                   ... done (   1.4 sec)
Reading the grid                                   ... done
Mapping shells                                     ... done
Starting the XC term evaluation                    ... done (   1.6 sec)
  promolecular density results
     # of electrons  =    521.982525527
     EX              =   -543.587763351
     EC              =    -18.648525849
     EX+EC           =   -562.236289200
Transforming the Hamiltonian                       ... done (   0.1 sec)
Diagonalizing the Hamiltonian                      ... done (   0.2 sec)
Back transforming the eigenvectors                 ... done (   0.1 sec)
Now organizing SCF variables                       ... done
                      ------------------
                      INITIAL GUESS DONE (  13.6 sec)
                      ------------------
--------------------
COSX GRID GENERATION
--------------------

General Integration Accuracy     IntAcc      ...  3.340
Radial Grid Type                 RadialGrid  ... Gauss-Chebyshev
Angular Grid (max. acc.)         AngularGrid ... Lebedev-50
Angular grid pruning method      GridPruning ... 3 (G Style)
Weight generation scheme         WeightScheme... Becke
Basis function cutoff            BFCut       ...    1.0000e-11
Integration weight cutoff        WCut        ...    1.0000e-14
Grids for H and He will be reduced by one unit

# of grid points (after initial pruning)     ...  52960 (   0.0 sec)
# of grid points (after weights+screening)   ...  47432 (   0.7 sec)
nearest neighbour list constructed           ...    0.0 sec
Grid point re-assignment to atoms done       ...    0.0 sec
Grid point division into batches done        ...    0.0 sec
Reduced shell lists constructed in    0.1 sec

Total number of grid points                  ...    47432
Total number of batches                      ...      792
Average number of points per batch           ...       59
Average number of grid points per atom       ...      447
Average number of shells per batch           ...   110.64 (20.49%)
Average number of basis functions per batch  ...   238.95 (19.98%)
Average number of large shells per batch     ...    70.88 (64.06%)
Average number of large basis fcns per batch ...   155.50 (65.07%)
Maximum spatial batch extension              ...  18.33, 16.58, 14.46 au
Average spatial batch extension              ...   0.85,  0.62,  0.68 au

Overlap Fitting                  UseSFitting ... on
Constructing numerical overlap ... done (      0.1 sec)
Inverting numerical overlap    ... done (      0.1 sec)
Obtaining analytic overlap     ... done (      0.0 sec)
Final contraction and storage  ... done (      0.1 sec)


General Integration Accuracy     IntAcc      ...  3.670
Radial Grid Type                 RadialGrid  ... Gauss-Chebyshev
Angular Grid (max. acc.)         AngularGrid ... Lebedev-50
Angular grid pruning method      GridPruning ... 3 (G Style)
Weight generation scheme         WeightScheme... Becke
Basis function cutoff            BFCut       ...    1.0000e-11
Integration weight cutoff        WCut        ...    1.0000e-14
Grids for H and He will be reduced by one unit

# of grid points (after initial pruning)     ...  66212 (   0.0 sec)
# of grid points (after weights+screening)   ...  59053 (   0.8 sec)
nearest neighbour list constructed           ...    0.0 sec
Grid point re-assignment to atoms done       ...    0.0 sec
Grid point division into batches done        ...    0.0 sec
Reduced shell lists constructed in    0.2 sec

Total number of grid points                  ...    59053
Total number of batches                      ...      979
Average number of points per batch           ...       60
Average number of grid points per atom       ...      557
Average number of shells per batch           ...   108.38 (20.07%)
Average number of basis functions per batch  ...   234.21 (19.58%)
Average number of large shells per batch     ...    69.42 (64.06%)
Average number of large basis fcns per batch ...   152.42 (65.08%)
Maximum spatial batch extension              ...  18.68, 18.26, 15.44 au
Average spatial batch extension              ...   0.77,  0.58,  0.63 au

Overlap Fitting                  UseSFitting ... on
Constructing numerical overlap ... done (      0.1 sec)
Inverting numerical overlap    ... done (      0.1 sec)
Obtaining analytic overlap     ... done (      0.0 sec)
Final contraction and storage  ... done (      0.1 sec)


General Integration Accuracy     IntAcc      ...  4.010
Radial Grid Type                 RadialGrid  ... Gauss-Chebyshev
Angular Grid (max. acc.)         AngularGrid ... Lebedev-110
Angular grid pruning method      GridPruning ... 3 (G Style)
Weight generation scheme         WeightScheme... Becke
Basis function cutoff            BFCut       ...    1.0000e-11
Integration weight cutoff        WCut        ...    1.0000e-14
Grids for H and He will be reduced by one unit

# of grid points (after initial pruning)     ... 129016 (   0.0 sec)
# of grid points (after weights+screening)   ... 113959 (   1.7 sec)
nearest neighbour list constructed           ...    0.0 sec
Grid point re-assignment to atoms done       ...    0.0 sec
Grid point division into batches done        ...    0.1 sec
Reduced shell lists constructed in    0.4 sec

Total number of grid points                  ...   113959
Total number of batches                      ...     1835
Average number of points per batch           ...       62
Average number of grid points per atom       ...     1075
Average number of shells per batch           ...   103.55 (19.18%)
Average number of basis functions per batch  ...   223.33 (18.67%)
Average number of large shells per batch     ...    66.68 (64.39%)
Average number of large basis fcns per batch ...   145.63 (65.21%)
Maximum spatial batch extension              ...  17.12, 17.07, 15.93 au
Average spatial batch extension              ...   0.61,  0.49,  0.54 au

Overlap Fitting                  UseSFitting ... on
Constructing numerical overlap ... done (      0.2 sec)
Inverting numerical overlap    ... done (      0.1 sec)
Obtaining analytic overlap     ... done (      0.0 sec)
Final contraction and storage  ... done (      0.1 sec)

Time for X-Grid setup             =    4.836 sec
--------------
SCF ITERATIONS
--------------
ITER       Energy         Delta-E        Max-DP      RMS-DP      [F,P]     Damp
               ***  Starting incremental Fock matrix formation  ***
  0  -7584.5825920985   0.000000000000 0.07882868  0.00099766  0.2289178 0.7000
  1  -7585.2234719560  -0.640879857528 0.04577510  0.00069784  0.1169348 0.7000
                               ***Turning on DIIS***
  2  -7585.4942748816  -0.270802925575 0.10084595  0.00127170  0.0452214 0.0000
  3  -7585.9455494667  -0.451274585135 0.08657338  0.00052655  0.0600705 0.0000
  4  -7586.0263209236  -0.080771456851 0.01775497  0.00016164  0.0276123 0.0000
  5  -7586.0335565874  -0.007235663868 0.00819492  0.00006258  0.0081432 0.0000
                      *** Initiating the SOSCF procedure ***
                           *** Shutting down DIIS ***
                      *** Re-Reading the Fockian *** 
                      *** Removing any level shift *** 
ITER      Energy       Delta-E        Grad      Rot      Max-DP    RMS-DP
  6  -7586.03466639  -0.0011098026  0.002218  0.002218  0.004137  0.000035
               *** Restarting incremental Fock matrix formation ***
  7  -7586.03507321  -0.0004068187  0.001469  0.007900  0.003794  0.000040
  8  -7586.03540256  -0.0003293466  0.000499  0.007750  0.005011  0.000049
  9  -7586.03542916  -0.0000266031  0.000777  0.002388  0.002154  0.000015
 10  -7586.03549897  -0.0000698160  0.000252  0.001166  0.001416  0.000010
 11  -7586.03550004  -0.0000010676  0.000178  0.000535  0.000587  0.000005
 12  -7586.03550586  -0.0000058206  0.000051  0.000265  0.000322  0.000003
 13  -7586.03550581   0.0000000561  0.000070  0.000098  0.000175  0.000001
 14  -7586.03550638  -0.0000005692  0.000008  0.000054  0.000071  0.000001
 15  -7586.03550642  -0.0000000484  0.000011  0.000026  0.000039  0.000000
                  ***Gradient check signals convergence***
              ***Rediagonalizing the Fockian in SOSCF/NRSCF***

               *****************************************************
               *                     SUCCESS                       *
               *           SCF CONVERGED AFTER  16 CYCLES          *
               *****************************************************

Setting up the final grid:

General Integration Accuracy     IntAcc      ...  5.010
Radial Grid Type                 RadialGrid  ... Gauss-Chebyshev
Angular Grid (max. acc.)         AngularGrid ... Lebedev-434
Angular grid pruning method      GridPruning ... 3 (G Style)
Weight generation scheme         WeightScheme... Becke
Basis function cutoff            BFCut       ...    1.0000e-11
Integration weight cutoff        WCut        ...    1.0000e-14
Grids for H and He will be reduced by one unit

# of grid points (after initial pruning)     ... 999724 (   0.1 sec)
# of grid points (after weights+screening)   ... 854366 (  12.1 sec)
nearest neighbour list constructed           ...    0.0 sec
Grid point re-assignment to atoms done       ...    0.1 sec
Grid point division into batches done        ...    5.6 sec
Reduced shell lists constructed in    7.4 sec

Total number of grid points                  ...   854366
Total number of batches                      ...    13405
Average number of points per batch           ...       63
Average number of grid points per atom       ...     8060
Average number of shells per batch           ...    89.50 (16.57%)
Average number of basis functions per batch  ...   190.93 (15.96%)
Average number of large shells per batch     ...    57.53 (64.28%)
Average number of large basis fcns per batch ...   124.35 (65.13%)
Maximum spatial batch extension              ...  24.67, 21.23, 20.18 au
Average spatial batch extension              ...   0.29,  0.27,  0.28 au

Final grid set up in   19.9 sec
Final integration                            ... done (   3.6 sec)
Change in XC energy                          ...     0.000096743
Integrated number of electrons               ...   521.999891430
Previous integrated no of electrons          ...   522.000228643
Old exchange energy                            =   -145.660269167 Eh
New exchange energy                            =   -145.659065664 Eh
Exchange energy change after final integration =      0.001203504 Eh
Total energy after final integration           =  -7586.034206146 Eh
Final COS-X integration done in                =    65.772 sec

----------------
TOTAL SCF ENERGY
----------------

Total Energy       :        -7586.03420615 Eh         -206426.48527 eV

Components:
Nuclear Repulsion  :        10157.21571561 Eh          276391.89111 eV
Electronic Energy  :       -17743.24992176 Eh         -482818.37638 eV
One Electron Energy:       -30694.18733577 Eh         -835231.29975 eV
Two Electron Energy:        12950.93741401 Eh          352412.92336 eV

Virial components:
Potential Energy   :       -15138.99487562 Eh         -411952.99385 eV
Kinetic Energy     :         7552.96066948 Eh          205526.50858 eV
Virial Ratio       :            2.00437888


DFT components:
N(Alpha)           :      260.999945714866 electrons
N(Beta)            :      260.999945714866 electrons
N(Total)           :      521.999891429731 electrons
E(XC)              :     -424.993664728992 Eh       
DFET-embed. en.    :        0.000000000000 Eh       

---------------
SCF CONVERGENCE
---------------

  Last Energy change         ...    3.1954e-08  Tolerance :   1.0000e-08
  Last MAX-Density change    ...    6.2172e-15  Tolerance :   1.0000e-07
  Last RMS-Density change    ...    3.5332e-17  Tolerance :   5.0000e-09
  Last Orbital Gradient      ...    1.5759e-06  Tolerance :   1.0000e-05
  Last Orbital Rotation      ...    1.3702e-05  Tolerance :   1.0000e-05

             **** THE GBW FILE WAS UPDATED (xtbopt.gbw) ****
             **** DENSITY FILE WAS UPDATED (xtbopt.scfp) ****
             **** ENERGY FILE WAS UPDATED (xtbopt.en.tmp) ****
             **** THE GBW FILE WAS UPDATED (xtbopt.gbw) ****
             **** DENSITY FILE WAS UPDATED (xtbopt.scfp) ****
----------------
ORBITAL ENERGIES
----------------

  NO   OCC          E(Eh)            E(eV) 
   0   2.0000    -453.932354    -12352.1273 
   1   2.0000    -453.923476    -12351.8857 
   2   2.0000     -58.147674     -1582.2786 
   3   2.0000     -58.138376     -1582.0256 
   4   2.0000     -52.217625     -1420.9138 
   5   2.0000     -52.216709     -1420.8889 
   6   2.0000     -52.215909     -1420.8671 
   7   2.0000     -52.208236     -1420.6583 
   8   2.0000     -52.207524     -1420.6389 
   9   2.0000     -52.206662     -1420.6155 
  10   2.0000     -19.216573      -522.9095 
  11   2.0000     -19.204126      -522.5708 
  12   2.0000     -14.414719      -392.2444 
  13   2.0000     -14.410782      -392.1373 
  14   2.0000     -14.404480      -391.9658 
  15   2.0000     -14.401058      -391.8727 
  16   2.0000     -14.400283      -391.8516 
  17   2.0000     -14.387112      -391.4932 
  18   2.0000     -10.367594      -282.1166 
  19   2.0000     -10.355825      -281.7963 
  20   2.0000     -10.342110      -281.4231 
  21   2.0000     -10.340480      -281.3788 
  22   2.0000     -10.331534      -281.1353 
  23   2.0000     -10.329160      -281.0707 
  24   2.0000     -10.318468      -280.7798 
  25   2.0000     -10.317602      -280.7562 
  26   2.0000     -10.313410      -280.6422 
  27   2.0000     -10.311719      -280.5961 
  28   2.0000     -10.308988      -280.5218 
  29   2.0000     -10.308210      -280.5007 
  30   2.0000     -10.307704      -280.4869 
  31   2.0000     -10.307481      -280.4808 
  32   2.0000     -10.306633      -280.4577 
  33   2.0000     -10.303663      -280.3769 
  34   2.0000     -10.302294      -280.3397 
  35   2.0000     -10.298391      -280.2335 
  36   2.0000     -10.297965      -280.2219 
  37   2.0000     -10.297537      -280.2102 
  38   2.0000     -10.296670      -280.1866 
  39   2.0000     -10.295789      -280.1627 
  40   2.0000     -10.295381      -280.1516 
  41   2.0000     -10.295360      -280.1510 
  42   2.0000     -10.295305      -280.1495 
  43   2.0000     -10.293776      -280.1079 
  44   2.0000     -10.291389      -280.0429 
  45   2.0000     -10.289694      -279.9968 
  46   2.0000     -10.288565      -279.9661 
  47   2.0000     -10.287040      -279.9246 
  48   2.0000     -10.286989      -279.9232 
  49   2.0000     -10.286029      -279.8971 
  50   2.0000     -10.285753      -279.8896 
  51   2.0000     -10.285713      -279.8885 
  52   2.0000     -10.284825      -279.8643 
  53   2.0000     -10.284091      -279.8444 
  54   2.0000     -10.283901      -279.8392 
  55   2.0000     -10.283397      -279.8255 
  56   2.0000     -10.281804      -279.7821 
  57   2.0000     -10.281468      -279.7730 
  58   2.0000     -10.279784      -279.7272 
  59   2.0000     -10.278764      -279.6994 
  60   2.0000     -10.278593      -279.6947 
  61   2.0000     -10.277513      -279.6653 
  62   2.0000     -10.275608      -279.6135 
  63   2.0000     -10.275082      -279.5992 
  64   2.0000     -10.273306      -279.5509 
  65   2.0000     -10.272887      -279.5395 
  66   2.0000     -10.271793      -279.5097 
  67   2.0000     -10.269863      -279.4572 
  68   2.0000     -10.269629      -279.4508 
  69   2.0000     -10.269114      -279.4368 
  70   2.0000     -10.268750      -279.4269 
  71   2.0000     -10.267502      -279.3929 
  72   2.0000     -10.266863      -279.3755 
  73   2.0000     -10.262104      -279.2460 
  74   2.0000     -10.261607      -279.2325 
  75   2.0000     -10.260641      -279.2062 
  76   2.0000     -10.260617      -279.2056 
  77   2.0000     -10.260173      -279.1935 
  78   2.0000      -7.921636      -215.5587 
  79   2.0000      -7.912281      -215.3041 
  80   2.0000      -5.870418      -159.7422 
  81   2.0000      -5.866478      -159.6350 
  82   2.0000      -5.861771      -159.5069 
  83   2.0000      -5.861143      -159.4898 
  84   2.0000      -5.857251      -159.3839 
  85   2.0000      -5.852193      -159.2463 
  86   2.0000      -2.225022       -60.5459 
  87   2.0000      -2.224565       -60.5335 
  88   2.0000      -2.220026       -60.4100 
  89   2.0000      -2.216806       -60.3224 
  90   2.0000      -2.216437       -60.3123 
  91   2.0000      -2.215861       -60.2967 
  92   2.0000      -2.215321       -60.2820 
  93   2.0000      -2.210604       -60.1536 
  94   2.0000      -2.207430       -60.0672 
  95   2.0000      -2.206942       -60.0539 
  96   2.0000      -1.130944       -30.7746 
  97   2.0000      -1.118407       -30.4334 
  98   2.0000      -1.018012       -27.7015 
  99   2.0000      -1.006786       -27.3960 
 100   2.0000      -0.997919       -27.1548 
 101   2.0000      -0.992650       -27.0114 
 102   2.0000      -0.988318       -26.8935 
 103   2.0000      -0.987394       -26.8683 
 104   2.0000      -0.980603       -26.6836 
 105   2.0000      -0.977111       -26.5885 
 106   2.0000      -0.971981       -26.4489 
 107   2.0000      -0.965793       -26.2806 
 108   2.0000      -0.964546       -26.2466 
 109   2.0000      -0.959038       -26.0967 
 110   2.0000      -0.956599       -26.0304 
 111   2.0000      -0.941423       -25.6174 
 112   2.0000      -0.923034       -25.1170 
 113   2.0000      -0.915722       -24.9181 
 114   2.0000      -0.910047       -24.7636 
 115   2.0000      -0.902875       -24.5685 
 116   2.0000      -0.893878       -24.3237 
 117   2.0000      -0.890983       -24.2449 
 118   2.0000      -0.878605       -23.9081 
 119   2.0000      -0.876980       -23.8638 
 120   2.0000      -0.865004       -23.5380 
 121   2.0000      -0.855665       -23.2838 
 122   2.0000      -0.848608       -23.0918 
 123   2.0000      -0.840460       -22.8701 
 124   2.0000      -0.838712       -22.8225 
 125   2.0000      -0.835350       -22.7310 
 126   2.0000      -0.829788       -22.5797 
 127   2.0000      -0.826622       -22.4935 
 128   2.0000      -0.819304       -22.2944 
 129   2.0000      -0.809092       -22.0165 
 130   2.0000      -0.799878       -21.7658 
 131   2.0000      -0.786178       -21.3930 
 132   2.0000      -0.772723       -21.0269 
 133   2.0000      -0.764782       -20.8108 
 134   2.0000      -0.757777       -20.6202 
 135   2.0000      -0.755083       -20.5468 
 136   2.0000      -0.747156       -20.3312 
 137   2.0000      -0.740390       -20.1470 
 138   2.0000      -0.730116       -19.8675 
 139   2.0000      -0.713529       -19.4161 
 140   2.0000      -0.708859       -19.2890 
 141   2.0000      -0.704260       -19.1639 
 142   2.0000      -0.700119       -19.0512 
 143   2.0000      -0.695283       -18.9196 
 144   2.0000      -0.691110       -18.8060 
 145   2.0000      -0.687861       -18.7176 
 146   2.0000      -0.674903       -18.3651 
 147   2.0000      -0.668271       -18.1846 
 148   2.0000      -0.666832       -18.1454 
 149   2.0000      -0.664641       -18.0858 
 150   2.0000      -0.658453       -17.9174 
 151   2.0000      -0.646732       -17.5985 
 152   2.0000      -0.643467       -17.5096 
 153   2.0000      -0.629945       -17.1417 
 154   2.0000      -0.626213       -17.0401 
 155   2.0000      -0.625764       -17.0279 
 156   2.0000      -0.617988       -16.8163 
 157   2.0000      -0.617407       -16.8005 
 158   2.0000      -0.608130       -16.5481 
 159   2.0000      -0.602730       -16.4011 
 160   2.0000      -0.598929       -16.2977 
 161   2.0000      -0.594494       -16.1770 
 162   2.0000      -0.590742       -16.0749 
 163   2.0000      -0.588152       -16.0044 
 164   2.0000      -0.587032       -15.9740 
 165   2.0000      -0.582340       -15.8463 
 166   2.0000      -0.578676       -15.7466 
 167   2.0000      -0.575441       -15.6586 
 168   2.0000      -0.572008       -15.5651 
 169   2.0000      -0.566136       -15.4053 
 170   2.0000      -0.561227       -15.2718 
 171   2.0000      -0.556464       -15.1422 
 172   2.0000      -0.554186       -15.0802 
 173   2.0000      -0.551071       -14.9954 
 174   2.0000      -0.540500       -14.7077 
 175   2.0000      -0.539988       -14.6938 
 176   2.0000      -0.534140       -14.5347 
 177   2.0000      -0.533076       -14.5057 
 178   2.0000      -0.525741       -14.3061 
 179   2.0000      -0.524837       -14.2815 
 180   2.0000      -0.524399       -14.2696 
 181   2.0000      -0.523507       -14.2453 
 182   2.0000      -0.521484       -14.1903 
 183   2.0000      -0.520568       -14.1654 
 184   2.0000      -0.516637       -14.0584 
 185   2.0000      -0.513042       -13.9606 
 186   2.0000      -0.512585       -13.9482 
 187   2.0000      -0.510891       -13.9021 
 188   2.0000      -0.509873       -13.8744 
 189   2.0000      -0.506099       -13.7717 
 190   2.0000      -0.503071       -13.6893 
 191   2.0000      -0.502786       -13.6815 
 192   2.0000      -0.497015       -13.5245 
 193   2.0000      -0.496358       -13.5066 
 194   2.0000      -0.495510       -13.4835 
 195   2.0000      -0.492979       -13.4146 
 196   2.0000      -0.490432       -13.3453 
 197   2.0000      -0.488902       -13.3037 
 198   2.0000      -0.482786       -13.1373 
 199   2.0000      -0.480358       -13.0712 
 200   2.0000      -0.478986       -13.0339 
 201   2.0000      -0.477578       -12.9955 
 202   2.0000      -0.476240       -12.9591 
 203   2.0000      -0.473065       -12.8727 
 204   2.0000      -0.470129       -12.7929 
 205   2.0000      -0.469269       -12.7694 
 206   2.0000      -0.467108       -12.7107 
 207   2.0000      -0.463207       -12.6045 
 208   2.0000      -0.461080       -12.5466 
 209   2.0000      -0.457121       -12.4389 
 210   2.0000      -0.450575       -12.2608 
 211   2.0000      -0.448892       -12.2150 
 212   2.0000      -0.445069       -12.1110 
 213   2.0000      -0.441316       -12.0088 
 214   2.0000      -0.438819       -11.9409 
 215   2.0000      -0.438191       -11.9238 
 216   2.0000      -0.437815       -11.9136 
 217   2.0000      -0.436228       -11.8704 
 218   2.0000      -0.432680       -11.7738 
 219   2.0000      -0.431874       -11.7519 
 220   2.0000      -0.430091       -11.7034 
 221   2.0000      -0.429912       -11.6985 
 222   2.0000      -0.426841       -11.6149 
 223   2.0000      -0.424059       -11.5392 
 224   2.0000      -0.423414       -11.5217 
 225   2.0000      -0.421675       -11.4744 
[...]
  16   3.720     333.3   0.011825   0.011242  -53.807750  -44.027444     0.19 (  84->  92)    0.17 (  87->  94)    0.10 (  78->  95)
  17   3.722     333.1   0.027736   0.023836  85.119414  79.250494     0.44 (  86->  93)    0.18 (  76->  91)    0.15 (  81->  91)
  18   3.747     330.9   0.054302   0.053851  -48.419464  -48.539890     0.26 (  78->  94)    0.11 (  78->  95)    0.08 (  77->  94)
  19   3.761     329.6   0.017107   0.016012   4.348417   4.165975     0.64 (  89->  91)    0.08 (  89->  95)    0.05 (  89->  92)
  20   3.864     320.8   0.050765   0.044317  21.778227  19.200556     0.69 (  90->  96)    0.09 (  89->  91)    0.08 (  90->  98)
  21   3.944     314.4   0.338781   0.318576  61.730171  61.822560     0.33 (  86->  93)    0.17 (  81->  91)    0.12 (  75->  91)
  22   3.983     311.3   0.105874   0.099474  108.922545  106.766756     0.26 (  83->  92)    0.14 (  87->  94)    0.09 (  87->  95)
  23   4.005     309.6   0.100219   0.091730  -55.614666  -55.054813     0.25 (  83->  92)    0.13 (  87->  94)    0.09 (  87->  95)
  24   4.038     307.0   0.307435   0.272762  -65.972069  -62.349064     0.21 (  78->  92)    0.12 (  80->  92)    0.11 (  84->  92)
  25   4.050     306.2   0.780646   0.731725  66.231984  65.109915     0.31 (  90->  97)    0.09 (  76->  91)    0.08 (  90-> 100)
  26   4.067     304.8   0.116198   0.105373  -240.661167  -253.265923     0.27 (  81->  91)    0.21 (  76->  91)    0.10 (  90->  97)
  27   4.218     293.9   0.021935   0.021344  26.434434  24.881278     0.31 (  79->  92)    0.11 (  80->  92)    0.09 (  79->  94)
  28   4.299     288.4   0.141533   0.129357  174.600778  167.658331     0.14 (  78->  92)    0.12 (  79->  92)    0.11 (  90->  97)
  29   4.320     287.0   0.115986   0.096295  -17.581660  -16.564388     0.32 (  84->  94)    0.24 (  85->  94)    0.09 (  84->  92)
  30   4.340     285.7   0.088383   0.079283   8.178762  -0.567909     0.32 (  81->  93)    0.20 (  82->  93)    0.16 (  89->  93)
  31   4.342     285.6   0.015278   0.013618  16.488503  14.130126     0.68 (  89->  93)    0.07 (  81->  93)    0.07 (  82->  93)
  32   4.369     283.8   0.004717   0.004623  20.918349  21.072852     0.32 (  88->  92)    0.31 (  88->  94)    0.15 (  88->  95)
  33   4.377     283.3   0.053698   0.047952  -47.324400  -44.730479     0.26 (  80->  92)    0.11 (  85->  94)    0.11 (  85->  95)
  34   4.439     279.3   0.042381   0.036873  -85.594497  -53.510287     0.64 (  82->  93)    0.18 (  81->  93)    0.04 (  76->  93)
  35   4.484     276.5   0.011803   0.011511  -10.764501  -11.254606     0.25 (  77->  92)    0.09 (  90-> 105)    0.07 (  90-> 107)
  36   4.552     272.4   0.053575   0.048438   9.908086   8.939260     0.46 (  85->  95)    0.15 (  84->  95)    0.08 (  80->  92)
  37   4.598     269.6   0.140938   0.120325  -63.441861  -55.175613     0.44 (  75->  91)    0.17 (  88->  96)    0.08 (  76->  91)
  38   4.688     264.5   0.180393   0.159719  -129.281793  -121.329820     0.27 (  87->  95)    0.16 (  87->  91)    0.16 (  87->  94)
  39   4.726     262.4   0.110059   0.095054  87.671823  82.238254     0.17 (  90-> 100)    0.17 (  87->  91)    0.10 (  80->  94)
  40   4.760     260.5   0.018806   0.016232  45.093656  42.196940     0.49 (  87->  91)    0.13 (  87->  92)    0.10 (  87->  95)
  41   4.788     258.9   0.119160   0.099793  140.486301  130.940555     0.25 (  82->  92)    0.14 (  86->  92)    0.09 (  82->  94)
  42   4.804     258.1   0.022035   0.018576  -14.809706  -14.513349     0.45 (  85->  91)    0.07 (  87->  91)    0.07 (  88->  96)
  43   4.811     257.7   0.089709   0.074003  37.810803  36.162285     0.18 (  90-> 103)    0.09 (  82->  92)    0.08 (  86->  92)
  44   4.850     255.6   0.101721   0.088191  -24.416226  -18.604441     0.30 (  90-> 105)    0.10 (  90-> 103)    0.08 (  90-> 101)
  45   4.871     254.5   0.153251   0.130564  -192.872715  -171.006760     0.33 (  88->  96)    0.07 (  85->  91)    0.07 (  75->  93)
  46   4.916     252.2   0.009689   0.008414  14.264377  13.326983     0.52 (  83->  91)    0.20 (  83->  92)    0.05 (  83->  93)
  47   4.931     251.4   0.008400   0.007152  -19.667758  -17.452464     0.47 (  86->  92)    0.13 (  82->  92)    0.05 (  82->  94)
  48   4.941     250.9   0.003454   0.002964   1.213590   0.893094     0.54 (  88->  95)    0.30 (  88->  94)    0.04 (  86->  92)
  49   4.953     250.3   0.004059   0.003359  -8.098497  -7.054062     0.26 (  83->  94)    0.21 (  83->  95)    0.20 (  83->  91)
  50   4.997     248.1   0.096464   0.085766  48.321706  41.608748     0.12 (  90-> 100)    0.11 (  80->  94)    0.09 (  90-> 103)

-----------------------------------------------------------------------------
         ABSORPTION SPECTRUM VIA TRANSITION ELECTRIC DIPOLE MOMENTS
-----------------------------------------------------------------------------
State   Energy  Wavelength   fosc         T2         TX        TY        TZ  
        (cm-1)    (nm)                  (au**2)     (au)      (au)      (au) 
-----------------------------------------------------------------------------
   0   13875.6    720.7   0.185269764   4.39570   1.64888   0.95868   0.87052
   1   17708.3    564.7   0.464164179   8.62919  -2.74296   0.24144  -1.02326
   2   18767.6    532.8   0.158215259   2.77534  -1.33305   0.61541  -0.78713
   3   20954.8    477.2   0.260958759   4.09982   1.66993  -0.79582   0.82331
   4   21628.4    462.4   0.041218994   0.62740   0.39975   0.68363  -0.01603
   5   22544.2    443.6   0.730152465  10.66241  -2.88773  -0.21877  -1.50849
   6   23904.4    418.3   0.067075294   0.92376  -0.59296   0.48792  -0.57800
   7   25939.2    385.5   0.253092802   3.21217   1.36043  -0.76518   0.88086
   8   26287.5    380.4   0.030310567   0.37960  -0.58491  -0.16211  -0.10579
   9   27666.8    361.4   0.453517881   5.39648   1.19665  -0.31909   1.96537
  10   27844.8    359.1   0.223270876   2.63976   0.92947  -0.35670   1.28398
  11   28368.8    352.5   0.003734541   0.04334  -0.11092   0.15993  -0.07388
  12   28595.3    349.7   0.013284919   0.15295  -0.28800  -0.15983   0.21085
  13   29671.1    337.0   0.098952623   1.09792   0.70689   0.61370   0.47074
  14   29689.9    336.8   0.045354373   0.50290   0.56842  -0.25481   0.33893
  15   29752.1    336.1   0.097995376   1.08433  -0.28374  -0.04461  -1.00092
  16   30004.2    333.3   0.011824757   0.12974  -0.04927  -0.34840   0.07703
  17   30023.6    333.1   0.027735663   0.30412  -0.49544  -0.22362   0.09301
  18   30223.0    330.9   0.054301538   0.59149   0.18538  -0.11551   0.73742
  19   30336.5    329.6   0.017107111   0.18565  -0.10156   0.36255  -0.20951
  20   31169.3    320.8   0.050765490   0.53619  -0.39526   0.50979  -0.34651
  21   31806.9    314.4   0.338781465   3.50651  -0.00967   0.23234  -1.85807
  22   32125.1    311.3   0.105874229   1.08498  -0.34979   0.24746  -0.94941
  23   32304.6    309.6   0.100219132   1.02132   0.08634  -0.50603   0.87051
  24   32568.2    307.0   0.307434570   3.10767  -0.91012  -0.15708  -1.50156
  25   32663.3    306.2   0.780646055   7.86810   1.85738  -0.95375   1.87312
  26   32806.6    304.8   0.116197553   1.16604   0.47802   0.32451   0.91226
  27   34020.5    293.9   0.021935125   0.21226  -0.29692   0.30966   0.16796
  28   34676.5    288.4   0.141533398   1.34369   0.63373  -0.71487  -0.65653
  29   34841.8    287.0   0.115985578   1.09592   0.65351   0.49702   0.64948
  30   35000.6    285.7   0.088382928   0.83132   0.42428  -0.15204   0.79259
  31   35017.6    285.6   0.015278154   0.14363   0.17940  -0.09135   0.32110
  32   35241.5    283.8   0.004717381   0.04407   0.08850   0.10269  -0.16028
  33   35299.9    283.3   0.053698401   0.50080   0.15552  -0.59347   0.35272
  34   35801.1    279.3   0.042381486   0.38972   0.34247   0.20978   0.47794
  35   36167.0    276.5   0.011803244   0.10744   0.02856   0.31269   0.09408
  36   36714.8    272.4   0.053574749   0.48039   0.51997   0.39025   0.24025
  37   37087.1    269.6   0.140937501   1.25106  -1.03231   0.42097   0.09046
  38   37809.0    264.5   0.180392955   1.57072  -0.57021   0.33708  -1.06394
  39   38116.6    262.4   0.110059200   0.95058  -0.45087   0.85716  -0.11210
  40   38391.3    260.5   0.018805706   0.16126  -0.07688   0.30846   0.24536
  41   38617.9    258.9   0.119159862   1.01582  -0.64005   0.67051  -0.39570
  42   38750.0    258.1   0.022034975   0.18720  -0.21522   0.10305  -0.36092
  43   38802.2    257.7   0.089709239   0.76113   0.44726  -0.71899  -0.21009
  44   39118.4    255.6   0.101720585   0.85606  -0.68027   0.27968  -0.56131
  45   39290.0    254.5   0.153250528   1.28409   0.09249   0.07590   1.12684
  46   39653.3    252.2   0.009688716   0.08044   0.15947  -0.13571   0.19128
  47   39770.2    251.4   0.008399737   0.06953   0.11408   0.02234  -0.23668
  48   39850.3    250.9   0.003453967   0.02853  -0.09451   0.00127  -0.14000
  49   39946.7    250.3   0.004058952   0.03345  -0.09224   0.15395   0.03521
  50   40304.5    248.1   0.096464127   0.78793  -0.46311   0.46208   0.59995

-----------------------------------------------------------------------------
         ABSORPTION SPECTRUM VIA TRANSITION VELOCITY DIPOLE MOMENTS
-----------------------------------------------------------------------------
State   Energy  Wavelength   fosc         P2         PX        PY        PZ  
        (cm-1)    (nm)                  (au**2)     (au)      (au)      (au) 
-----------------------------------------------------------------------------
   0   13875.6    720.7   0.239875669   0.02275   0.12273   0.06114   0.06284
   1   17708.3    564.7   0.556244901   0.06732  -0.24321   0.00969  -0.08987
   2   18767.6    532.8   0.169911723   0.02179  -0.11943   0.05235  -0.06921
   3   20954.8    477.2   0.285948348   0.04095   0.16874  -0.07746   0.08051
   4   21628.4    462.4   0.045562555   0.00674   0.04141   0.07084  -0.00149
   5   22544.2    443.6   0.773740561   0.11922  -0.30516  -0.02513  -0.15958
   6   23904.4    418.3   0.066415733   0.01085  -0.06382   0.05247  -0.06344
   7   25939.2    385.5   0.244228529   0.04330   0.15540  -0.09103   0.10422
   8   26287.5    380.4   0.029242483   0.00525  -0.06935  -0.01860  -0.00994
   9   27666.8    361.4   0.431321545   0.08156   0.14539  -0.04395   0.24185
  10   27844.8    359.1   0.215177125   0.04095   0.11316  -0.04438   0.16178
  11   28368.8    352.5   0.004318542   0.00084  -0.01354   0.02180  -0.01336
  12   28595.3    349.7   0.013882053   0.00271  -0.03915  -0.01751   0.02955
  13   29671.1    337.0   0.091650484   0.01859   0.09604   0.07351   0.06290
  14   29689.9    336.8   0.043332867   0.00879   0.07102  -0.03915   0.04707
  15   29752.1    336.1   0.101180309   0.02057  -0.03953  -0.00747  -0.13768
  16   30004.2    333.3   0.011242326   0.00231  -0.00829  -0.04500   0.01456
  17   30023.6    333.1   0.023836465   0.00489  -0.06182  -0.02956   0.01398
  18   30223.0    330.9   0.053851365   0.01112   0.02535  -0.01856   0.10068
  19   30336.5    329.6   0.016011990   0.00332  -0.01365   0.04816  -0.02853
  20   31169.3    320.8   0.044317323   0.00944  -0.05338   0.06673  -0.04624
  21   31806.9    314.4   0.318576248   0.06925  -0.00326   0.03313  -0.26105
  22   32125.1    311.3   0.099473873   0.02184  -0.04877   0.03460  -0.13515
  23   32304.6    309.6   0.091730372   0.02025   0.01394  -0.06957   0.12337
  24   32568.2    307.0   0.272761885   0.06071  -0.12726  -0.02220  -0.20982
  25   32663.3    306.2   0.731724994   0.16335   0.26842  -0.13789   0.26886
  26   32806.6    304.8   0.105373024   0.02363   0.06612   0.04992   0.12947
  27   34020.5    293.9   0.021343968   0.00496  -0.04668   0.04763   0.02270
  28   34676.5    288.4   0.129357242   0.03066   0.09670  -0.10728  -0.09898
  29   34841.8    287.0   0.096294869   0.02293   0.09575   0.07110   0.09331
  30   35000.6    285.7   0.079283204   0.01897   0.06221  -0.02121   0.12102
  31   35017.6    285.6   0.013618229   0.00326   0.02602  -0.01301   0.04912
  32   35241.5    283.8   0.004623111   0.00111   0.01499   0.01597  -0.02517
  33   35299.9    283.3   0.047952058   0.01157   0.02360  -0.08998   0.05399
  34   35801.1    279.3   0.036873155   0.00902   0.04979   0.02680   0.07632
  35   36167.0    276.5   0.011511124   0.00285   0.00479   0.05110   0.01454
  36   36714.8    272.4   0.048438120   0.01215   0.08151   0.06329   0.03879
  37   37087.1    269.6   0.120325237   0.03050  -0.16129   0.06527   0.01500
  38   37809.0    264.5   0.159719436   0.04127  -0.09202   0.05512  -0.17253
  39   38116.6    262.4   0.095054019   0.02476  -0.07288   0.13835  -0.01764
  40   38391.3    260.5   0.016231970   0.00426  -0.01180   0.04977   0.04053
  41   38617.9    258.9   0.099793251   0.02634  -0.10226   0.10888  -0.06345
  42   38750.0    258.1   0.018575690   0.00492  -0.03394   0.01632  -0.05917
  43   38802.2    257.7   0.074002755   0.01963   0.07241  -0.11483  -0.03459
  44   39118.4    255.6   0.088190764   0.02358  -0.11003   0.04889  -0.09530
  45   39290.0    254.5   0.130563701   0.03506   0.01518   0.01161   0.18627
  46   39653.3    252.2   0.008414221   0.00228   0.02696  -0.02288   0.03209
  47   39770.2    251.4   0.007152462   0.00194   0.01958   0.00404  -0.03930
  48   39850.3    250.9   0.002963834   0.00081  -0.01632  -0.00003  -0.02326
  49   39946.7    250.3   0.003358992   0.00092  -0.01536   0.02519   0.00684
  50   40304.5    248.1   0.085766159   0.02363  -0.07906   0.08160   0.10351

-------------------------------------------------------------------
                             CD SPECTRUM
-------------------------------------------------------------------
State   Energy Wavelength       R         MX        MY        MZ   
        (cm-1)   (nm)       (1e40*cgs)   (au)      (au)      (au)  
-------------------------------------------------------------------
   0   13875.6    720.7    -38.02334  -0.25271   0.49399   0.11994
   1   17708.3    564.7     -3.07455   0.34355  -0.59549  -1.07417
   2   18767.6    532.8     41.78324   0.52342  -0.39118  -0.96708
   3   20954.8    477.2    110.72390  -1.25440  -0.66558   1.33043
   4   21628.4    462.4    -33.19713   0.14472   0.11583  -0.23654
   5   22544.2    443.6    -87.07209   0.58594  -1.28914  -1.17960
   6   23904.4    418.3     22.83678   0.28154  -0.75058  -0.75482
   7   25939.2    385.5     36.67128  -0.98263   0.16202   1.48174
   8   26287.5    380.4    -40.34761  -0.14833  -0.68232   0.24776
   9   27666.8    361.4     59.68317   0.60070   2.15275  -0.14506
  10   27844.8    359.1     30.23784   0.68750   4.52979   0.66081
  11   28368.8    352.5      8.35490  -0.06892  -0.25178   0.03820
  12   28595.3    349.7    -45.81968  -0.26157   0.14740   0.67634
  13   29671.1    337.0    202.16050  -0.63806  -0.65446  -0.01050
  14   29689.9    336.8     -3.14712   0.93809   0.95735  -0.81415
  15   29752.1    336.1    -112.66530  -0.74474  -3.81102  -0.09655
  16   30004.2    333.3    -53.80775   0.83385  -0.88534  -0.50760
  17   30023.6    333.1     85.11941  -0.04434   2.18137   1.12609
  18   30223.0    330.9    -48.41946   0.03112  -0.11133   0.25329
  19   30336.5    329.6      4.34842  -0.31769  -0.10548   0.05952
  20   31169.3    320.8     21.77823   0.07514  -0.62294  -0.73558
  21   31806.9    314.4     61.73017  -1.72349  -9.22068  -1.00308
  22   32125.1    311.3    108.92254  -0.61602  -0.17795   0.66728
  23   32304.6    309.6    -55.61467   0.30151   0.19917   0.35690
  24   32568.2    307.0    -65.97207   0.05281  -0.57785  -0.15795
  25   32663.3    306.2     66.23198   1.19927   2.98152   0.17893
  26   32806.6    304.8    -240.66117   1.54825   4.74823  -1.38117
  27   34020.5    293.9     26.43443   0.25409   0.07926  -0.36463
  28   34676.5    288.4    174.60078  -0.41414  -0.46984   1.24003
  29   34841.8    287.0    -17.58166   0.27892   0.26033  -0.36502
  30   35000.6    285.7      8.17876   0.56522   3.55966   0.33648
  31   35017.6    285.6     16.48850   0.25620   1.56208   0.08341
  32   35241.5    283.8     20.91835  -0.39966  -0.12118   0.25535
  33   35299.9    283.3    -47.32440   0.61245  -0.09623   0.13723
  34   35801.1    279.3    -85.59450   1.09259   2.32796  -1.04495
  35   36167.0    276.5    -10.76450   0.05486   0.28394  -0.47496
  36   36714.8    272.4      9.90809  -0.14926   0.26889  -0.28869
  37   37087.1    269.6    -63.44186   1.29142   3.93413  -0.59554
  38   37809.0    264.5    -129.28179   0.02792  -0.60652  -0.72262
  39   38116.6    262.4     87.67182  -0.05793  -0.62806  -1.25153
  40   38391.3    260.5     45.09366  -0.00349  -0.24489  -0.47289
  41   38617.9    258.9    140.48630   0.06866  -1.60978  -1.33268
  42   38750.0    258.1    -14.80971   0.03319  -0.92085  -0.45678
  43   38802.2    257.7     37.81080  -0.34911  -0.32230   1.12330
  44   39118.4    255.6    -24.41623  -0.18187  -1.78934  -0.85569
  45   39290.0    254.5    -192.87272   0.96393   5.65273   0.26626
  46   39653.3    252.2     14.26438   0.20710   0.94935   0.18453
  47   39770.2    251.4    -19.66776   0.01282  -1.35726  -0.47449
  48   39850.3    250.9      1.21359  -0.14379  -0.31890   0.13094
  49   39946.7    250.3     -8.09850   0.07679   0.30168  -0.14215
  50   40304.5    248.1     48.32171   0.41746   1.38544  -1.08649

sTD-DFT done

Total run time:        3.653 sec

           *** ORCA-CIS/TD-DFT FINISHED WITHOUT ERROR ***

-------------------------   --------------------
FINAL SINGLE POINT ENERGY     -7586.034206145917
-------------------------   --------------------


                            ***************************************
                            *     ORCA property calculations      *
                            ***************************************

                                    ---------------------
                                    Active property flags
                                    ---------------------
   (+) Dipole Moment


------------------------------------------------------------------------------
                       ORCA ELECTRIC PROPERTIES CALCULATION
------------------------------------------------------------------------------

Dipole Moment Calculation                       ... on
Quadrupole Moment Calculation                   ... off
Polarizability Calculation                      ... off
GBWName                                         ... xtbopt.gbw
Electron density file                           ... xtbopt.scfp
The origin for moment calculation is the CENTER OF MASS  = (18.383737, -3.072297  7.125300)

-------------
DIPOLE MOMENT
-------------
                                X             Y             Z
Electronic contribution:    -30.97161     -40.71709      17.69142
Nuclear contribution   :     33.99191      42.69606     -17.47893
                        -----------------------------------------
Total Dipole Moment    :      3.02031       1.97897       0.21249
                        -----------------------------------------
Magnitude (a.u.)       :      3.61714
Magnitude (Debye)      :      9.19404



--------------------
Rotational spectrum 
--------------------
 
Rotational constants in cm-1:     0.002714     0.000185     0.000181 
Rotational constants in MHz :    81.358554     5.545838     5.426271 

 Dipole components along the rotational axes: 
x,y,z [a.u.] :     2.144901     2.806738    -0.778034 
x,y,z [Debye]:     5.451906     7.134161    -1.977605 

 

Timings for individual modules:

Sum of individual times         ...      663.520 sec (=  11.059 min)
GTO integral calculation        ...        3.166 sec (=   0.053 min)   0.5 %
SCF iterations                  ...      655.612 sec (=  10.927 min)  98.8 %
CIS module                      ...        4.742 sec (=   0.079 min)   0.7 %
                             ****ORCA TERMINATED NORMALLY****
TOTAL RUN TIME: 0 days 0 hours 11 minutes 4 seconds 590 msec
