
                                 *****************
                                 * O   R   C   A *
                                 *****************

           --- An Ab Initio, DFT and Semiempirical electronic structure package ---

                  #######################################################
                  #                        -***-                        #
                  #          Department of theory and spectroscopy      #
                  #               Directorship: Frank Neese             #
                  #        Max Planck Institute fuer Kohlenforschung    #
                  #                Kaiser Wilhelm Platz 1               #
                  #                 D-45470 Muelheim/Ruhr               #
                  #                      Germany                        #
                  #                                                     #
                  #                  All rights reserved                #
                  #                        -***-                        #
                  #######################################################


                         Program Version 4.2.0 -  RELEASE  -


 With contributions from (in alphabetic order):
   Daniel Aravena         : Magnetic Suceptibility
   Michael Atanasov       : Ab Initio Ligand Field Theory (pilot matlab implementation)
   Alexander A. Auer      : GIAO ZORA, VPT2
   Ute Becker             : Parallelization
   Giovanni Bistoni       : ED, misc. LED, open-shell LED, HFLED
   Martin Brehm           : Molecular dynamics
   Dmytro Bykov           : SCF Hessian
   Vijay G. Chilkuri      : MRCI spin determinant printing, contributions to CSF-ICE
   Dipayan Datta          : RHF DLPNO-CCSD density
   Achintya Kumar Dutta   : EOM-CC, STEOM-CC
   Dmitry Ganyushin       : Spin-Orbit,Spin-Spin,Magnetic field MRCI
   Miquel Garcia          : C-PCM Hessian, Gaussian charge scheme
   Yang Guo               : DLPNO-NEVPT2, CIM, IAO-localization
   Andreas Hansen         : Spin unrestricted coupled pair/coupled cluster methods
   Benjamin Helmich-Paris : CASSCF linear response (MC-RPA)
   Lee Huntington         : MR-EOM, pCC
   Robert Izsak           : Overlap fitted RIJCOSX, COSX-SCS-MP3, EOM
   Christian Kollmar      : KDIIS, OOCD, Brueckner-CCSD(T), CCSD density
   Simone Kossmann        : Meta GGA functionals, TD-DFT gradient, OOMP2, MP2 Hessian
   Martin Krupicka        : AUTO-CI
   Lucas Lang             : DCDCAS
   Dagmar Lenk            : GEPOL surface, SMD
   Dimitrios Liakos       : Extrapolation schemes; Compound Job, initial MDCI parallelization
   Dimitrios Manganas     : Further ROCIS development; embedding schemes
   Dimitrios Pantazis     : SARC Basis sets
   Taras Petrenko         : DFT Hessian,TD-DFT gradient, ASA, ECA, R-Raman, ABS, FL, XAS/XES, NRVS
   Peter Pinski           : DLPNO-MP2, DLPNO-MP2 Gradient
   Christoph Reimann      : Effective Core Potentials
   Marius Retegan         : Local ZFS, SOC
   Christoph Riplinger    : Optimizer, TS searches, QM/MM, DLPNO-CCSD(T), (RO)-DLPNO pert. Triples
   Tobias Risthaus        : Range-separated hybrids, TD-DFT gradient, RPA, STAB
   Michael Roemelt        : Original ROCIS implementation
   Masaaki Saitow         : Open-shell DLPNO-CCSD energy and density
   Barbara Sandhoefer     : DKH picture change effects
   Avijit Sen             : IP-ROCIS
   Kantharuban Sivalingam : CASSCF convergence, NEVPT2, FIC-MRCI
   Bernardo de Souza      : ESD, SOC TD-DFT
   Georgi Stoychev        : AutoAux, RI-MP2 NMR
   Willem Van den Heuvel  : Paramagnetic NMR
   Boris Wezisla          : Elementary symmetry handling
   Frank Wennmohs         : Technical directorship


 We gratefully acknowledge several colleagues who have allowed us to
 interface, adapt or use parts of their codes:
   Stefan Grimme, W. Hujo, H. Kruse,             : VdW corrections, initial TS optimization,
                  C. Bannwarth                     DFT functionals, gCP, sTDA/sTD-DF
   Ed Valeev, F. Pavosevic, A. Kumar             : LibInt (2-el integral package), F12 methods
   Garnet Chan, S. Sharma, J. Yang, R. Olivares  : DMRG
   Ulf Ekstrom                                   : XCFun DFT Library
   Mihaly Kallay                                 : mrcc  (arbitrary order and MRCC methods)
   Andreas Klamt, Michael Diedenhofen            : otool_cosmo (COSMO solvation model)
   Jiri Pittner, Ondrej Demel                    : Mk-CCSD
   Frank Weinhold                                : gennbo (NPA and NBO analysis)
   Christopher J. Cramer and Donald G. Truhlar   : smd solvation model
   Lars Goerigk                                  : TD-DFT with DH, B97 family of functionals
   V. Asgeirsson, H. Jonsson                     : NEB implementation
   FAccTs GmbH                                   : IRC, NEB, NEB-TS, Multilevel, MM, QM/MM, CI optimization
   S Lehtola, MJT Oliveira, MAL Marques          : LibXC Library


 Your calculation uses the libint2 library for the computation of 2-el integrals
 For citations please refer to: http://libint.valeyev.net

 Your ORCA version has been built with support for libXC version: 4.2.3
 For citations please refer to: https://tddft.org/programs/libxc/

 This ORCA versions uses:
   CBLAS   interface :  Fast vector & matrix operations
   LAPACKE interface :  Fast linear algebra routines
   SCALAPACK package :  Parallel linear algebra routines


XCFun DFT library Copyright 2009-2010 Ulf Ekstrom and contributors.
See http://admol.org/xcfun for more information. This is free soft-
ware; see the source code for copying conditions. There is ABSOLUTELY
NO WARRANTY; not even for MERCHANTABILITY or FITNESS FOR A PARTICULAR
PURPOSE. For details see the documentation. Scientific users of this 
library should cite U. Ekstrom, L. Visscher, R. Bast, A. J. Thorvald-
sen and K. Ruud; J.Chem.Theor.Comp. 2010, DOI: 10.1021/ct100117s
XCFun Version 0.99 
----- Orbital basis set information -----
Your calculation utilizes the basis: def2-SVP
   F. Weigend and R. Ahlrichs, Phys. Chem. Chem. Phys. 7, 3297 (2005).

----- AuxJ basis set information -----
Your calculation utilizes the auxiliary basis: def2/J
   F. Weigend, Phys. Chem. Chem. Phys. 8, 1057 (2006).

================================================================================
                                        WARNINGS
                       Please study these warnings very carefully!
================================================================================

INFO   : Checking CIS options ...

WARNING: CIS/ROCIS methods need fully converged wavefunctions
  ===> : Setting SCFConvForced true
         You can overwrite this default with %scf ConvForced false 


INFO   : the flag for use of LIBINT has been found!

================================================================================
                                       INPUT FILE
================================================================================
NAME = xtbopt.inp
|  1> # ORCA input file
|  2> # SCF done       -225.647799020697          0.000628029254
|  3> ! CAM-B3LYP def2-SVP def2/J RIJCOSX Grid4 TightSCF
|  4> %maxcore 5000
|  5> %tddft
|  6>     Mode sTDDFT
|  7>     Ethresh 5.0
|  8>     maxcore 5000
|  9> end
| 10> 
| 11> %pal
| 12>   nprocs 6
| 13>   end
| 14> * xyz 0 1
| 15>    C       12.60522         0.71375         5.77594
| 16>    C       14.02170         0.97150         6.15586
| 17>    O       14.99775         0.68095         5.49795
| 18>    C       13.95615         1.59459         7.48943
| 19>    C       12.62155         1.80911         7.83854
| 20>    C       11.76176         1.41189         6.72921
| 21>    C       10.47202         1.82057         6.52729
| 22>    C        9.77229         1.64408         5.31397
| 23>    N        9.17491         1.59663         4.33509
| 24>    C        9.71703         2.55645         7.46388
| 25>    N        9.05091         3.14068         8.19375
| 26>    C       12.29011         2.35856         9.08463
| 27>    C       13.30072         2.69225         9.94731
| 28>    C       14.66155         2.50909         9.61601
| 29>    C       15.01097         1.94264         8.35586
| 30>    C       16.37028         1.76052         8.02969
| 31>    C       17.34476         2.12900         8.91565
| 32>    C       17.00621         2.68817        10.15829
| 33>    C       15.69526         2.87316        10.50239
| 34>    C       12.30867        -0.12716         4.75989
| 35>    C       11.03782        -0.75299         4.50106
| 36>    C       10.29486        -1.28595         5.51778
| 37>    S        8.90877        -2.15068         5.00224
| 38>    C        9.27042        -1.76015         3.34702
| 39>    C       10.44544        -1.00726         3.21237
| 40>    C       10.86078        -0.58330         1.93291
| 41>    C       12.05920         0.30742         1.79424
| 42>    C       10.14734        -0.97350         0.80852
| 43>    C       10.70283        -0.68470        -0.55505
| 44>    C        8.93240        -1.68070         0.95159
| 45>    C        8.52136        -2.09409         2.23163
| 46>    S        7.05816        -3.02562         2.20428
| 47>    C        6.97154        -2.83396         0.49181
| 48>    C        7.98147        -2.10294        -0.04382
| 49>    C        7.95617        -1.74509        -1.46867
| 50>    C        7.88659        -2.71385        -2.42794
| 51>    C        7.82116        -2.34481        -3.79327
| 52>    C        7.76733        -3.10465        -4.94704
| 53>    C        7.78740        -4.59080        -5.11589
| 54>    C        9.18155        -5.15135        -4.78583
| 55>    N       10.16084        -4.59033        -5.70048
| 56>    C        6.67044        -5.32320        -4.33717
| 57>    N        7.00976        -5.59428        -2.94967
| 58>    C        7.74072        -2.17657        -6.05500
| 59>    C        7.72180        -2.37440        -7.38421
| 60>    C        7.70755        -1.23883        -8.35184
| 61>    C        7.74400         0.11490        -7.72141
| 62>    C        7.76227         0.29855        -6.38791
| 63>    C        7.76679        -0.81149        -5.51148
| 64>    C        7.81125        -0.92710        -4.13661
| 65>    C        7.83909         0.04454        -3.10929
| 66>    C        7.91074        -0.35645        -1.81491
| 67>    C        6.47179        -1.39915        -9.20887
| 68>    C        6.47408        -1.99753       -10.39599
| 69>    C        5.28558        -2.26283       -11.19298
| 70>    C        4.09668        -2.59605       -10.61943
| 71>    S        2.87993        -3.08857       -11.73317
| 72>    C        3.99234        -2.87073       -13.04745
| 73>    C        5.23499        -2.36518       -12.63055
| 74>    C        6.18236        -1.97551       -13.60579
| 75>    C        7.38770        -1.18074       -13.19757
| 76>    C        5.97363        -2.29567       -14.93929
| 77>    C        6.93527        -1.83944       -15.99548
| 78>    C        4.81558        -3.01485       -15.31127
| 79>    C        3.78252        -3.18319       -14.37996
| 80>    S        2.34089        -3.84900       -15.09274
| 81>    C        3.12720        -3.95475       -16.60984
| 82>    C        4.43743        -3.55764       -16.59176
| 83>    C        5.28296        -3.83317       -17.72501
| 84>    C        6.49945        -4.42965       -17.65635
| 85>    C        7.06509        -5.06252       -16.43243
| 86>    O        6.57081        -5.08645       -15.32365
| 87>    C        8.29709        -5.73908       -16.87455
| 88>    C        8.47874        -5.54035       -18.24349
| 89>    C        7.40669        -4.69968       -18.75823
| 90>    C        7.31908        -4.18974       -20.02743
| 91>    C        6.31762        -3.30015       -20.46960
| 92>    N        5.54974        -2.55889       -20.89456
| 93>    C        8.23778        -4.45586       -21.06390
| 94>    N        8.94210        -4.63077       -21.95382
| 95>    C        9.57356        -6.11712       -18.90443
| 96>    C       10.45891        -6.87221       -18.18217
| 97>    C       10.30606        -7.08646       -16.79418
| 98>    C        9.19615        -6.51033       -16.11132
| 99>    C        9.04677        -6.72800       -14.72633
|100>    C        9.95896        -7.48773       -14.04702
|101>    C       11.05298        -8.05905       -14.71576
|102>    C       11.22395        -7.86285       -16.05884
|103>    H       11.26005         2.50645         9.36565
|104>    H       13.06219         3.11225        10.91382
|105>    H       16.61806         1.32969         7.07247
|106>    H       18.38590         1.99207         8.66412
|107>    H       17.79205         2.97187        10.84269
|108>    H       15.43212         3.30347        11.45790
|109>    H       13.14836        -0.45201         4.15578
|110>    H       10.53979        -1.27333         6.56323
|111>    H       12.97579        -0.27147         1.67466
|112>    H       12.15951         0.93535         2.67693
|113>    H       11.95393         0.95820         0.93064
|114>    H       10.48533         0.33717        -0.86557
|115>    H       10.27869        -1.35828        -1.29274
|116>    H       11.78279        -0.81624        -0.55407
|117>    H        6.13717        -3.25263        -0.03632
|118>    H        7.87667        -3.75970        -2.16385
|119>    H        7.60047        -4.79610        -6.17636
|120>    H        9.14085        -6.25606        -4.82369
|121>    H        9.46208        -4.84778        -3.77606
|122>    H        9.97771        -4.89891        -6.64966
|123>    H       11.09530        -4.89166        -5.44914
|124>    H        6.42585        -6.24779        -4.88901
|125>    H        5.78033        -4.68866        -4.34241
|126>    H        7.71373        -6.32175        -2.89021
|127>    H        6.18933        -5.91667        -2.44914
|128>    H        7.69628        -3.36260        -7.82370
|129>    H        8.58385        -1.35130        -9.00783
|130>    H        7.74089         0.95183        -8.40384
|131>    H        7.78446         1.29540        -5.97093
|132>    H        7.79673         1.09338        -3.36538
|133>    H        7.91837         0.36488        -1.01077
|134>    H        5.55995        -1.01163        -8.77868
|135>    H        7.40192        -2.37686       -10.80341
|136>    H        3.87545        -2.62996        -9.57056
|137>    H        7.23322        -0.71700       -12.22821
|138>    H        7.58734        -0.38847       -13.91582
|139>    H        8.27375        -1.81457       -13.15487
|140>    H        7.24485        -0.81202       -15.81413
|141>    H        6.47610        -1.87791       -16.97932
|142>    H        7.83270        -2.45965       -16.00503
|143>    H        2.60769        -4.40045       -17.43676
|144>    H        4.84721        -3.63146       -18.69584
|145>    H        9.71612        -5.97787       -19.96323
|146>    H       11.30460        -7.32563       -18.67884
|147>    H        8.19998        -6.28801       -14.22350
|148>    H        9.84196        -7.65542       -12.98654
|149>    H       11.76016        -8.65714       -14.16006
|150>    H       12.06522        -8.30084       -16.57635
|151> *
|152> 
|153>                          ****END OF INPUT****
================================================================================

                       ****************************
                       * Single Point Calculation *
                       ****************************

---------------------------------
CARTESIAN COORDINATES (ANGSTROEM)
---------------------------------
  C     12.605220    0.713750    5.775940
  C     14.021700    0.971500    6.155860
  O     14.997750    0.680950    5.497950
  C     13.956150    1.594590    7.489430
  C     12.621550    1.809110    7.838540
  C     11.761760    1.411890    6.729210
  C     10.472020    1.820570    6.527290
  C      9.772290    1.644080    5.313970
  N      9.174910    1.596630    4.335090
  C      9.717030    2.556450    7.463880
  N      9.050910    3.140680    8.193750
  C     12.290110    2.358560    9.084630
  C     13.300720    2.692250    9.947310
  C     14.661550    2.509090    9.616010
  C     15.010970    1.942640    8.355860
  C     16.370280    1.760520    8.029690
  C     17.344760    2.129000    8.915650
  C     17.006210    2.688170   10.158290
  C     15.695260    2.873160   10.502390
  C     12.308670   -0.127160    4.759890
  C     11.037820   -0.752990    4.501060
  C     10.294860   -1.285950    5.517780
  S      8.908770   -2.150680    5.002240
  C      9.270420   -1.760150    3.347020
  C     10.445440   -1.007260    3.212370
  C     10.860780   -0.583300    1.932910
  C     12.059200    0.307420    1.794240
  C     10.147340   -0.973500    0.808520
  C     10.702830   -0.684700   -0.555050
  C      8.932400   -1.680700    0.951590
  C      8.521360   -2.094090    2.231630
  S      7.058160   -3.025620    2.204280
  C      6.971540   -2.833960    0.491810
  C      7.981470   -2.102940   -0.043820
  C      7.956170   -1.745090   -1.468670
  C      7.886590   -2.713850   -2.427940
  C      7.821160   -2.344810   -3.793270
  C      7.767330   -3.104650   -4.947040
  C      7.787400   -4.590800   -5.115890
  C      9.181550   -5.151350   -4.785830
  N     10.160840   -4.590330   -5.700480
  C      6.670440   -5.323200   -4.337170
  N      7.009760   -5.594280   -2.949670
  C      7.740720   -2.176570   -6.055000
  C      7.721800   -2.374400   -7.384210
  C      7.707550   -1.238830   -8.351840
  C      7.744000    0.114900   -7.721410
  C      7.762270    0.298550   -6.387910
  C      7.766790   -0.811490   -5.511480
  C      7.811250   -0.927100   -4.136610
  C      7.839090    0.044540   -3.109290
  C      7.910740   -0.356450   -1.814910
  C      6.471790   -1.399150   -9.208870
  C      6.474080   -1.997530  -10.395990
  C      5.285580   -2.262830  -11.192980
  C      4.096680   -2.596050  -10.619430
  S      2.879930   -3.088570  -11.733170
  C      3.992340   -2.870730  -13.047450
  C      5.234990   -2.365180  -12.630550
  C      6.182360   -1.975510  -13.605790
  C      7.387700   -1.180740  -13.197570
  C      5.973630   -2.295670  -14.939290
  C      6.935270   -1.839440  -15.995480
  C      4.815580   -3.014850  -15.311270
  C      3.782520   -3.183190  -14.379960
  S      2.340890   -3.849000  -15.092740
  C      3.127200   -3.954750  -16.609840
  C      4.437430   -3.557640  -16.591760
  C      5.282960   -3.833170  -17.725010
  C      6.499450   -4.429650  -17.656350
  C      7.065090   -5.062520  -16.432430
  O      6.570810   -5.086450  -15.323650
  C      8.297090   -5.739080  -16.874550
  C      8.478740   -5.540350  -18.243490
  C      7.406690   -4.699680  -18.758230
  C      7.319080   -4.189740  -20.027430
  C      6.317620   -3.300150  -20.469600
  N      5.549740   -2.558890  -20.894560
  C      8.237780   -4.455860  -21.063900
  N      8.942100   -4.630770  -21.953820
  C      9.573560   -6.117120  -18.904430
  C     10.458910   -6.872210  -18.182170
  C     10.306060   -7.086460  -16.794180
  C      9.196150   -6.510330  -16.111320
  C      9.046770   -6.728000  -14.726330
  C      9.958960   -7.487730  -14.047020
  C     11.052980   -8.059050  -14.715760
  C     11.223950   -7.862850  -16.058840
  H     11.260050    2.506450    9.365650
  H     13.062190    3.112250   10.913820
  H     16.618060    1.329690    7.072470
  H     18.385900    1.992070    8.664120
  H     17.792050    2.971870   10.842690
  H     15.432120    3.303470   11.457900
  H     13.148360   -0.452010    4.155780
  H     10.539790   -1.273330    6.563230
  H     12.975790   -0.271470    1.674660
  H     12.159510    0.935350    2.676930
  H     11.953930    0.958200    0.930640
  H     10.485330    0.337170   -0.865570
  H     10.278690   -1.358280   -1.292740
  H     11.782790   -0.816240   -0.554070
  H      6.137170   -3.252630   -0.036320
  H      7.876670   -3.759700   -2.163850
  H      7.600470   -4.796100   -6.176360
  H      9.140850   -6.256060   -4.823690
  H      9.462080   -4.847780   -3.776060
  H      9.977710   -4.898910   -6.649660
  H     11.095300   -4.891660   -5.449140
  H      6.425850   -6.247790   -4.889010
  H      5.780330   -4.688660   -4.342410
  H      7.713730   -6.321750   -2.890210
  H      6.189330   -5.916670   -2.449140
  H      7.696280   -3.362600   -7.823700
  H      8.583850   -1.351300   -9.007830
  H      7.740890    0.951830   -8.403840
  H      7.784460    1.295400   -5.970930
  H      7.796730    1.093380   -3.365380
  H      7.918370    0.364880   -1.010770
  H      5.559950   -1.011630   -8.778680
  H      7.401920   -2.376860  -10.803410
  H      3.875450   -2.629960   -9.570560
  H      7.233220   -0.717000  -12.228210
  H      7.587340   -0.388470  -13.915820
  H      8.273750   -1.814570  -13.154870
  H      7.244850   -0.812020  -15.814130
  H      6.476100   -1.877910  -16.979320
  H      7.832700   -2.459650  -16.005030
  H      2.607690   -4.400450  -17.436760
  H      4.847210   -3.631460  -18.695840
  H      9.716120   -5.977870  -19.963230
  H     11.304600   -7.325630  -18.678840
  H      8.199980   -6.288010  -14.223500
  H      9.841960   -7.655420  -12.986540
  H     11.760160   -8.657140  -14.160060
  H     12.065220   -8.300840  -16.576350

----------------------------
CARTESIAN COORDINATES (A.U.)
----------------------------
  NO LB      ZA    FRAG     MASS         X           Y           Z
   0 C     6.0000    0    12.011   23.820414    1.348792   10.914945
   1 C     6.0000    0    12.011   26.497173    1.835869   11.632890
   2 O     8.0000    0    15.999   28.341640    1.286809   10.389620
   3 C     6.0000    0    12.011   26.373301    3.013338   14.152972
   4 C     6.0000    0    12.011   23.851273    3.418722   14.812694
   5 C     6.0000    0    12.011   22.226505    2.668085   12.716364
   6 C     6.0000    0    12.011   19.789250    3.440379   12.334790
   7 C     6.0000    0    12.011   18.466952    3.106861   10.041948
   8 N     7.0000    0    14.007   17.338067    3.017193    8.192133
   9 C     6.0000    0    12.011   18.362526    4.830990   14.104689
  10 N     7.0000    0    14.007   17.103741    5.935025   15.483944
  11 C     6.0000    0    12.011   23.224942    4.457032   17.167463
  12 C     6.0000    0    12.011   25.134718    5.087615   18.797692
  13 C     6.0000    0    12.011   27.706314    4.741493   18.171625
  14 C     6.0000    0    12.011   28.366622    3.671058   15.790287
  15 C     6.0000    0    12.011   30.935346    3.326901   15.173915
  16 C     6.0000    0    12.011   32.776846    4.023227   16.848137
  17 C     6.0000    0    12.011   32.137079    5.079905   19.196386
  18 C     6.0000    0    12.011   29.659743    5.429486   19.846641
  19 C     6.0000    0    12.011   23.260015   -0.240298    8.994889
  20 C     6.0000    0    12.011   20.858457   -1.422945    8.505771
  21 C     6.0000    0    12.011   19.454466   -2.430093   10.427093
  22 S    16.0000    0    32.060   16.835135   -4.064196    9.452864
  23 C     6.0000    0    12.011   17.518555   -3.326201    6.324951
  24 C     6.0000    0    12.011   19.739021   -1.903446    6.070500
  25 C     6.0000    0    12.011   20.523900   -1.102277    3.652671
  26 C     6.0000    0    12.011   22.788585    0.580940    3.390622
  27 C     6.0000    0    12.011   19.175694   -1.839648    1.527881
  28 C     6.0000    0    12.011   20.225418   -1.293895   -1.048892
  29 C     6.0000    0    12.011   16.879790   -3.176063    1.798244
  30 C     6.0000    0    12.011   16.103037   -3.957257    4.217170
  31 S    16.0000    0    32.060   13.337989   -5.717593    4.165486
  32 C     6.0000    0    12.011   13.174301   -5.355408    0.929386
  33 C     6.0000    0    12.011   15.082792   -3.973981   -0.082808
  34 C     6.0000    0    12.011   15.034982   -3.297742   -2.775384
  35 C     6.0000    0    12.011   14.903495   -5.128433   -4.588142
  36 C     6.0000    0    12.011   14.779850   -4.431049   -7.168241
  37 C     6.0000    0    12.011   14.678126   -5.866938   -9.348551
  38 C     6.0000    0    12.011   14.716053   -8.675355   -9.667631
  39 C     6.0000    0    12.011   17.350615   -9.734641   -9.043908
  40 N     7.0000    0    14.007   19.201205   -8.674467  -10.772346
  41 C     6.0000    0    12.011   12.605305  -10.059390   -8.196063
  42 N     7.0000    0    14.007   13.246527  -10.571657   -5.574068
  43 C     6.0000    0    12.011   14.627841   -4.113121  -11.442292
  44 C     6.0000    0    12.011   14.592087   -4.486966  -13.954135
  45 C     6.0000    0    12.011   14.565159   -2.341049  -15.782690
  46 C     6.0000    0    12.011   14.634039    0.217130  -14.591350
  47 C     6.0000    0    12.011   14.668564    0.564178  -12.071400
  48 C     6.0000    0    12.011   14.677106   -1.533494  -10.415188
  49 C     6.0000    0    12.011   14.761123   -1.751965   -7.817060
  50 C     6.0000    0    12.011   14.813733    0.084168   -5.875707
  51 C     6.0000    0    12.011   14.949132   -0.673593   -3.429683
  52 C     6.0000    0    12.011   12.229911   -2.644010  -17.402242
  53 C     6.0000    0    12.011   12.234238   -3.774785  -19.645574
  54 C     6.0000    0    12.011    9.988299   -4.276129  -21.151667
  55 C     6.0000    0    12.011    7.741603   -4.905824  -20.067814
  56 S    16.0000    0    32.060    5.442279   -5.836551  -22.172478
  57 C     6.0000    0    12.011    7.544429   -5.424894  -24.656107
  58 C     6.0000    0    12.011    9.892697   -4.469542  -23.868280
  59 C     6.0000    0    12.011   11.682967   -3.733173  -25.711217
  60 C     6.0000    0    12.011   13.960730   -2.231275  -24.939793
  61 C     6.0000    0    12.011   11.288525   -4.338188  -28.231167
  62 C     6.0000    0    12.011   13.105761   -3.476038  -30.227077
  63 C     6.0000    0    12.011    9.100127   -5.697241  -28.934107
  64 C     6.0000    0    12.011    7.147927   -6.015357  -27.174186
  65 S    16.0000    0    32.060    4.423641   -7.273556  -28.521145
  66 C     6.0000    0    12.011    5.909552   -7.473394  -31.388049
  67 C     6.0000    0    12.011    8.385527   -6.722965  -31.353882
  68 C     6.0000    0    12.011    9.983348   -7.243642  -33.495415
  69 C     6.0000    0    12.011   12.282181   -8.370825  -33.365666
  70 C     6.0000    0    12.011   13.351085   -9.566776  -31.052792
  71 O     8.0000    0    15.999   12.417031   -9.611997  -28.957502
  72 C     6.0000    0    12.011   15.679228  -10.845289  -31.888278
  73 C     6.0000    0    12.011   16.022497  -10.469744  -34.475200
  74 C     6.0000    0    12.011   13.996616   -8.881108  -35.447917
  75 C     6.0000    0    12.011   13.831057   -7.917461  -37.846358
  76 C     6.0000    0    12.011   11.938572   -6.236380  -38.681938
  77 N     7.0000    0    14.007   10.487489   -4.835601  -39.484996
  78 C     6.0000    0    12.011   15.567148   -8.420355  -39.805002
  79 N     7.0000    0    14.007   16.898120   -8.750887  -41.486707
  80 C     6.0000    0    12.011   18.091407  -11.559682  -35.724195
  81 C     6.0000    0    12.011   19.764476  -12.986595  -34.359322
  82 C     6.0000    0    12.011   19.475631  -13.391469  -31.736401
  83 C     6.0000    0    12.011   17.378205  -12.302741  -30.445982
  84 C     6.0000    0    12.011   17.095918  -12.714077  -27.828731
  85 C     6.0000    0    12.011   18.819707  -14.149759  -26.545021
  86 C     6.0000    0    12.011   20.887105  -15.229397  -27.808756
  87 C     6.0000    0    12.011   21.210192  -14.858633  -30.346810
  88 H     1.0000    0     1.008   21.278411    4.736504   17.698514
  89 H     1.0000    0     1.008   24.683962    5.881300   20.624131
  90 H     1.0000    0     1.008   31.403582    2.512750   13.365031
  91 H     1.0000    0     1.008   34.744316    3.764467   16.372814
  92 H     1.0000    0     1.008   33.622102    5.616020   20.489715
  93 H     1.0000    0     1.008   29.162480    6.242654   21.652293
  94 H     1.0000    0     1.008   24.846800   -0.854175    7.853286
  95 H     1.0000    0     1.008   19.917317   -2.406245   12.402707
  96 H     1.0000    0     1.008   24.520689   -0.513004    3.164649
  97 H     1.0000    0     1.008   22.978144    1.767555    5.058665
  98 H     1.0000    0     1.008   22.589654    1.810736    1.758655
  99 H     1.0000    0     1.008   19.814402    0.637159   -1.635690
 100 H     1.0000    0     1.008   19.423909   -2.566777   -2.442925
 101 H     1.0000    0     1.008   22.266246   -1.542470   -1.047041
 102 H     1.0000    0     1.008   11.597571   -6.146580   -0.068635
 103 H     1.0000    0     1.008   14.884749   -7.104803   -4.089084
 104 H     1.0000    0     1.008   14.362807   -9.063316  -11.671629
 105 H     1.0000    0     1.008   17.273703  -11.822240   -9.115453
 106 H     1.0000    0     1.008   17.880740   -9.160977   -7.135719
 107 H     1.0000    0     1.008   18.855139   -9.257598  -12.566036
 108 H     1.0000    0     1.008   20.967078   -9.243898  -10.297382
 109 H     1.0000    0     1.008   12.143097  -11.806612   -9.238890
 110 H     1.0000    0     1.008   10.923241   -8.860283   -8.205966
 111 H     1.0000    0     1.008   14.576837  -11.946376   -5.461705
 112 H     1.0000    0     1.008   11.696139  -11.180886   -4.628204
 113 H     1.0000    0     1.008   14.543861   -6.354393  -14.784650
 114 H     1.0000    0     1.008   16.221126   -2.553587  -17.022332
 115 H     1.0000    0     1.008   14.628162    1.798698  -15.880956
 116 H     1.0000    0     1.008   14.710498    2.447951  -11.283422
 117 H     1.0000    0     1.008   14.733684    2.066189   -6.359647
 118 H     1.0000    0     1.008   14.963551    0.689523   -1.910078
 119 H     1.0000    0     1.008   10.506783   -1.911704  -16.589301
 120 H     1.0000    0     1.008   13.987602   -4.491614  -20.415486
 121 H     1.0000    0     1.008    7.323539   -4.969904  -18.085737
 122 H     1.0000    0     1.008   13.668805   -1.354934  -23.107968
 123 H     1.0000    0     1.008   14.337995   -0.734102  -26.297089
 124 H     1.0000    0     1.008   15.635122   -3.429040  -24.859102
 125 H     1.0000    0     1.008   13.690782   -1.534495  -29.884375
 126 H     1.0000    0     1.008   12.238055   -3.548736  -32.086265
 127 H     1.0000    0     1.008   14.801658   -4.648065  -30.245123
 128 H     1.0000    0     1.008    4.927820   -8.315645  -32.950701
 129 H     1.0000    0     1.008    9.159899   -6.862465  -35.330017
 130 H     1.0000    0     1.008   18.360806  -11.296537  -37.725037
 131 H     1.0000    0     1.008   21.362598  -13.843434  -35.297892
 132 H     1.0000    0     1.008   15.495717  -11.882617  -26.878520
 133 H     1.0000    0     1.008   18.598609  -14.466647  -24.541004
 134 H     1.0000    0     1.008   22.223482  -16.359624  -26.758635
 135 H     1.0000    0     1.008   22.799962  -15.686314  -31.324762

--------------------------------
INTERNAL COORDINATES (ANGSTROEM)
--------------------------------
 C      0   0   0     0.000000000000     0.00000000     0.00000000
 C      1   0   0     1.489023122487     0.00000000     0.00000000
 O      2   1   0     1.212410191767   125.86595465     0.00000000
 C      2   1   3     1.473413348487   105.17759525   181.89333220
 C      4   2   1     1.396085163054   109.50197092   355.07242452
 C      1   2   3     1.451739619939   107.57239563   189.30164277
 C      6   1   2     1.367925544904   126.47968559   156.57322451
 C      7   6   1     1.411706844710   123.83812182   358.28704296
 N      8   7   6     1.147745799949   174.98334998   226.97545531
 C      7   6   1     1.410223422937   124.23806765   183.35778971
 N     10   7   6     1.147933257729   176.86912286   195.47032495
 C      5   4   2     1.401601963540   120.57145000   178.13655641
 C     12   5   4     1.369999405328   118.74233017     0.60466914
 C     13  12   5     1.412503297164   122.10067218     0.47692868
 C      4   2   1     1.408717494674   128.89125411   174.41155560
 C     15   4   2     1.409708565413   123.21522657     1.75066535
 C     16  15   4     1.367594202386   120.15745435   179.57589432
 C     17  16  15     1.404080254473   120.58594923     0.16341276
 C     18  17  16     1.367923979101   120.50135492     0.00000000
 C      1   2   3     1.351824372136   120.53953779    13.72528686
 C     20   1   2     1.440040235653   126.80049051   162.08657051
 C     21  20   1     1.367390025413   121.01411193   317.48797330
 S     22  21  20     1.713121406264   114.36822703   186.97737722
 C     23  22  21     1.738694237582    90.27602897   358.09595394
 C     24  23  22     1.402014969606   112.72889087     1.21186683
 C     25  24  23     1.410413871458   119.69255450   181.44404289
 C     26  25  24     1.499607276489   119.85217641   175.44183840
 C     26  25  24     1.387625866615   119.94252492   356.48033518
 C     28  26  25     1.500432512644   119.46651830   188.69939826
 C     28  26  25     1.413039301824   120.05011260     6.36583850
 C     24  23  22     1.384449948283   126.88845423   182.42560221
 S     31  24  23     1.734776758952   126.76794090   358.08747513
 C     32  31  24     1.725337671559    89.90507856   179.31103441
 C     33  32  31     1.356926063645   114.47353911   359.68700066
 C     34  33  32     1.469317608620   120.07831056   186.32663844
 C     35  34  33     1.365114005093   120.62911911   302.32948144
 C     36  35  34     1.415838131779   119.67095158   178.03113931
 C     37  36  35     1.382548265848   131.55208863   178.77993565
 C     38  37  36     1.495845897778   129.77016221   358.70204725
 C     39  38  37     1.538444060926   110.48372729   289.29637472
 N     40  39  38     1.452699888828   109.57845182   298.47718088
 C     39  38  37     1.546096452360   113.83422691    56.27496516
 N     42  39  38     1.453883997711   113.60232533   275.55528804
 C     38  37  36     1.445550393483   106.70804293   181.13035072
 C     44  38  37     1.343984337483   131.58970736   178.12905655
 C     45  44  38     1.491988640808   121.97319079   180.55280045
 C     46  45  44     1.493772238429   114.57035591     1.17858895
 C     47  46  45     1.346210743309   122.82096258   358.78215942
 C     48  47  46     1.414333333023   120.45093573     0.91757814
 C     49  48  47     1.380438292935   133.07935934   178.43849476
 C     50  49  48     1.414300441066   131.80119108     1.61293158
 C     51  50  49     1.356962153857   119.40000921   181.37132032
 C     46  45  44     1.512384111560   107.13594049   237.83648500
 C     53  46  45     1.329405040949   123.52704665   264.68463780
 C     54  53  46     1.455372598375   124.72596978   174.75161583
 C     55  54  53     1.361425128643   121.80670957   324.37871432
 S     56  55  54     1.721474164924   114.50072000   188.36932052
 C     57  56  55     1.735581226016    90.05658672     0.77229380
 C     58  57  56     1.404836444217   112.79231361   356.87397286
 C     59  58  57     1.414371126473   119.14424637   187.99221821
 C     60  59  58     1.500382430216   119.76457574   167.50179638
 C     60  59  58     1.387188843849   119.89826122   349.37844685
 C     62  60  59     1.499478115412   120.68975258   177.28905564
 C     62  60  59     1.413035312828   119.59358580   359.75194876
 C     58  57  56     1.384643847385   127.10635712   174.37840963
 S     65  58  57     1.740590515141   127.29452746     1.19021810
 C     66  65  58     1.712033553585    90.34993268   184.16461057
 C     67  66  65     1.369206299796   114.19763375     2.24585548
 C     68  67  66     1.440518422062   119.72366728   168.16690363
 C     69  68  67     1.356595188735   124.79390604   231.05056742
 C     70  69  68     1.489447284364   124.67761613     9.04763871
 O     71  70  69     1.214198687077   127.16857131   356.23876645
 C     71  70  69     1.473440710718   105.43062362   172.05111163
 C     73  71  70     1.395165602715   109.74770444     0.14689912
 C     70  69  68     1.452632146450   127.11307935   181.72896763
 C     75  70  69     1.370614079783   126.39384506    12.87008147
 C     76  75  70     1.410605121428   124.76978800     0.31386370
 N     77  76  75     1.148780694302   175.89721690   164.11946938
 C     76  75  70     1.410354425419   124.65849533   178.64516577
 N     79  76  75     1.148310836359   176.20883074   177.22585633
 C     74  73  71     1.402902758177   120.35212816   181.45040174
 C     81  74  73     1.369549209850   118.86218840   359.79874847
 C     82  81  74     1.412721637514   122.12784198   359.88839229
 C     73  71  70     1.409132881953   128.48197582   181.39424073
 C     84  73  71     1.409926208495   123.29511445   358.37624088
 C     85  84  73     1.367750834436   120.19681746   180.04116403
 C     86  85  84     1.403744809572   120.61301724     0.02668180
 C     87  86  85     1.368060330285   120.44608106     0.06908358
 H     12   5   4     1.077899483301   120.76690303   181.28593951
 H     13  12   5     1.080480513938   119.67644603   180.30662773
 H     16  15   4     1.078554377720   118.58554856   359.71187376
 H     17  16  15     1.079810013567   120.12990332   180.18608953
 H     18  17  16     1.080015534888   119.34072263   179.99286572
 H     19  18  17     1.080466897133   120.64486572   180.01546775
 H     20   1   2     1.084230469365   115.80225780   350.10430350
 H     22  21  20     1.073832236339   126.54001991     2.01109702
 H     27  26  25     1.090665043265   111.49905551    90.35300649
 H     27  26  25     1.087887777806   109.96814227   329.91786722
 H     27  26  25     1.086462765722   110.60061418   210.78599695
 H     29  28  26     1.089929913939   111.43784347   277.79954338
 H     29  28  26     1.085260932725   110.70646777   157.48397007
 H     29  28  26     1.087941787781   110.08496095    37.80826971
 H     33  32  31     1.072557300427   118.97472772   181.97095430
 H     36  35  34     1.078723392256   121.09533819   358.26903824
 H     39  38  37     1.096215095590   107.03629495   173.03072680
 H     40  39  38     1.106107613978   108.85736659   174.57932303
 H     40  39  38     1.091094532431   109.27909608    56.11575214
 H     41  40  39     1.014741782770   110.47778095   294.83047961
 H     41  40  39     1.013502371038   110.52291634   175.43757358
 H     42  39  38     1.104182195926   107.75642315   151.02879069
 H     42  39  38     1.093144217979   108.11153661    34.93737438
 H     43  42  39     1.014062055991   110.59353241   288.55695972
 H     43  42  39     1.013691756847   109.97619685   169.67682802
 H     45  44  38     1.081823447010   122.45067998     1.78341930
 H     46  45  44     1.100397233275   107.53139702   122.44075031
 H     47  46  45     1.079894532767   115.82213770   179.61872344
 H     48  47  46     1.080775017753   120.54920480   180.25516210
 H     51  50  49     1.080482208692   119.60101674     1.75908769
 H     52  51  50     1.080285298150   120.87085042   180.92835646
 H     53  46  45     1.080133034445   115.21781708    83.17702223
 H     54  53  46     1.082020966017   119.70344189   358.41990308
 H     56  55  54     1.072483509384   126.86183535     4.83274277
 H     61  60  59     1.085623170165   110.78727870   341.46954742
 H     61  60  59     1.087856123299   110.70603334   222.01453700
 H     61  60  59     1.090251512909   110.82965968   102.86577736
 H     63  62  60     1.088264423428   110.62847207   318.27895904
 H     63  62  60     1.086396877481   110.85777335   198.82696646
 H     63  62  60     1.090931827155   111.14655225    77.88850455
 H     67  66  65     1.073469057076   119.07726448   176.30833610
 H     69  68  67     1.083086273341   115.68283757    44.55382661
 H     81  74  73     1.077390994997   120.87177154   179.33855464
 H     82  81  74     1.080491722041   119.66464000   179.76497805
 H     85  84  73     1.078648465952   118.56283582     0.34493105
 H     86  85  84     1.080012391827   120.11084988   180.13847745
 H     87  86  85     1.080100777937   119.37613296   180.12202005
 H     88  87  86     1.080456872392   120.62369700   179.97047436

---------------------------
INTERNAL COORDINATES (A.U.)
---------------------------
 C      0   0   0     0.000000000000     0.00000000     0.00000000
 C      1   0   0     2.813845908576     0.00000000     0.00000000
 O      2   1   0     2.291123224414   125.86595465     0.00000000
 C      2   1   3     2.784347710705   105.17759525   181.89333220
 C      4   2   1     2.638218617803   109.50197092   355.07242452
 C      1   2   3     2.743390299447   107.57239563   189.30164277
 C      6   1   2     2.585004651463   126.47968559   156.57322451
 C      7   6   1     2.667739317883   123.83812182   358.28704296
 N      8   7   6     2.168925233262   174.98334998   226.97545531
 C      7   6   1     2.664936056992   124.23806765   183.35778971
 N     10   7   6     2.169279477128   176.86912286   195.47032495
 C      5   4   2     2.648643859857   120.57145000   178.13655641
 C     12   5   4     2.588923679706   118.74233017     0.60466914
 C     13  12   5     2.669244394901   122.10067218     0.47692868
 C      4   2   1     2.662090264997   128.89125411   174.41155560
 C     15   4   2     2.663963117274   123.21522657     1.75066535
 C     16  15   4     2.584378504848   120.15745435   179.57589432
 C     17  16  15     2.653327151000   120.58594923     0.16341276
 C     18  17  16     2.585001692525   120.50135492     0.00000000
 C      1   2   3     2.554577844496   120.53953779    13.72528686
 C     20   1   2     2.721281667212   126.80049051   162.08657051
 C     21  20   1     2.583992666287   121.01411193   317.48797330
 S     22  21  20     3.237330291997   114.36822703   186.97737722
 C     23  22  21     3.285655939657    90.27602897   358.09595394
 C     24  23  22     2.649424328214   112.72889087     1.21186683
 C     25  24  23     2.665295952538   119.69255450   181.44404289
 C     26  25  24     2.833847061001   119.85217641   175.44183840
 C     26  25  24     2.622232864248   119.94252492   356.48033518
 C     28  26  25     2.835406531329   119.46651830   188.69939826
 C     28  26  25     2.670257296915   120.05011260     6.36583850
 C     24  23  22     2.616231248376   126.88845423   182.42560221
 S     31  24  23     3.278252977911   126.76794090   358.08747513
 C     32  31  24     3.260415687784    89.90507856   179.31103441
 C     33  32  31     2.564218644269   114.47353911   359.68700066
 C     34  33  32     2.776607884039   120.07831056   186.32663844
 C     35  34  33     2.579691611205   120.62911911   302.32948144
 C     36  35  34     2.675546319025   119.67095158   178.03113931
 C     37  36  35     2.612637589381   131.55208863   178.77993565
 C     38  37  36     2.826739085350   129.77016221   358.70204725
 C     39  38  37     2.907237947509   110.48372729   289.29637472
 N     40  39  38     2.745204944662   109.57845182   298.47718088
 C     39  38  37     2.921698871588   113.83422691    56.27496516
 N     42  39  38     2.747442586164   113.60232533   275.55528804
 C     38  37  36     2.731694356466   106.70804293   181.13035072
 C     44  38  37     2.539762326123   131.58970736   178.12905655
 C     45  44  38     2.819449926048   121.97319079   180.55280045
 C     46  45  44     2.822820437085   114.57035591     1.17858895
 C     47  46  45     2.543969623396   122.82096258   358.78215942
 C     48  47  46     2.672702661490   120.45093573     0.91757814
 C     49  48  47     2.608650318424   133.07935934   178.43849476
 C     50  49  48     2.672640504699   131.80119108     1.61293158
 C     51  50  49     2.564286844885   119.40000921   181.37132032
 C     46  45  44     2.857991780143   107.13594049   237.83648500
 C     53  46  45     2.512211448448   123.52704665   264.68463780
 C     54  53  46     2.750255633742   124.72596978   174.75161583
 C     55  54  53     2.572720644973   121.80670957   324.37871432
 S     56  55  54     3.253114718327   114.50072000   188.36932052
 C     57  56  55     3.279773200346    90.05658672     0.77229380
 C     58  57  56     2.654756142522   112.79231361   356.87397286
 C     59  58  57     2.672774080759   119.14424637   187.99221821
 C     60  59  58     2.835311889255   119.76457574   167.50179638
 C     60  59  58     2.621407010906   119.89826122   349.37844685
 C     62  60  59     2.833602981937   120.68975258   177.28905564
 C     62  60  59     2.670249758805   119.59358580   359.75194876
 C     58  57  56     2.616597664576   127.10635712   174.37840963
 S     65  58  57     3.289239384918   127.29452746     1.19021810
 C     66  65  58     3.235274548359    90.34993268   184.16461057
 C     67  66  65     2.587424927453   114.19763375     2.24585548
 C     68  67  66     2.722185308566   119.72366728   168.16690363
 C     69  68  67     2.563593381305   124.79390604   231.05056742
 C     70  69  68     2.814647458361   124.67761613     9.04763871
 O     71  70  69     2.294502990743   127.16857131   356.23876645
 C     71  70  69     2.784399417827   105.43062362   172.05111163
 C     73  71  70     2.636480900599   109.74770444     0.14689912
 C     70  69  68     2.745076930121   127.11307935   181.72896763
 C     75  70  69     2.590085246087   126.39384506    12.87008147
 C     76  75  70     2.665657362606   124.76978800     0.31386370
 N     77  76  75     2.170880900166   175.89721690   164.11946938
 C     76  75  70     2.665183615806   124.65849533   178.64516577
 N     79  76  75     2.169992997333   176.20883074   177.22585633
 C     74  73  71     2.651102005477   120.35212816   181.45040174
 C     81  74  73     2.588072933544   118.86218840   359.79874847
 C     82  81  74     2.669656998366   122.12784198   359.88839229
 C     73  71  70     2.662875233194   128.48197582   181.39424073
 C     84  73  71     2.664374403093   123.29511445   358.37624088
 C     85  84  73     2.584674496526   120.19681746   180.04116403
 C     86  85  84     2.652693252004   120.61301724     0.02668180
 C     87  86  85     2.585259358921   120.44608106     0.06908358
 H     12   5   4     2.036934823334   120.76690303   181.28593951
 H     13  12   5     2.041812264382   119.67644603   180.30662773
 H     16  15   4     2.038172394434   118.58554856   359.71187376
 H     17  16  15     2.040545202308   120.12990332   180.18608953
 H     18  17  16     2.040933581319   119.34072263   179.99286572
 H     19  18  17     2.041786532349   120.64486572   180.01546775
 H     20   1   2     2.048898653153   115.80225780   350.10430350
 H     22  21  20     2.029248840456   126.54001991     2.01109702
 H     27  26  25     2.061058235612   111.49905551    90.35300649
 H     27  26  25     2.055809964494   109.96814227   329.91786722
 H     27  26  25     2.053117081917   110.60061418   210.78599695
 H     29  28  26     2.059669042514   111.43784347   277.79954338
 H     29  28  26     2.050845946695   110.70646777   157.48397007
 H     29  28  26     2.055912028555   110.08496095    37.80826971
 H     33  32  31     2.026839560746   118.97472772   181.97095430
 H     36  35  34     2.038491785618   121.09533819   358.26903824
 H     39  38  37     2.071546314536   107.03629495   173.03072680
 H     40  39  38     2.090240465063   108.85736659   174.57932303
 H     40  39  38     2.061869852513   109.27909608    56.11575214
 H     41  40  39     1.917584066083   110.47778095   294.83047961
 H     41  40  39     1.915241917342   110.52291634   175.43757358
 H     42  39  38     2.086601952252   107.75642315   151.02879069
 H     42  39  38     2.065743196859   108.11153661    34.93737438
 H     43  42  39     1.916299568623   110.59353241   288.55695972
 H     43  42  39     1.915599804655   109.97619685   169.67682802
 H     45  44  38     2.044350040103   122.45067998     1.78341930
 H     46  45  44     2.079449409415   107.53139702   122.44075031
 H     47  46  45     2.040704920448   115.82213770   179.61872344
 H     48  47  46     2.042368795938   120.54920480   180.25516210
 H     51  50  49     2.041815467002   119.60101674     1.75908769
 H     52  51  50     2.041443360006   120.87085042   180.92835646
 H     53  46  45     2.041155623303   115.21781708    83.17702223
 H     54  53  46     2.044723296933   119.70344189   358.41990308
 H     56  55  54     2.026700115882   126.86183535     4.83274277
 H     61  60  59     2.051530476252   110.78727870   341.46954742
 H     61  60  59     2.055750146145   110.70603334   222.01453700
 H     61  60  59     2.060276776491   110.82965968   102.86577736
 H     63  62  60     2.056521721569   110.62847207   318.27895904
 H     63  62  60     2.052992571186   110.85777335   198.82696646
 H     63  62  60     2.061562384101   111.14655225    77.88850455
 H     67  66  65     2.028562531113   119.07726448   176.30833610
 H     69  68  67     2.046736436024   115.68283757    44.55382661
 H     81  74  73     2.035973919697   120.87177154   179.33855464
 H     82  81  74     2.041833444627   119.66464000   179.76497805
 H     85  84  73     2.038350195423   118.56283582     0.34493105
 H     86  85  84     2.040927641794   120.11084988   180.13847745
 H     87  86  85     2.041094667336   119.37613296   180.12202005
 H     88  87  86     2.041767588335   120.62369700   179.97047436

---------------------
BASIS SET INFORMATION
---------------------
There are 5 groups of distinct atoms

 Group   1 Type C   : 7s4p1d contracted to 3s2p1d pattern {511/31/1}
 Group   2 Type O   : 7s4p1d contracted to 3s2p1d pattern {511/31/1}
 Group   3 Type N   : 7s4p1d contracted to 3s2p1d pattern {511/31/1}
 Group   4 Type S   : 10s7p1d contracted to 4s3p1d pattern {5311/511/1}
 Group   5 Type H   : 4s1p contracted to 2s1p pattern {31/1}

Atom   0C    basis set group =>   1
Atom   1C    basis set group =>   1
Atom   2O    basis set group =>   2
Atom   3C    basis set group =>   1
Atom   4C    basis set group =>   1
Atom   5C    basis set group =>   1
Atom   6C    basis set group =>   1
Atom   7C    basis set group =>   1
Atom   8N    basis set group =>   3
Atom   9C    basis set group =>   1
Atom  10N    basis set group =>   3
Atom  11C    basis set group =>   1
Atom  12C    basis set group =>   1
Atom  13C    basis set group =>   1
Atom  14C    basis set group =>   1
Atom  15C    basis set group =>   1
Atom  16C    basis set group =>   1
Atom  17C    basis set group =>   1
Atom  18C    basis set group =>   1
Atom  19C    basis set group =>   1
Atom  20C    basis set group =>   1
Atom  21C    basis set group =>   1
Atom  22S    basis set group =>   4
Atom  23C    basis set group =>   1
Atom  24C    basis set group =>   1
Atom  25C    basis set group =>   1
Atom  26C    basis set group =>   1
Atom  27C    basis set group =>   1
Atom  28C    basis set group =>   1
Atom  29C    basis set group =>   1
Atom  30C    basis set group =>   1
Atom  31S    basis set group =>   4
Atom  32C    basis set group =>   1
Atom  33C    basis set group =>   1
Atom  34C    basis set group =>   1
Atom  35C    basis set group =>   1
Atom  36C    basis set group =>   1
Atom  37C    basis set group =>   1
Atom  38C    basis set group =>   1
Atom  39C    basis set group =>   1
Atom  40N    basis set group =>   3
Atom  41C    basis set group =>   1
Atom  42N    basis set group =>   3
Atom  43C    basis set group =>   1
Atom  44C    basis set group =>   1
Atom  45C    basis set group =>   1
Atom  46C    basis set group =>   1
Atom  47C    basis set group =>   1
Atom  48C    basis set group =>   1
Atom  49C    basis set group =>   1
Atom  50C    basis set group =>   1
Atom  51C    basis set group =>   1
Atom  52C    basis set group =>   1
Atom  53C    basis set group =>   1
Atom  54C    basis set group =>   1
Atom  55C    basis set group =>   1
Atom  56S    basis set group =>   4
Atom  57C    basis set group =>   1
Atom  58C    basis set group =>   1
Atom  59C    basis set group =>   1
Atom  60C    basis set group =>   1
Atom  61C    basis set group =>   1
Atom  62C    basis set group =>   1
Atom  63C    basis set group =>   1
Atom  64C    basis set group =>   1
Atom  65S    basis set group =>   4
Atom  66C    basis set group =>   1
Atom  67C    basis set group =>   1
Atom  68C    basis set group =>   1
Atom  69C    basis set group =>   1
Atom  70C    basis set group =>   1
Atom  71O    basis set group =>   2
Atom  72C    basis set group =>   1
Atom  73C    basis set group =>   1
Atom  74C    basis set group =>   1
Atom  75C    basis set group =>   1
Atom  76C    basis set group =>   1
Atom  77N    basis set group =>   3
Atom  78C    basis set group =>   1
Atom  79N    basis set group =>   3
Atom  80C    basis set group =>   1
Atom  81C    basis set group =>   1
Atom  82C    basis set group =>   1
Atom  83C    basis set group =>   1
Atom  84C    basis set group =>   1
Atom  85C    basis set group =>   1
Atom  86C    basis set group =>   1
Atom  87C    basis set group =>   1
Atom  88H    basis set group =>   5
Atom  89H    basis set group =>   5
Atom  90H    basis set group =>   5
Atom  91H    basis set group =>   5
Atom  92H    basis set group =>   5
Atom  93H    basis set group =>   5
Atom  94H    basis set group =>   5
Atom  95H    basis set group =>   5
Atom  96H    basis set group =>   5
Atom  97H    basis set group =>   5
Atom  98H    basis set group =>   5
Atom  99H    basis set group =>   5
Atom 100H    basis set group =>   5
Atom 101H    basis set group =>   5
Atom 102H    basis set group =>   5
Atom 103H    basis set group =>   5
Atom 104H    basis set group =>   5
Atom 105H    basis set group =>   5
Atom 106H    basis set group =>   5
Atom 107H    basis set group =>   5
Atom 108H    basis set group =>   5
Atom 109H    basis set group =>   5
Atom 110H    basis set group =>   5
Atom 111H    basis set group =>   5
Atom 112H    basis set group =>   5
Atom 113H    basis set group =>   5
Atom 114H    basis set group =>   5
Atom 115H    basis set group =>   5
Atom 116H    basis set group =>   5
Atom 117H    basis set group =>   5
Atom 118H    basis set group =>   5
Atom 119H    basis set group =>   5
Atom 120H    basis set group =>   5
Atom 121H    basis set group =>   5
Atom 122H    basis set group =>   5
Atom 123H    basis set group =>   5
Atom 124H    basis set group =>   5
Atom 125H    basis set group =>   5
Atom 126H    basis set group =>   5
Atom 127H    basis set group =>   5
Atom 128H    basis set group =>   5
Atom 129H    basis set group =>   5
Atom 130H    basis set group =>   5
Atom 131H    basis set group =>   5
Atom 132H    basis set group =>   5
Atom 133H    basis set group =>   5
Atom 134H    basis set group =>   5
Atom 135H    basis set group =>   5
---------------------------------
AUXILIARY/J BASIS SET INFORMATION
---------------------------------
There are 5 groups of distinct atoms

 Group   1 Type C   : 12s5p4d2f1g contracted to 6s4p3d1f1g pattern {711111/2111/211/2/1}
 Group   2 Type O   : 12s5p4d2f1g contracted to 6s4p3d1f1g pattern {711111/2111/211/2/1}
 Group   3 Type N   : 12s5p4d2f1g contracted to 6s4p3d1f1g pattern {711111/2111/211/2/1}
 Group   4 Type S   : 14s5p5d2f1g contracted to 8s4p3d1f1g pattern {71111111/2111/311/2/1}
 Group   5 Type H   : 5s2p1d contracted to 3s1p1d pattern {311/2/1}

Atom   0C    basis set group =>   1
Atom   1C    basis set group =>   1
Atom   2O    basis set group =>   2
Atom   3C    basis set group =>   1
Atom   4C    basis set group =>   1
Atom   5C    basis set group =>   1
Atom   6C    basis set group =>   1
Atom   7C    basis set group =>   1
Atom   8N    basis set group =>   3
Atom   9C    basis set group =>   1
Atom  10N    basis set group =>   3
Atom  11C    basis set group =>   1
Atom  12C    basis set group =>   1
Atom  13C    basis set group =>   1
Atom  14C    basis set group =>   1
Atom  15C    basis set group =>   1
Atom  16C    basis set group =>   1
Atom  17C    basis set group =>   1
Atom  18C    basis set group =>   1
Atom  19C    basis set group =>   1
Atom  20C    basis set group =>   1
Atom  21C    basis set group =>   1
Atom  22S    basis set group =>   4
Atom  23C    basis set group =>   1
Atom  24C    basis set group =>   1
Atom  25C    basis set group =>   1
Atom  26C    basis set group =>   1
Atom  27C    basis set group =>   1
Atom  28C    basis set group =>   1
Atom  29C    basis set group =>   1
Atom  30C    basis set group =>   1
Atom  31S    basis set group =>   4
Atom  32C    basis set group =>   1
Atom  33C    basis set group =>   1
Atom  34C    basis set group =>   1
Atom  35C    basis set group =>   1
Atom  36C    basis set group =>   1
Atom  37C    basis set group =>   1
Atom  38C    basis set group =>   1
Atom  39C    basis set group =>   1
Atom  40N    basis set group =>   3
Atom  41C    basis set group =>   1
Atom  42N    basis set group =>   3
Atom  43C    basis set group =>   1
Atom  44C    basis set group =>   1
Atom  45C    basis set group =>   1
Atom  46C    basis set group =>   1
Atom  47C    basis set group =>   1
Atom  48C    basis set group =>   1
Atom  49C    basis set group =>   1
Atom  50C    basis set group =>   1
Atom  51C    basis set group =>   1
Atom  52C    basis set group =>   1
Atom  53C    basis set group =>   1
Atom  54C    basis set group =>   1
Atom  55C    basis set group =>   1
Atom  56S    basis set group =>   4
Atom  57C    basis set group =>   1
Atom  58C    basis set group =>   1
Atom  59C    basis set group =>   1
Atom  60C    basis set group =>   1
Atom  61C    basis set group =>   1
Atom  62C    basis set group =>   1
Atom  63C    basis set group =>   1
Atom  64C    basis set group =>   1
Atom  65S    basis set group =>   4
Atom  66C    basis set group =>   1
Atom  67C    basis set group =>   1
Atom  68C    basis set group =>   1
Atom  69C    basis set group =>   1
Atom  70C    basis set group =>   1
Atom  71O    basis set group =>   2
Atom  72C    basis set group =>   1
Atom  73C    basis set group =>   1
Atom  74C    basis set group =>   1
Atom  75C    basis set group =>   1
Atom  76C    basis set group =>   1
Atom  77N    basis set group =>   3
Atom  78C    basis set group =>   1
Atom  79N    basis set group =>   3
Atom  80C    basis set group =>   1
Atom  81C    basis set group =>   1
Atom  82C    basis set group =>   1
Atom  83C    basis set group =>   1
Atom  84C    basis set group =>   1
Atom  85C    basis set group =>   1
Atom  86C    basis set group =>   1
Atom  87C    basis set group =>   1
Atom  88H    basis set group =>   5
Atom  89H    basis set group =>   5
Atom  90H    basis set group =>   5
Atom  91H    basis set group =>   5
Atom  92H    basis set group =>   5
Atom  93H    basis set group =>   5
Atom  94H    basis set group =>   5
Atom  95H    basis set group =>   5
Atom  96H    basis set group =>   5
Atom  97H    basis set group =>   5
Atom  98H    basis set group =>   5
Atom  99H    basis set group =>   5
Atom 100H    basis set group =>   5
Atom 101H    basis set group =>   5
Atom 102H    basis set group =>   5
Atom 103H    basis set group =>   5
Atom 104H    basis set group =>   5
Atom 105H    basis set group =>   5
Atom 106H    basis set group =>   5
Atom 107H    basis set group =>   5
Atom 108H    basis set group =>   5
Atom 109H    basis set group =>   5
Atom 110H    basis set group =>   5
Atom 111H    basis set group =>   5
Atom 112H    basis set group =>   5
Atom 113H    basis set group =>   5
Atom 114H    basis set group =>   5
Atom 115H    basis set group =>   5
Atom 116H    basis set group =>   5
Atom 117H    basis set group =>   5
Atom 118H    basis set group =>   5
Atom 119H    basis set group =>   5
Atom 120H    basis set group =>   5
Atom 121H    basis set group =>   5
Atom 122H    basis set group =>   5
Atom 123H    basis set group =>   5
Atom 124H    basis set group =>   5
Atom 125H    basis set group =>   5
Atom 126H    basis set group =>   5
Atom 127H    basis set group =>   5
Atom 128H    basis set group =>   5
Atom 129H    basis set group =>   5
Atom 130H    basis set group =>   5
Atom 131H    basis set group =>   5
Atom 132H    basis set group =>   5
Atom 133H    basis set group =>   5
Atom 134H    basis set group =>   5
Atom 135H    basis set group =>   5


           ************************************************************
           *        Program running with 6 parallel MPI-processes     *
           *              working on a common directory               *
           ************************************************************
------------------------------------------------------------------------------
                           ORCA GTO INTEGRAL CALCULATION
                           -- RI-GTO INTEGRALS CHOSEN --
------------------------------------------------------------------------------

                         BASIS SET STATISTICS AND STARTUP INFO

Gaussian basis set:
 # of primitive gaussian shells          ... 1320
 # of primitive gaussian functions       ... 2496
 # of contracted shells                  ...  680
 # of contracted basis functions         ... 1488
 Highest angular momentum                ...    2
 Maximum contraction depth               ...    5
Auxiliary gaussian basis set:
 # of primitive gaussian shells          ... 2508
 # of primitive gaussian functions       ... 6956
 # of contracted shells                  ... 1568
 # of contracted aux-basis functions     ... 4848
 Highest angular momentum                ...    4
 Maximum contraction depth               ...    7
Ratio of auxiliary to basis functions    ...  3.26
Integral package used                  ... LIBINT
 One Electron integrals                  ... done
 Ordering auxiliary basis shells         ... done
 Integral threshhold             Thresh  ...  2.500e-11
 Primitive cut-off               TCut    ...  2.500e-12
 Pre-screening matrix                    ... done
 Shell pair data                         ... 
 Ordering of the shell pairs             ... done (   0.014 sec) 65864 of 231540 pairs
 Determination of significant pairs      ... done (   0.000 sec)
 Creation of shell pair data             ... done (   0.007 sec)
 Storage of shell pair data              ... done (   0.426 sec)
 Shell pair data done in (   0.447 sec)
 Computing two index integrals           ... done
 Cholesky decomposition of the V-matrix  ... done


Timings:
 Total evaluation time                   ...   5.542 sec (  0.092 min)
 One electron matrix time                ...   1.233 sec (  0.021 min) = 22.2%
 Schwartz matrix evaluation time         ...   0.869 sec (  0.014 min) = 15.7%
 Two index repulsion integral time       ...   0.513 sec (  0.009 min) =  9.3%
 Cholesky decomposition of V             ...   2.464 sec (  0.041 min) = 44.5%
 Three index repulsion integral time     ...   0.000 sec (  0.000 min) =  0.0%



           ************************************************************
           *        Program running with 6 parallel MPI-processes     *
           *              working on a common directory               *
           ************************************************************
-------------------------------------------------------------------------------
                                 ORCA SCF
-------------------------------------------------------------------------------

------------
SCF SETTINGS
------------
Hamiltonian:
 Density Functional     Method          .... DFT(GTOs)
 Exchange Functional    Exchange        .... WB88
 Correlation Functional Correlation     .... LYP
 LDA part of GGA corr.  LDAOpt          .... VWN-5
 Gradients option       PostSCFGGA      .... off
 Hybrid DFT is turned on
   Fraction HF Exchange ScalHFX         ....  0.190000
   Scaling of DF-GGA-X  ScalDFX         ....  0.350000
   Scaling of DF-GGA-C  ScalDFC         ....  0.810000
   Scaling of DF-LDA-C  ScalLDAC        ....  1.000000
   Perturbative correction              ....  0.000000
   Density functional embedding theory  .... OFF
 Long-range corrected/Screened/Range-Separated Hybrid DFT is turned on
   Amount of maximum screened exact exchange              ....  0.460000
   Range separation parameter mu (erf(mu*r12)/r12)        ....  0.330000
 RI-approximation to the Coulomb term is turned on
   Number of auxiliary basis functions  .... 4848
   RIJ-COSX (HFX calculated with COS-X)).... on


General Settings:
 Integral files         IntName         .... xtbopt
 Hartree-Fock type      HFTyp           .... RHF
 Total Charge           Charge          ....    0
 Multiplicity           Mult            ....    1
 Number of Electrons    NEL             ....  626
 Basis Dimension        Dim             .... 1488
 Nuclear Repulsion      ENuc            ....  13471.0424460548 Eh

Convergence Acceleration:
 DIIS                   CNVDIIS         .... on
   Start iteration      DIISMaxIt       ....    12
   Startup error        DIISStart       ....  0.200000
   # of expansion vecs  DIISMaxEq       ....     5
   Bias factor          DIISBfac        ....   1.050
   Max. coefficient     DIISMaxC        ....  10.000
 Newton-Raphson         CNVNR           .... off
 SOSCF                  CNVSOSCF        .... on
   Start iteration      SOSCFMaxIt      ....   150
   Startup grad/error   SOSCFStart      ....  0.003300
 Level Shifting         CNVShift        .... on
   Level shift para.    LevelShift      ....    0.2500
   Turn off err/grad.   ShiftErr        ....    0.0010
 Zerner damping         CNVZerner       .... off
 Static damping         CNVDamp         .... on
   Fraction old density DampFac         ....    0.7000
   Max. Damping (<1)    DampMax         ....    0.9800
   Min. Damping (>=0)   DampMin         ....    0.0000
   Turn off err/grad.   DampErr         ....    0.1000
 Fernandez-Rico         CNVRico         .... off

SCF Procedure:
 Maximum # iterations   MaxIter         ....   125
 SCF integral mode      SCFMode         .... Direct
   Integral package                     .... LIBINT
 Reset frequency        DirectResetFreq ....    20
 Integral Threshold     Thresh          ....  2.500e-11 Eh
 Primitive CutOff       TCut            ....  2.500e-12 Eh

Convergence Tolerance:
 Convergence Check Mode ConvCheckMode   .... Total+1el-Energy
 Convergence forced     ConvForced      .... 1
 Energy Change          TolE            ....  1.000e-08 Eh
 1-El. energy change                    ....  1.000e-05 Eh
 Orbital Gradient       TolG            ....  1.000e-05
 Orbital Rotation angle TolX            ....  1.000e-05
 DIIS Error             TolErr          ....  5.000e-07


Diagonalization of the overlap matrix:
Smallest eigenvalue                        ... 1.813e-04
Time for diagonalization                   ...    0.838 sec
Threshold for overlap eigenvalues          ... 1.000e-08
Number of eigenvalues below threshold      ... 0
Time for construction of square roots      ...    0.574 sec
Total time needed                          ...    1.414 sec

-------------------
DFT GRID GENERATION
-------------------

General Integration Accuracy     IntAcc      ...  4.670
Radial Grid Type                 RadialGrid  ... Gauss-Chebyshev
Angular Grid (max. acc.)         AngularGrid ... Lebedev-302
Angular grid pruning method      GridPruning ... 3 (G Style)
Weight generation scheme         WeightScheme... Becke
Basis function cutoff            BFCut       ...    1.0000e-11
Integration weight cutoff        WCut        ...    1.0000e-14
Grids for H and He will be reduced by one unit

# of grid points (after initial pruning)     ... 712104 (   0.0 sec)
# of grid points (after weights+screening)   ... 600700 (  17.2 sec)
nearest neighbour list constructed           ...    0.0 sec
Grid point re-assignment to atoms done       ...    0.1 sec
Grid point division into batches done        ...    2.1 sec
Reduced shell lists constructed in    3.2 sec

Total number of grid points                  ...   600700
Total number of batches                      ...     9449
Average number of points per batch           ...       63
Average number of grid points per atom       ...     4417
Average number of shells per batch           ...   101.23 (14.89%)
Average number of basis functions per batch  ...   213.10 (14.32%)
Average number of large shells per batch     ...    63.78 (63.00%)
Average number of large basis fcns per batch ...   135.90 (63.77%)
Maximum spatial batch extension              ...  18.19, 21.16, 20.51 au
Average spatial batch extension              ...   0.29,  0.33,  0.30 au

Time for grid setup =   23.716 sec

------------------------------
INITIAL GUESS: MODEL POTENTIAL
------------------------------
Loading Hartree-Fock densities                     ... done
Calculating cut-offs                               ... done
Setting up the integral package                    ... done
Initializing the effective Hamiltonian             ... done
Starting the Coulomb interaction                   ... done (   2.4 sec)
Reading the grid                                   ... done
Mapping shells                                     ... done
Starting the XC term evaluation                    ... done (   3.4 sec)
  promolecular density results
     # of electrons  =    625.976296277
     EX              =   -558.359889265
     EC              =    -21.519975473
     EX+EC           =   -579.879864738
Transforming the Hamiltonian                       ... done (   0.6 sec)
Diagonalizing the Hamiltonian                      ... done (   1.1 sec)
Back transforming the eigenvectors                 ... done (   0.4 sec)
Now organizing SCF variables                       ... done
                      ------------------
                      INITIAL GUESS DONE (  31.8 sec)
                      ------------------
--------------------
COSX GRID GENERATION
--------------------

General Integration Accuracy     IntAcc      ...  3.340
Radial Grid Type                 RadialGrid  ... Gauss-Chebyshev
Angular Grid (max. acc.)         AngularGrid ... Lebedev-50
Angular grid pruning method      GridPruning ... 3 (G Style)
Weight generation scheme         WeightScheme... Becke
Basis function cutoff            BFCut       ...    1.0000e-11
Integration weight cutoff        WCut        ...    1.0000e-14
Grids for H and He will be reduced by one unit

# of grid points (after initial pruning)     ...  66820 (   0.0 sec)
# of grid points (after weights+screening)   ...  59060 (   2.1 sec)
nearest neighbour list constructed           ...    0.0 sec
Grid point re-assignment to atoms done       ...    0.0 sec
Grid point division into batches done        ...    0.0 sec
Reduced shell lists constructed in    0.2 sec

Total number of grid points                  ...    59060
Total number of batches                      ...      990
Average number of points per batch           ...       59
Average number of grid points per atom       ...      434
Average number of shells per batch           ...   118.00 (17.35%)
Average number of basis functions per batch  ...   251.73 (16.92%)
Average number of large shells per batch     ...    74.65 (63.26%)
Average number of large basis fcns per batch ...   161.06 (63.98%)
Maximum spatial batch extension              ...  15.55, 16.85, 16.80 au
Average spatial batch extension              ...   0.56,  0.77,  0.61 au

Overlap Fitting                  UseSFitting ... on
Constructing numerical overlap ... done (      0.5 sec)
Inverting numerical overlap    ... done (      0.6 sec)
Obtaining analytic overlap     ... done (      0.0 sec)
Final contraction and storage  ... done (      1.3 sec)


General Integration Accuracy     IntAcc      ...  3.670
Radial Grid Type                 RadialGrid  ... Gauss-Chebyshev
Angular Grid (max. acc.)         AngularGrid ... Lebedev-50
Angular grid pruning method      GridPruning ... 3 (G Style)
Weight generation scheme         WeightScheme... Becke
Basis function cutoff            BFCut       ...    1.0000e-11
Integration weight cutoff        WCut        ...    1.0000e-14
Grids for H and He will be reduced by one unit

# of grid points (after initial pruning)     ...  83760 (   0.0 sec)
# of grid points (after weights+screening)   ...  73685 (   2.2 sec)
nearest neighbour list constructed           ...    0.0 sec
Grid point re-assignment to atoms done       ...    0.0 sec
Grid point division into batches done        ...    0.0 sec
Reduced shell lists constructed in    0.2 sec

Total number of grid points                  ...    73685
Total number of batches                      ...     1224
Average number of points per batch           ...       60
Average number of grid points per atom       ...      542
Average number of shells per batch           ...   116.30 (17.10%)
Average number of basis functions per batch  ...   247.33 (16.62%)
Average number of large shells per batch     ...    73.67 (63.34%)
Average number of large basis fcns per batch ...   159.00 (64.29%)
Maximum spatial batch extension              ...  17.18, 19.10, 16.29 au
Average spatial batch extension              ...   0.52,  0.67,  0.55 au

Overlap Fitting                  UseSFitting ... on
Constructing numerical overlap ... done (      0.5 sec)
Inverting numerical overlap    ... done (      0.3 sec)
Obtaining analytic overlap     ... done (      0.0 sec)
Final contraction and storage  ... done (      1.0 sec)


General Integration Accuracy     IntAcc      ...  4.010
Radial Grid Type                 RadialGrid  ... Gauss-Chebyshev
Angular Grid (max. acc.)         AngularGrid ... Lebedev-110
Angular grid pruning method      GridPruning ... 3 (G Style)
Weight generation scheme         WeightScheme... Becke
Basis function cutoff            BFCut       ...    1.0000e-11
Integration weight cutoff        WCut        ...    1.0000e-14
Grids for H and He will be reduced by one unit

# of grid points (after initial pruning)     ... 161812 (   0.0 sec)
# of grid points (after weights+screening)   ... 140972 (   4.5 sec)
nearest neighbour list constructed           ...    0.0 sec
Grid point re-assignment to atoms done       ...    0.0 sec
Grid point division into batches done        ...    0.1 sec
Reduced shell lists constructed in    0.4 sec

Total number of grid points                  ...   140972
Total number of batches                      ...     2269
Average number of points per batch           ...       62
Average number of grid points per atom       ...     1037
Average number of shells per batch           ...   110.13 (16.20%)
Average number of basis functions per batch  ...   233.46 (15.69%)
Average number of large shells per batch     ...    69.99 (63.55%)
Average number of large basis fcns per batch ...   150.40 (64.42%)
Maximum spatial batch extension              ...  18.72, 20.70, 17.88 au
Average spatial batch extension              ...   0.45,  0.57,  0.48 au

Overlap Fitting                  UseSFitting ... on
Constructing numerical overlap ... done (      0.8 sec)
Inverting numerical overlap    ... done (      0.2 sec)
Obtaining analytic overlap     ... done (      0.0 sec)
Final contraction and storage  ... done (      1.1 sec)

Time for X-Grid setup             =   16.600 sec
--------------
SCF ITERATIONS
--------------
ITER       Energy         Delta-E        Max-DP      RMS-DP      [F,P]     Damp
               ***  Starting incremental Fock matrix formation  ***
  0  -4989.9999642684   0.000000000000 0.07823012  0.00089851  0.2340190 0.7000
  1  -4990.7727295695  -0.772765301092 0.04512647  0.00063246  0.1113835 0.7000
                               ***Turning on DIIS***
  2  -4991.1046879280  -0.331958358578 0.10213848  0.00114046  0.0429976 0.0000
  3  -4991.6463281812  -0.541640253190 0.04815725  0.00049713  0.0615534 0.0000
  4  -4991.7484630660  -0.102134884719 0.01694985  0.00014014  0.0266418 0.0000
  5  -4991.7555860552  -0.007122989251 0.00730757  0.00005133  0.0098379 0.0000
                      *** Initiating the SOSCF procedure ***
                           *** Shutting down DIIS ***
                      *** Re-Reading the Fockian *** 
                      *** Removing any level shift *** 
ITER      Energy       Delta-E        Grad      Rot      Max-DP    RMS-DP
  6  -4991.75668849  -0.0011024377  0.001449  0.001449  0.002330  0.000028
               *** Restarting incremental Fock matrix formation ***
  7  -4991.75690710  -0.0002186053  0.000974  0.004863  0.003071  0.000025
  8  -4991.75709711  -0.0001900121  0.000437  0.005317  0.002609  0.000032
  9  -4991.75711313  -0.0000160210  0.000727  0.001869  0.001188  0.000012
 10  -4991.75716013  -0.0000470005  0.000190  0.000481  0.000531  0.000005
 11  -4991.75715888   0.0000012468  0.000193  0.000279  0.000278  0.000003
 12  -4991.75716309  -0.0000042083  0.000045  0.000329  0.000130  0.000001
 13  -4991.75716307   0.0000000183  0.000027  0.000095  0.000069  0.000001
 14  -4991.75716333  -0.0000002505  0.000013  0.000106  0.000042  0.000000
 15  -4991.75716337  -0.0000000485  0.000009  0.000070  0.000023  0.000000
 16  -4991.75716338  -0.0000000062  0.000003  0.000033  0.000012  0.000000
 17  -4991.75716332   0.0000000587  0.000003  0.000009  0.000005  0.000000
                  ***Gradient check signals convergence***
              ***Rediagonalizing the Fockian in SOSCF/NRSCF***

               *****************************************************
               *                     SUCCESS                       *
               *           SCF CONVERGED AFTER  18 CYCLES          *
               *****************************************************

Setting up the final grid:

General Integration Accuracy     IntAcc      ...  5.010
Radial Grid Type                 RadialGrid  ... Gauss-Chebyshev
Angular Grid (max. acc.)         AngularGrid ... Lebedev-434
Angular grid pruning method      GridPruning ... 3 (G Style)
Weight generation scheme         WeightScheme... Becke
Basis function cutoff            BFCut       ...    1.0000e-11
Integration weight cutoff        WCut        ...    1.0000e-14
Grids for H and He will be reduced by one unit

# of grid points (after initial pruning)     ... 1266448 (   0.1 sec)
# of grid points (after weights+screening)   ... 1064740 (  29.4 sec)
nearest neighbour list constructed           ...    0.0 sec
Grid point re-assignment to atoms done       ...    0.1 sec
Grid point division into batches done        ...    7.0 sec
Reduced shell lists constructed in    8.9 sec

Total number of grid points                  ...  1064740
Total number of batches                      ...    16703
Average number of points per batch           ...       63
Average number of grid points per atom       ...     7829
Average number of shells per batch           ...    97.59 (14.35%)
Average number of basis functions per batch  ...   204.81 (13.76%)
Average number of large shells per batch     ...    61.38 (62.89%)
Average number of large basis fcns per batch ...   130.64 (63.79%)
Maximum spatial batch extension              ...  18.96, 20.64, 16.30 au
Average spatial batch extension              ...   0.25,  0.27,  0.25 au

Final grid set up in   41.2 sec
Final integration                            ... done (   5.4 sec)
Change in XC energy                          ...    -0.000001759
Integrated number of electrons               ...   625.999929943
Previous integrated no of electrons          ...   625.999802552
Old exchange energy                            =   -156.780686633 Eh
New exchange energy                            =   -156.777917452 Eh
Exchange energy change after final integration =      0.002769181 Eh
Total energy after final integration           =  -4991.754395891 Eh
Final COS-X integration done in                =   109.589 sec

----------------
TOTAL SCF ENERGY
----------------

Total Energy       :        -4991.75439589 Eh         -135832.54271 eV

Components:
Nuclear Repulsion  :        13471.04244605 Eh          366565.70080 eV
Electronic Energy  :       -18462.79684195 Eh         -502398.24350 eV
One Electron Energy:       -33649.76120670 Eh         -915656.55351 eV
Two Electron Energy:        15186.96436475 Eh          413258.31001 eV

Virial components:
[...]
  43   4.522     274.2   0.000086   0.000076   0.165460   0.194713     0.92 ( 115-> 120)    0.03 ( 116-> 120)    0.02 ( 114-> 120)
  44   4.539     273.2   0.045227   0.040109  -20.093944  -16.529948     0.30 ( 117-> 125)    0.11 ( 117-> 139)    0.10 ( 117-> 131)
  45   4.567     271.5   0.000198   0.000170   0.940764   0.789930     0.99 ( 113-> 119)    0.00 ( 113-> 122)    0.00 ( 113-> 121)
  46   4.600     269.5   0.009083   0.007833  -6.950509  -9.520548     0.33 ( 112-> 118)    0.15 (  99-> 120)    0.06 ( 103-> 120)
  47   4.608     269.1   0.345170   0.302153  -10.288534  10.985435     0.20 ( 117-> 124)    0.15 ( 117-> 127)    0.14 ( 117-> 126)
  48   4.631     267.7   0.323311   0.268281  -370.881598  -343.770165     0.11 ( 116-> 124)    0.07 ( 117-> 127)    0.06 (  99-> 120)
  49   4.638     267.3   0.057600   0.047652  290.547791  267.301631     0.18 ( 112-> 118)    0.16 (  99-> 120)    0.07 ( 105-> 118)
  50   4.658     266.2   0.095127   0.075019  151.897701  121.391894     0.32 ( 114-> 123)    0.24 ( 113-> 123)    0.08 ( 113-> 125)
  51   4.675     265.2   0.049286   0.038189  139.493469  131.243927     0.12 ( 116-> 124)    0.08 ( 117-> 124)    0.07 ( 105-> 122)
  52   4.691     264.3   0.081301   0.065247  -97.464847  -71.077910     0.29 ( 102-> 120)    0.21 ( 105-> 120)    0.09 ( 112-> 120)
  53   4.752     260.9   0.000244   0.000225   0.253588   0.250669     0.88 ( 109-> 118)    0.09 ( 112-> 118)    0.01 ( 106-> 118)
  54   4.768     260.0   0.046943   0.038030  -39.115804  -29.243652     0.31 ( 104-> 121)    0.12 ( 101-> 121)    0.11 ( 103-> 121)
  55   4.779     259.4   0.000697   0.000509  -0.515971  -0.208925     0.73 ( 114-> 121)    0.13 ( 112-> 121)    0.04 ( 115-> 121)
  56   4.876     254.3   0.162935   0.138274  49.296691  49.494964     0.23 ( 109-> 119)    0.20 ( 101-> 119)    0.15 ( 112-> 119)
  57   4.895     253.3   0.023711   0.021446  -16.806334  -15.730418     0.27 ( 117-> 126)    0.24 ( 117-> 130)    0.11 ( 117-> 124)
  58   4.934     251.3   0.006435   0.005433  -0.807780  -0.660217     0.46 ( 112-> 121)    0.19 ( 114-> 121)    0.05 ( 101-> 121)
  59   4.983     248.8   0.105199   0.087186  30.720269  30.266401     0.65 ( 109-> 119)    0.10 ( 101-> 119)    0.04 (  97-> 119)
  60   4.997     248.1   0.013354   0.011172   4.860027   5.222991     0.67 ( 112-> 120)    0.09 ( 109-> 120)    0.04 ( 105-> 120)

-----------------------------------------------------------------------------
         ABSORPTION SPECTRUM VIA TRANSITION ELECTRIC DIPOLE MOMENTS
-----------------------------------------------------------------------------
State   Energy  Wavelength   fosc         T2         TX        TY        TZ  
        (cm-1)    (nm)                  (au**2)     (au)      (au)      (au) 
-----------------------------------------------------------------------------
   0   15196.1    658.1   0.060643347   1.31379  -0.04337  -1.10352   0.30684
   1   19018.5    525.8   0.000015659   0.00027   0.00417   0.00820   0.01365
   2   19271.9    518.9   0.007556199   0.12908   0.15671   0.13785   0.29243
   3   21233.0    471.0   0.121770512   1.88802  -0.46515  -0.98536  -0.83708
   4   22229.9    449.8   0.008687402   0.12866   0.15658  -0.10938  -0.30360
   5   22430.5    445.8   0.113758375   1.66963  -0.89132   0.36083   0.86313
   6   23514.0    425.3   0.036511353   0.51118  -0.38353  -0.15877  -0.58213
   7   23690.6    422.1   0.004948298   0.06876   0.07312   0.17247   0.18349
   8   23928.8    417.9   0.001228981   0.01691   0.08431   0.01459   0.09791
   9   25037.6    399.4   0.266221206   3.50046   1.22635  -0.80516  -1.16114
  10   25567.7    391.1   0.078524844   1.01109   0.90337  -0.29033  -0.33274
  11   26407.1    378.7   0.146845674   1.83070  -0.64577  -0.85956  -0.82149
  12   27229.3    367.3   0.006601912   0.07982  -0.07611   0.16630   0.21534
  13   28000.7    357.1   0.270458395   3.17985  -0.58932  -0.40037  -1.63470
  14   28278.1    353.6   0.135624656   1.57893  -0.51683  -0.55142   1.00387
  15   28289.9    353.5   0.184542444   2.14753   1.04632  -0.23286   0.99926
  16   28492.3    351.0   0.080937164   0.93518  -0.78748   0.16206   0.53739
  17   29044.8    344.3   0.044528925   0.50472   0.65119   0.23109   0.16513
  18   30059.2    332.7   0.199642562   2.18651   0.45175  -0.34888   1.36408
  19   30196.3    331.2   0.095731716   1.04370   1.00427   0.06652   0.17529
  20   30574.4    327.1   0.220355408   2.37269   0.48880   0.07454   1.45884
  21   31141.8    321.1   0.033165892   0.35061  -0.08343   0.04630   0.58438
  22   31195.5    320.6   0.001150950   0.01215  -0.08221   0.03857   0.06245
  23   31311.1    319.4   0.079711958   0.83811   0.28289   0.20886  -0.84526
  24   31340.4    319.1   0.084815495   0.89094   0.56258  -0.14650  -0.74362
  25   32206.5    310.5   0.058692489   0.59995  -0.05407   0.16626   0.75457
  26   32413.1    308.5   0.214389487   2.17750  -1.26490   0.71404   0.26013
  27   32509.1    307.6   0.015778603   0.15979  -0.23163   0.27893   0.16833
  28   32741.8    305.4   0.730833017   7.34837   1.03363  -1.29524   2.14530
  29   32802.8    304.9   0.081050237   0.81343   0.38663  -0.44629   0.68174
  30   32968.1    303.3   0.224974363   2.24655   1.34441   0.11601   0.65241
  31   33165.8    301.5   0.026980303   0.26781   0.13872  -0.28949   0.40592
  32   33865.1    295.3   0.187413628   1.82190  -0.34720   0.66062   1.12469
  33   33887.5    295.1   0.502874931   4.88536  -1.70964  -0.44144  -1.32952
  34   34159.9    292.7   0.283496942   2.73217   0.98547   0.50502   1.22719
  35   34734.1    287.9   0.001037002   0.00983  -0.07353   0.03792  -0.05463
  36   35003.4    285.7   0.127240956   1.19672  -0.22901   0.09419   1.06555
  37   35218.3    283.9   0.028770462   0.26894   0.06467   0.27008   0.43797
  38   35400.7    282.5   0.198425095   1.84527  -1.09364   0.74831  -0.29876
  39   35463.4    282.0   0.088392815   0.82056   0.68697  -0.58391   0.08764
  40   35702.9    280.1   0.205319572   1.89323  -1.09285  -0.32034  -0.77220
  41   35739.0    279.8   0.011379862   0.10483   0.27703   0.10817   0.12798
  42   35746.0    279.8   0.102128111   0.94058   0.86958   0.10318   0.41685
  43   36473.4    274.2   0.000086097   0.00078  -0.01122   0.01881   0.01725
  44   36607.5    273.2   0.045226670   0.40672   0.06947   0.31988   0.54733
  45   36838.3    271.5   0.000198437   0.00177   0.02346  -0.00292  -0.03485
  46   37101.4    269.5   0.009082516   0.08059   0.05211   0.21176   0.18175
  47   37162.9    269.1   0.345169703   3.05772   0.28553   0.25405   1.70636
  48   37348.4    267.7   0.323311336   2.84986   0.63455   0.17371  -1.55468
  49   37405.9    267.3   0.057599718   0.50694   0.16519  -0.44464   0.53099
  50   37571.4    266.2   0.095126926   0.83353  -0.86889  -0.26897   0.07881
  51   37706.5    265.2   0.049285860   0.43031  -0.35143  -0.55382  -0.00958
  52   37834.3    264.3   0.081301435   0.70744  -0.81145   0.17052   0.14112
  53   38330.5    260.9   0.000244497   0.00210   0.00965  -0.03490  -0.02808
  54   38455.6    260.0   0.046942978   0.40187  -0.52666  -0.34679   0.06509
  55   38544.2    259.4   0.000696836   0.00595  -0.06324  -0.03862  -0.02148
  56   39324.4    254.3   0.162934733   1.36404  -0.11531  -0.44502  -1.07364
  57   39482.4    253.3   0.023710702   0.19770  -0.04684   0.08212  -0.43447
  58   39793.9    251.3   0.006435401   0.05324   0.15543  -0.08928   0.14529
  59   40193.8    248.8   0.105198825   0.86164  -0.04548  -0.36138  -0.85380
  60   40306.3    248.1   0.013353785   0.10907  -0.01650  -0.18246  -0.27478

-----------------------------------------------------------------------------
         ABSORPTION SPECTRUM VIA TRANSITION VELOCITY DIPOLE MOMENTS
-----------------------------------------------------------------------------
State   Energy  Wavelength   fosc         P2         PX        PY        PZ  
        (cm-1)    (nm)                  (au**2)     (au)      (au)      (au) 
-----------------------------------------------------------------------------
   0   15196.1    658.1   0.061797157   0.00642  -0.00304  -0.07505   0.02786
   1   19018.5    525.8   0.000021926   0.00000   0.00027   0.00080   0.00146
   2   19271.9    518.9   0.007983854   0.00105   0.01423   0.01255   0.02629
   3   21233.0    471.0   0.124849060   0.01812  -0.04257  -0.09561  -0.08465
   4   22229.9    449.8   0.008952010   0.00136   0.01640  -0.01130  -0.03104
   5   22430.5    445.8   0.119874224   0.01838  -0.09480   0.03858   0.08889
   6   23514.0    425.3   0.036133124   0.00581  -0.04246  -0.01851  -0.06051
   7   23690.6    422.1   0.005010424   0.00081   0.00749   0.01789   0.02085
   8   23928.8    417.9   0.001130802   0.00018   0.00947   0.00239   0.00946
   9   25037.6    399.4   0.257276957   0.04403   0.13764  -0.09196  -0.12893
  10   25567.7    391.1   0.077337007   0.01351   0.10296  -0.03815  -0.03819
  11   26407.1    378.7   0.133831681   0.02415  -0.07418  -0.09919  -0.09388
  12   27229.3    367.3   0.006757933   0.00126  -0.00957   0.02301   0.02523
  13   28000.7    357.1   0.254061779   0.04862  -0.07433  -0.04791  -0.20199
  14   28278.1    353.6   0.139681622   0.02700  -0.06653  -0.07170   0.13202
  15   28289.9    353.5   0.190562368   0.03684   0.13723  -0.02992   0.13083
  16   28492.3    351.0   0.079416476   0.01546  -0.10075   0.01906   0.07037
  17   29044.8    344.3   0.041582697   0.00825   0.08408   0.02760   0.02059
  18   30059.2    332.7   0.176177238   0.03619   0.06123  -0.04466   0.17450
  19   30196.3    331.2   0.097325103   0.02009   0.13959   0.00722   0.02341
  20   30574.4    327.1   0.195310468   0.04081   0.06369   0.00798   0.19155
  21   31141.8    321.1   0.028488950   0.00606  -0.00858   0.00729   0.07705
  22   31195.5    320.6   0.000932869   0.00020  -0.01067   0.00473   0.00791
  23   31311.1    319.4   0.065865491   0.01409   0.03753   0.02548  -0.10971
  24   31340.4    319.1   0.073702242   0.01579   0.07303  -0.01693  -0.10083
  25   32206.5    310.5   0.053203426   0.01171  -0.00733   0.02371   0.10533
  26   32413.1    308.5   0.202467472   0.04485  -0.18394   0.09957   0.03319
  27   32509.1    307.6   0.015774767   0.00350  -0.03290   0.03834   0.03087
  28   32741.8    305.4   0.674242984   0.15088   0.14577  -0.18419   0.30936
  29   32802.8    304.9   0.074604185   0.01673   0.05443  -0.06357   0.09860
  30   32968.1    303.3   0.205939629   0.04640   0.19457   0.01738   0.09078
  31   33165.8    301.5   0.021960011   0.00498   0.01930  -0.04179   0.05347
  32   33865.1    295.3   0.164015452   0.03796  -0.04832   0.09407   0.16364
  33   33887.5    295.1   0.444015335   0.10284  -0.24916  -0.06371  -0.19157
  34   34159.9    292.7   0.251934189   0.05882   0.14523   0.07231   0.18027
  35   34734.1    287.9   0.000891713   0.00021  -0.01060   0.00597  -0.00799
  36   35003.4    285.7   0.110182485   0.02636  -0.03144   0.01263   0.15878
  37   35218.3    283.9   0.025767480   0.00620   0.00877   0.03929   0.06769
  38   35400.7    282.5   0.171390543   0.04147  -0.16119   0.11465  -0.04838
  39   35463.4    282.0   0.076816231   0.01862   0.10346  -0.08727   0.01726
  40   35702.9    280.1   0.187718492   0.04581  -0.17154  -0.04849  -0.11844
  41   35739.0    279.8   0.009117233   0.00223   0.04001   0.01683   0.01850
  42   35746.0    279.8   0.092030803   0.02248   0.13537   0.01409   0.06292
  43   36473.4    274.2   0.000076443   0.00002  -0.00144   0.00300   0.00283
  44   36607.5    273.2   0.040109473   0.01004   0.00865   0.04964   0.08658
  45   36838.3    271.5   0.000169741   0.00004   0.00333  -0.00021  -0.00562
  46   37101.4    269.5   0.007833080   0.00199   0.00392   0.03263   0.03011
  47   37162.9    269.1   0.302152500   0.07674   0.04372   0.03712   0.27102
  48   37348.4    267.7   0.268281132   0.06848   0.09699   0.02557  -0.24170
  49   37405.9    267.3   0.047651590   0.01218   0.02865  -0.07029   0.08013
  50   37571.4    266.2   0.075018673   0.01926  -0.13132  -0.04385   0.00973
  51   37706.5    265.2   0.038189163   0.00984  -0.05381  -0.08311  -0.00622
  52   37834.3    264.3   0.065247014   0.01687  -0.12406   0.03003   0.02405
  53   38330.5    260.9   0.000225053   0.00006   0.00158  -0.00588  -0.00467
  54   38455.6    260.0   0.038030414   0.01000  -0.08272  -0.05564   0.00756
  55   38544.2    259.4   0.000508810   0.00013  -0.00929  -0.00560  -0.00405
  56   39324.4    254.3   0.138273991   0.03716  -0.01873  -0.07284  -0.17750
  57   39482.4    253.3   0.021446447   0.00579  -0.00703   0.01404  -0.07444
  58   39793.9    251.3   0.005432681   0.00148   0.02583  -0.01510   0.02414
  59   40193.8    248.8   0.087186049   0.02395  -0.00727  -0.05984  -0.14254
  60   40306.3    248.1   0.011172234   0.00308  -0.00372  -0.03085  -0.04596

-------------------------------------------------------------------
                             CD SPECTRUM
-------------------------------------------------------------------
State   Energy Wavelength       R         MX        MY        MZ   
        (cm-1)   (nm)       (1e40*cgs)   (au)      (au)      (au)  
-------------------------------------------------------------------
   0   15196.1    658.1      3.83878  -0.25772   0.35108   1.17312
   1   19018.5    525.8      0.02585  -0.02257   0.00820  -0.00605
   2   19271.9    518.9      1.87902   0.14342   0.37195  -0.27946
   3   21233.0    471.0     42.56139  -0.83754  -1.41568   2.34755
   4   22229.9    449.8     -2.35971   0.26870   0.35301  -0.02157
   5   22430.5    445.8    -34.23220  -0.95391  -2.76474   0.33898
   6   23514.0    425.3     -7.21639  -0.24936  -0.67904   0.29690
   7   23690.6    422.1     -2.06745  -0.34963   0.40634  -0.19481
   8   23928.8    417.9     -1.57002   0.03036   0.00127   0.04169
   9   25037.6    399.4     34.64249   2.02904   3.24147   0.02183
  10   25567.7    391.1    -82.21636   1.09557   2.78466  -0.50356
  11   26407.1    378.7     -5.87561  -1.01121  -1.78670   2.63406
  12   27229.3    367.3     -4.66235  -0.80346  -0.31049   0.04765
  13   28000.7    357.1    -93.12157  -0.93032  -2.62275   0.73608
  14   28278.1    353.6    669.93958   3.41193   3.66237   0.93717
  15   28289.9    353.5    -689.73386   2.53475   1.01480   0.51057
  16   28492.3    351.0      2.87305  -0.26207  -2.76988   0.42861
  17   29044.8    344.3     31.32433   0.15332  -0.75661  -0.35053
  18   30059.2    332.7    -27.73311   0.28337   2.71409   0.68657
  19   30196.3    331.2    124.86034  -0.55226  -1.08409   0.55356
  20   30574.4    327.1    -14.89245   0.23466   3.96333  -0.23783
  21   31141.8    321.1     38.85214   0.07033   2.48877  -0.46920
  22   31195.5    320.6      0.58312  -0.00751  -0.18346   0.06381
  23   31311.1    319.4    -47.12968  -0.40628  -1.28367  -0.68970
  24   31340.4    319.1     54.14697  -0.99452   0.74916  -0.59109
  25   32206.5    310.5     -0.44337   0.35716   2.15769  -0.44734
  26   32413.1    308.5     16.87916   1.40612   3.54545  -3.16993
  27   32509.1    307.6    -23.46682   0.44797   1.21498  -0.80546
  28   32741.8    305.4    -148.97059   9.26148   9.12222   1.33992
  29   32802.8    304.9    -20.00953   3.12601   3.16739   0.42519
  30   32968.1    303.3     11.47277   0.01450  -0.68851   0.01796
  31   33165.8    301.5    -42.61479   0.43574   0.49572   0.64999
  32   33865.1    295.3    317.35681  -1.14811  -1.97157  -0.39343
  33   33887.5    295.1    -197.76257  -0.81708  -3.16706   1.47122
  34   34159.9    292.7     32.43571   0.39073   2.35773  -1.39616
  35   34734.1    287.9      0.81038  -0.20851  -0.49195   0.00207
  36   35003.4    285.7    -124.36243  -0.87122   1.02973   0.21685
  37   35218.3    283.9    -19.59620   0.30852   1.87519  -1.01210
  38   35400.7    282.5     67.94172  -4.39401  -6.86287  -0.14011
  39   35463.4    282.0     80.83538   3.33232   4.53385   0.17356
  40   35702.9    280.1     69.24525  -0.06555  -0.64645   0.74136
  41   35739.0    279.8      7.05452  -0.43993   1.26139  -0.34772
  42   35746.0    279.8    -74.31911   0.46528  -1.12842   0.06506
  43   36473.4    274.2      0.16546  -0.06420  -0.03710  -0.04199
  44   36607.5    273.2    -20.09394   0.06623   1.69241  -0.84176
  45   36838.3    271.5      0.94076  -0.13244   0.07927   0.01871
  46   37101.4    269.5     -6.95051  -0.58469   0.32968  -0.05426
  47   37162.9    269.1    -10.28853   0.71559   4.22486  -0.72317
  48   37348.4    267.7    -370.88160   0.11421  -2.60662  -1.25666
  49   37405.9    267.3    290.54779   1.07523   3.53126   0.30118
  50   37571.4    266.2    151.89770   1.95775  -3.61606   1.06699
  51   37706.5    265.2    139.49347   0.25785   0.88111   1.37521
  52   37834.3    264.3    -97.46485  -1.07738  -3.24192   0.65217
  53   38330.5    260.9      0.25359   0.14098   0.04784   0.02729
  54   38455.6    260.0    -39.11580  -0.18763   0.10257   1.57770
  55   38544.2    259.4     -0.51597  -0.01262  -0.13341   0.17511
  56   39324.4    254.3     49.29669  -0.93170  -3.71404   1.83431
  57   39482.4    253.3    -16.80633  -0.25111  -1.24661  -0.37266
  58   39793.9    251.3     -0.80778  -0.16624   0.23365   0.34501
  59   40193.8    248.8     30.72027  -0.77278  -3.06643   1.49171
  60   40306.3    248.1      4.86003   0.81298  -0.49347   0.35389

sTD-DFT done

Total run time:        6.185 sec

           *** ORCA-CIS/TD-DFT FINISHED WITHOUT ERROR ***

-------------------------   --------------------
FINAL SINGLE POINT ENERGY     -4991.754395890710
-------------------------   --------------------


                            ***************************************
                            *     ORCA property calculations      *
                            ***************************************

                                    ---------------------
                                    Active property flags
                                    ---------------------
   (+) Dipole Moment


------------------------------------------------------------------------------
                       ORCA ELECTRIC PROPERTIES CALCULATION
------------------------------------------------------------------------------

Dipole Moment Calculation                       ... on
Quadrupole Moment Calculation                   ... off
Polarizability Calculation                      ... off
GBWName                                         ... xtbopt.gbw
Electron density file                           ... xtbopt.scfp
The origin for moment calculation is the CENTER OF MASS  = (16.429272, -3.975362 -10.120811)

-------------
DIPOLE MOMENT
-------------
                                X             Y             Z
Electronic contribution:    -31.42083       5.46151       1.83712
Nuclear contribution   :     33.57064      -8.30162      -0.56481
                        -----------------------------------------
Total Dipole Moment    :      2.14981      -2.84012       1.27232
                        -----------------------------------------
Magnitude (a.u.)       :      3.78243
Magnitude (Debye)      :      9.61416



--------------------
Rotational spectrum 
--------------------
 
Rotational constants in cm-1:     0.001603     0.000129     0.000125 
Rotational constants in MHz :    48.059925     3.867035     3.762358 

 Dipole components along the rotational axes: 
x,y,z [a.u.] :     1.082829    -2.250534     2.840656 
x,y,z [Debye]:     2.752332    -5.720402     7.220373 

 

Timings for individual modules:

Sum of individual times         ...     1428.458 sec (=  23.808 min)
GTO integral calculation        ...        7.628 sec (=   0.127 min)   0.5 %
SCF iterations                  ...     1413.904 sec (=  23.565 min)  99.0 %
CIS module                      ...        6.926 sec (=   0.115 min)   0.5 %
                             ****ORCA TERMINATED NORMALLY****
TOTAL RUN TIME: 0 days 0 hours 23 minutes 49 seconds 642 msec
