
                                 *****************
                                 * O   R   C   A *
                                 *****************

           --- An Ab Initio, DFT and Semiempirical electronic structure package ---

                  #######################################################
                  #                        -***-                        #
                  #          Department of theory and spectroscopy      #
                  #               Directorship: Frank Neese             #
                  #        Max Planck Institute fuer Kohlenforschung    #
                  #                Kaiser Wilhelm Platz 1               #
                  #                 D-45470 Muelheim/Ruhr               #
                  #                      Germany                        #
                  #                                                     #
                  #                  All rights reserved                #
                  #                        -***-                        #
                  #######################################################


                         Program Version 4.2.0 -  RELEASE  -


 With contributions from (in alphabetic order):
   Daniel Aravena         : Magnetic Suceptibility
   Michael Atanasov       : Ab Initio Ligand Field Theory (pilot matlab implementation)
   Alexander A. Auer      : GIAO ZORA, VPT2
   Ute Becker             : Parallelization
   Giovanni Bistoni       : ED, misc. LED, open-shell LED, HFLED
   Martin Brehm           : Molecular dynamics
   Dmytro Bykov           : SCF Hessian
   Vijay G. Chilkuri      : MRCI spin determinant printing, contributions to CSF-ICE
   Dipayan Datta          : RHF DLPNO-CCSD density
   Achintya Kumar Dutta   : EOM-CC, STEOM-CC
   Dmitry Ganyushin       : Spin-Orbit,Spin-Spin,Magnetic field MRCI
   Miquel Garcia          : C-PCM Hessian, Gaussian charge scheme
   Yang Guo               : DLPNO-NEVPT2, CIM, IAO-localization
   Andreas Hansen         : Spin unrestricted coupled pair/coupled cluster methods
   Benjamin Helmich-Paris : CASSCF linear response (MC-RPA)
   Lee Huntington         : MR-EOM, pCC
   Robert Izsak           : Overlap fitted RIJCOSX, COSX-SCS-MP3, EOM
   Christian Kollmar      : KDIIS, OOCD, Brueckner-CCSD(T), CCSD density
   Simone Kossmann        : Meta GGA functionals, TD-DFT gradient, OOMP2, MP2 Hessian
   Martin Krupicka        : AUTO-CI
   Lucas Lang             : DCDCAS
   Dagmar Lenk            : GEPOL surface, SMD
   Dimitrios Liakos       : Extrapolation schemes; Compound Job, initial MDCI parallelization
   Dimitrios Manganas     : Further ROCIS development; embedding schemes
   Dimitrios Pantazis     : SARC Basis sets
   Taras Petrenko         : DFT Hessian,TD-DFT gradient, ASA, ECA, R-Raman, ABS, FL, XAS/XES, NRVS
   Peter Pinski           : DLPNO-MP2, DLPNO-MP2 Gradient
   Christoph Reimann      : Effective Core Potentials
   Marius Retegan         : Local ZFS, SOC
   Christoph Riplinger    : Optimizer, TS searches, QM/MM, DLPNO-CCSD(T), (RO)-DLPNO pert. Triples
   Tobias Risthaus        : Range-separated hybrids, TD-DFT gradient, RPA, STAB
   Michael Roemelt        : Original ROCIS implementation
   Masaaki Saitow         : Open-shell DLPNO-CCSD energy and density
   Barbara Sandhoefer     : DKH picture change effects
   Avijit Sen             : IP-ROCIS
   Kantharuban Sivalingam : CASSCF convergence, NEVPT2, FIC-MRCI
   Bernardo de Souza      : ESD, SOC TD-DFT
   Georgi Stoychev        : AutoAux, RI-MP2 NMR
   Willem Van den Heuvel  : Paramagnetic NMR
   Boris Wezisla          : Elementary symmetry handling
   Frank Wennmohs         : Technical directorship


 We gratefully acknowledge several colleagues who have allowed us to
 interface, adapt or use parts of their codes:
   Stefan Grimme, W. Hujo, H. Kruse,             : VdW corrections, initial TS optimization,
                  C. Bannwarth                     DFT functionals, gCP, sTDA/sTD-DF
   Ed Valeev, F. Pavosevic, A. Kumar             : LibInt (2-el integral package), F12 methods
   Garnet Chan, S. Sharma, J. Yang, R. Olivares  : DMRG
   Ulf Ekstrom                                   : XCFun DFT Library
   Mihaly Kallay                                 : mrcc  (arbitrary order and MRCC methods)
   Andreas Klamt, Michael Diedenhofen            : otool_cosmo (COSMO solvation model)
   Jiri Pittner, Ondrej Demel                    : Mk-CCSD
   Frank Weinhold                                : gennbo (NPA and NBO analysis)
   Christopher J. Cramer and Donald G. Truhlar   : smd solvation model
   Lars Goerigk                                  : TD-DFT with DH, B97 family of functionals
   V. Asgeirsson, H. Jonsson                     : NEB implementation
   FAccTs GmbH                                   : IRC, NEB, NEB-TS, Multilevel, MM, QM/MM, CI optimization
   S Lehtola, MJT Oliveira, MAL Marques          : LibXC Library


 Your calculation uses the libint2 library for the computation of 2-el integrals
 For citations please refer to: http://libint.valeyev.net

 Your ORCA version has been built with support for libXC version: 4.2.3
 For citations please refer to: https://tddft.org/programs/libxc/

 This ORCA versions uses:
   CBLAS   interface :  Fast vector & matrix operations
   LAPACKE interface :  Fast linear algebra routines
   SCALAPACK package :  Parallel linear algebra routines


XCFun DFT library Copyright 2009-2010 Ulf Ekstrom and contributors.
See http://admol.org/xcfun for more information. This is free soft-
ware; see the source code for copying conditions. There is ABSOLUTELY
NO WARRANTY; not even for MERCHANTABILITY or FITNESS FOR A PARTICULAR
PURPOSE. For details see the documentation. Scientific users of this 
library should cite U. Ekstrom, L. Visscher, R. Bast, A. J. Thorvald-
sen and K. Ruud; J.Chem.Theor.Comp. 2010, DOI: 10.1021/ct100117s
XCFun Version 0.99 
----- Orbital basis set information -----
Your calculation utilizes the basis: def2-SVP
   F. Weigend and R. Ahlrichs, Phys. Chem. Chem. Phys. 7, 3297 (2005).

----- AuxJ basis set information -----
Your calculation utilizes the auxiliary basis: def2/J
   F. Weigend, Phys. Chem. Chem. Phys. 8, 1057 (2006).

================================================================================
                                        WARNINGS
                       Please study these warnings very carefully!
================================================================================

INFO   : Checking CIS options ...

WARNING: CIS/ROCIS methods need fully converged wavefunctions
  ===> : Setting SCFConvForced true
         You can overwrite this default with %scf ConvForced false 


INFO   : the flag for use of LIBINT has been found!

================================================================================
                                       INPUT FILE
================================================================================
NAME = xtbopt.inp
|  1> # ORCA input file
|  2> # SCF done       -199.255914701828          0.000789029427
|  3> ! CAM-B3LYP def2-SVP def2/J RIJCOSX Grid4 TightSCF
|  4> %maxcore 5000
|  5> %tddft
|  6>     Mode sTDDFT
|  7>     Ethresh 5.0
|  8>     maxcore 5000
|  9> end
| 10> 
| 11> %pal
| 12>   nprocs 6
| 13>   end
| 14> * xyz 0 1
| 15>    C        5.54374       -11.71264        10.39506
| 16>    C        6.64806       -12.37577         9.88906
| 17>    C        7.02722       -11.82613         8.62119
| 18>    N        8.07868       -12.31571         7.92040
| 19>    C        8.78238       -13.31135         8.40918
| 20>    C        8.48180       -13.89090         9.65034
| 21>    C        7.41623       -13.44555        10.39245
| 22>    C        6.22195       -10.76734         8.21215
| 23>    S        5.00254       -10.45305         9.38229
| 24>    C        6.55369       -10.02651         7.03288
| 25>    C        6.08662        -8.77559         6.64447
| 26>    C        5.01297        -7.95321         7.21006
| 27>    O        4.30297        -8.18490         8.16301
| 28>    N        4.94705        -6.80386         6.42140
| 29>    C        5.91851        -6.80719         5.40692
| 30>    O        6.09579        -5.93497         4.60019
| 31>    C        6.65221        -8.08830         5.56216
| 32>    C        7.74007        -8.57429         4.86706
| 33>    C        8.20932        -9.83832         5.24512
| 34>    C        7.58539       -10.56126         6.24233
| 35>    C        7.99917       -11.99914         6.35930
| 36>    O        7.34438       -12.88495         5.81400
| 37>    S        9.87349       -11.85610         5.71622
| 38>    C        9.46141       -10.45350         4.72941
| 39>    O       10.14497       -10.02397         3.84292
| 40>    C        3.97637        -5.83478         6.66710
| 41>    C        3.77771        -4.73393         5.93510
| 42>    C        2.73531        -3.75691         6.17400
| 43>    C        2.00594        -3.69670         7.34083
| 44>    C        0.97706        -2.74632         7.47764
| 45>    C        0.09474        -2.50542         8.52789
| 46>    C        0.08566        -3.18446         9.85282
| 47>    C        0.25520        -2.16946        11.00351
| 48>    N        0.86629        -2.83039        12.14182
| 49>    C       -1.17564        -4.04969        10.02661
| 50>    N       -1.12602        -5.14873         9.08058
| 51>    C       -0.79347        -1.45229         8.09221
| 52>    C       -1.86477        -0.88001         8.67564
| 53>    C       -2.62831         0.21215         8.00938
| 54>    C       -2.11112         0.61516         6.66696
| 55>    C       -1.05966         0.00892         6.08131
| 56>    C       -0.38053        -1.03892         6.74333
| 57>    C        0.69248        -1.83747         6.38008
| 58>    C        1.47683        -1.89689         5.20895
| 59>    C        2.46681        -2.82487         5.12123
| 60>    C       -2.62164         1.37475         8.96836
| 61>    C       -3.71534         1.93386         9.47121
| 62>    C       -3.67017         2.98949        10.47380
| 63>    C       -2.89527         2.87665        11.62951
| 64>    C       -2.09189         1.74636        12.12814
| 65>    O       -1.90003         0.64959        11.65624
| 66>    N       -1.56879         2.16099        13.36056
| 67>    C       -1.98452         3.44958        13.70963
| 68>    O       -1.68351         4.04425        14.71398
| 69>    C       -2.85720         3.89066        12.60088
| 70>    C       -3.58135         5.05994        12.47335
| 71>    C       -4.37264         5.17546        11.33519
| 72>    C       -4.42376         4.16886        10.36272
| 73>    C       -5.30532         4.46519         9.22903
| 74>    O       -5.52061         3.79252         8.26059
| 75>    S       -6.07060         6.07201         9.49237
| 76>    C       -5.21906         6.34330        11.05586
| 77>    O       -5.35825         7.32863        11.71803
| 78>    C       -0.75231         1.30998        14.09398
| 79>    C       -0.22995         1.57295        15.30050
| 80>    C        0.60051         0.66395        16.01432
| 81>    C        1.16207         0.84582        17.27547
| 82>    C        1.94833        -0.28454        17.70098
| 83>    N        2.58612        -0.33534        18.89263
| 84>    C        2.46565         0.69753        19.66870
| 85>    C        1.71953         1.86140        19.35356
| 86>    C        1.06523         1.94282        18.15847
| 87>    C        1.96887        -1.29207        16.76123
| 88>    S        1.05244        -0.88939        15.38266
| 89>    H        5.04126       -11.91357        11.32023
| 90>    H        9.59533       -13.66601         7.79260
| 91>    H        9.09862       -14.70171        10.00200
| 92>    H        7.16032       -13.89767        11.33817
| 93>    H        8.21974        -8.01658         4.07864
| 94>    H        3.36781        -6.09599         7.52241
| 95>    H        4.40343        -4.55345         5.07373
| 96>    H        2.20811        -4.37350         8.15542
| 97>    H        0.94243        -3.86138         9.90295
| 98>    H       -0.70979        -1.69445        11.23327
| 99>    H        0.94242        -1.38417        10.67594
|100>    H        0.23010        -3.50486        12.55186
|101>    H        1.11611        -2.16009        12.85933
|102>    H       -2.07257        -3.41729         9.91886
|103>    H       -1.18297        -4.48372        11.03010
|104>    H       -1.12207        -4.79414         8.12969
|105>    H       -1.92763        -5.75887         9.19015
|106>    H       -2.19880        -1.14246         9.66778
|107>    H       -3.67310        -0.11250         7.89316
|108>    H       -2.63863         1.42327         6.18420
|109>    H       -0.72276         0.31510         5.10161
|110>    H        1.28276        -1.21169         4.39715
|111>    H        3.07295        -2.88539         4.22921
|112>    H       -1.63872         1.72597         9.24787
|113>    H       -4.70007         1.63934         9.13451
|114>    H       -3.55133         5.83985        13.21727
|115>    H       -0.57288         0.37326        13.58143
|116>    H       -0.43309         2.51653        15.78340
|117>    H        2.98369         0.63516        20.61723
|118>    H        1.67917         2.67001        20.06636
|119>    H        0.48827         2.81477        17.88740
|120>    H        2.47436        -2.23384        16.82126
|121> *
|122> 
|123>                          ****END OF INPUT****
================================================================================

                       ****************************
                       * Single Point Calculation *
                       ****************************

---------------------------------
CARTESIAN COORDINATES (ANGSTROEM)
---------------------------------
  C      5.543740  -11.712640   10.395060
  C      6.648060  -12.375770    9.889060
  C      7.027220  -11.826130    8.621190
  N      8.078680  -12.315710    7.920400
  C      8.782380  -13.311350    8.409180
  C      8.481800  -13.890900    9.650340
  C      7.416230  -13.445550   10.392450
  C      6.221950  -10.767340    8.212150
  S      5.002540  -10.453050    9.382290
  C      6.553690  -10.026510    7.032880
  C      6.086620   -8.775590    6.644470
  C      5.012970   -7.953210    7.210060
  O      4.302970   -8.184900    8.163010
  N      4.947050   -6.803860    6.421400
  C      5.918510   -6.807190    5.406920
  O      6.095790   -5.934970    4.600190
  C      6.652210   -8.088300    5.562160
  C      7.740070   -8.574290    4.867060
  C      8.209320   -9.838320    5.245120
  C      7.585390  -10.561260    6.242330
  C      7.999170  -11.999140    6.359300
  O      7.344380  -12.884950    5.814000
  S      9.873490  -11.856100    5.716220
  C      9.461410  -10.453500    4.729410
  O     10.144970  -10.023970    3.842920
  C      3.976370   -5.834780    6.667100
  C      3.777710   -4.733930    5.935100
  C      2.735310   -3.756910    6.174000
  C      2.005940   -3.696700    7.340830
  C      0.977060   -2.746320    7.477640
  C      0.094740   -2.505420    8.527890
  C      0.085660   -3.184460    9.852820
  C      0.255200   -2.169460   11.003510
  N      0.866290   -2.830390   12.141820
  C     -1.175640   -4.049690   10.026610
  N     -1.126020   -5.148730    9.080580
  C     -0.793470   -1.452290    8.092210
  C     -1.864770   -0.880010    8.675640
  C     -2.628310    0.212150    8.009380
  C     -2.111120    0.615160    6.666960
  C     -1.059660    0.008920    6.081310
  C     -0.380530   -1.038920    6.743330
  C      0.692480   -1.837470    6.380080
  C      1.476830   -1.896890    5.208950
  C      2.466810   -2.824870    5.121230
  C     -2.621640    1.374750    8.968360
  C     -3.715340    1.933860    9.471210
  C     -3.670170    2.989490   10.473800
  C     -2.895270    2.876650   11.629510
  C     -2.091890    1.746360   12.128140
  O     -1.900030    0.649590   11.656240
  N     -1.568790    2.160990   13.360560
  C     -1.984520    3.449580   13.709630
  O     -1.683510    4.044250   14.713980
  C     -2.857200    3.890660   12.600880
  C     -3.581350    5.059940   12.473350
  C     -4.372640    5.175460   11.335190
  C     -4.423760    4.168860   10.362720
  C     -5.305320    4.465190    9.229030
  O     -5.520610    3.792520    8.260590
  S     -6.070600    6.072010    9.492370
  C     -5.219060    6.343300   11.055860
  O     -5.358250    7.328630   11.718030
  C     -0.752310    1.309980   14.093980
  C     -0.229950    1.572950   15.300500
  C      0.600510    0.663950   16.014320
  C      1.162070    0.845820   17.275470
  C      1.948330   -0.284540   17.700980
  N      2.586120   -0.335340   18.892630
  C      2.465650    0.697530   19.668700
  C      1.719530    1.861400   19.353560
  C      1.065230    1.942820   18.158470
  C      1.968870   -1.292070   16.761230
  S      1.052440   -0.889390   15.382660
  H      5.041260  -11.913570   11.320230
  H      9.595330  -13.666010    7.792600
  H      9.098620  -14.701710   10.002000
  H      7.160320  -13.897670   11.338170
  H      8.219740   -8.016580    4.078640
  H      3.367810   -6.095990    7.522410
  H      4.403430   -4.553450    5.073730
  H      2.208110   -4.373500    8.155420
  H      0.942430   -3.861380    9.902950
  H     -0.709790   -1.694450   11.233270
  H      0.942420   -1.384170   10.675940
  H      0.230100   -3.504860   12.551860
  H      1.116110   -2.160090   12.859330
  H     -2.072570   -3.417290    9.918860
  H     -1.182970   -4.483720   11.030100
  H     -1.122070   -4.794140    8.129690
  H     -1.927630   -5.758870    9.190150
  H     -2.198800   -1.142460    9.667780
  H     -3.673100   -0.112500    7.893160
  H     -2.638630    1.423270    6.184200
  H     -0.722760    0.315100    5.101610
  H      1.282760   -1.211690    4.397150
  H      3.072950   -2.885390    4.229210
  H     -1.638720    1.725970    9.247870
  H     -4.700070    1.639340    9.134510
  H     -3.551330    5.839850   13.217270
  H     -0.572880    0.373260   13.581430
  H     -0.433090    2.516530   15.783400
  H      2.983690    0.635160   20.617230
  H      1.679170    2.670010   20.066360
  H      0.488270    2.814770   17.887400
  H      2.474360   -2.233840   16.821260

----------------------------
CARTESIAN COORDINATES (A.U.)
----------------------------
  NO LB      ZA    FRAG     MASS         X           Y           Z
   0 C     6.0000    0    12.011   10.476150  -22.133682   19.643817
   1 C     6.0000    0    12.011   12.563013  -23.386816   18.687615
   2 C     6.0000    0    12.011   13.279521  -22.348147   16.291688
   3 N     7.0000    0    14.007   15.266493  -23.273319   14.967387
   4 C     6.0000    0    12.011   16.596293  -25.154806   15.891047
   5 C     6.0000    0    12.011   16.028279  -26.249997   18.236500
   6 C     6.0000    0    12.011   14.014644  -25.408407   19.638884
   7 C     6.0000    0    12.011   11.757782  -20.347324   15.518714
   8 S    16.0000    0    32.060    9.453431  -19.753402   17.729959
   9 C     6.0000    0    12.011   12.384679  -18.947358   13.290217
  10 C     6.0000    0    12.011   11.502045  -16.583462   12.556229
  11 C     6.0000    0    12.011    9.473140  -15.029389   13.625039
  12 O     8.0000    0    15.999    8.131435  -15.467219   15.425853
  13 N     7.0000    0    14.007    9.348570  -12.857432   12.134687
  14 C     6.0000    0    12.011   11.184363  -12.863725   10.217598
  15 O     8.0000    0    15.999   11.519374  -11.215468    8.693099
  16 C     6.0000    0    12.011   12.570855  -15.284672   10.510959
  17 C     6.0000    0    12.011   14.626613  -16.203060    9.197410
  18 C     6.0000    0    12.011   15.513367  -18.591730    9.911840
  19 C     6.0000    0    12.011   14.334310  -19.957889   11.796294
  20 C     6.0000    0    12.011   15.116241  -22.675088   12.017335
  21 O     8.0000    0    15.999   13.878867  -24.349027   10.986868
  22 S    16.0000    0    32.060   18.658192  -22.404782   10.802090
  23 C     6.0000    0    12.011   17.879474  -19.754252    8.937290
  24 O     8.0000    0    15.999   19.171215  -18.942558    7.262066
  25 C     6.0000    0    12.011    7.514250  -11.026136   12.598993
  26 C     6.0000    0    12.011    7.138837   -8.945831   11.215714
  27 C     6.0000    0    12.011    5.168987   -7.099531   11.667169
  28 C     6.0000    0    12.011    3.790677   -6.985751   13.872158
  29 C     6.0000    0    12.011    1.846376   -5.189793   14.130692
  30 C     6.0000    0    12.011    0.179033   -4.734558   16.115377
  31 C     6.0000    0    12.011    0.161874   -6.017757   18.619131
  32 C     6.0000    0    12.011    0.482258   -4.099685   20.793620
  33 N     7.0000    0    14.007    1.637051   -5.348662   22.944715
  34 C     6.0000    0    12.011   -2.221638   -7.652805   18.947547
  35 N     7.0000    0    14.007   -2.127869   -9.729690   17.159809
  36 C     6.0000    0    12.011   -1.499441   -2.744430   15.292061
  37 C     6.0000    0    12.011   -3.523905   -1.662978   16.394584
  38 C     6.0000    0    12.011   -4.966786    0.400905   15.135535
  39 C     6.0000    0    12.011   -3.989439    1.162484   12.598729
  40 C     6.0000    0    12.011   -2.002467    0.016856   11.492010
  41 C     6.0000    0    12.011   -0.719097   -1.963274   12.743047
  42 C     6.0000    0    12.011    1.308598   -3.472315   12.056604
  43 C     6.0000    0    12.011    2.790804   -3.584603    9.843489
  44 C     6.0000    0    12.011    4.661595   -5.338231    9.677722
  45 C     6.0000    0    12.011   -4.954182    2.597901   16.947744
  46 C     6.0000    0    12.011   -7.020975    3.654466   17.897993
  47 C     6.0000    0    12.011   -6.935616    5.649317   19.792614
  48 C     6.0000    0    12.011   -5.471267    5.436081   21.976589
  49 C     6.0000    0    12.011   -3.953099    3.300142   22.918863
  50 O     8.0000    0    15.999   -3.590536    1.227547   22.027101
  51 N     7.0000    0    14.007   -2.964583    4.083679   25.247799
  52 C     6.0000    0    12.011   -3.750199    6.518761   25.907446
  53 O     8.0000    0    15.999   -3.181373    7.642525   27.805393
  54 C     6.0000    0    12.011   -5.399326    7.352282   23.812212
  55 C     6.0000    0    12.011   -6.767771    9.561901   23.571215
  56 C     6.0000    0    12.011   -8.263092    9.780202   21.420405
  57 C     6.0000    0    12.011   -8.359695    7.878004   19.582703
  58 C     6.0000    0    12.011  -10.025602    8.437986   17.440339
  59 O     8.0000    0    15.999  -10.432441    7.166824   15.610253
  60 S    16.0000    0    32.060  -11.471771   11.474436   17.937980
  61 C     6.0000    0    12.011   -9.862594   11.987100   20.892548
  62 O     8.0000    0    15.999  -10.125625   13.849104   22.143868
  63 C     6.0000    0    12.011   -1.421660    2.475503   26.633762
  64 C     6.0000    0    12.011   -0.434543    2.972445   28.913755
  65 C     6.0000    0    12.011    1.134799    1.254684   30.262679
  66 C     6.0000    0    12.011    2.195994    1.598368   32.645907
  67 C     6.0000    0    12.011    3.681810   -0.537703   33.450005
  68 N     7.0000    0    14.007    4.887059   -0.633701   35.701897
  69 C     6.0000    0    12.011    4.659403    1.318141   37.168456
  70 C     6.0000    0    12.011    3.249441    3.517536   36.572928
  71 C     6.0000    0    12.011    2.012993    3.671398   34.314535
  72 C     6.0000    0    12.011    3.720625   -2.441658   31.674134
  73 S    16.0000    0    32.060    1.988823   -1.680704   29.069015
  74 H     1.0000    0     1.008    9.526601  -22.513385   21.392134
  75 H     1.0000    0     1.008   18.132546  -25.825016   14.725880
  76 H     1.0000    0     1.008   17.193900  -27.782206   18.901041
  77 H     1.0000    0     1.008   13.531044  -26.262790   21.426036
  78 H     1.0000    0     1.008   15.533057  -15.149141    7.707513
  79 H     1.0000    0     1.008    6.364239  -11.519752   14.215295
  80 H     1.0000    0     1.008    8.321277   -8.604773    9.587960
  81 H     1.0000    0     1.008    4.172723   -8.264717   15.411510
  82 H     1.0000    0     1.008    1.780935   -7.296951   18.713863
  83 H     1.0000    0     1.008   -1.341309   -3.202046   21.227804
  84 H     1.0000    0     1.008    1.780916   -2.615702   20.174603
  85 H     1.0000    0     1.008    0.434826   -6.623226   23.719578
  86 H     1.0000    0     1.008    2.109142   -4.081979   24.300612
  87 H     1.0000    0     1.008   -3.916590   -6.457742   18.743929
  88 H     1.0000    0     1.008   -2.235489   -8.473003   20.843868
  89 H     1.0000    0     1.008   -2.120405   -9.059612   15.362888
  90 H     1.0000    0     1.008   -3.642693  -10.882687   17.366867
  91 H     1.0000    0     1.008   -4.155130   -2.158937   18.269457
  92 H     1.0000    0     1.008   -6.941153   -0.212594   14.915911
  93 H     1.0000    0     1.008   -4.986288    2.689591   11.686444
  94 H     1.0000    0     1.008   -1.365818    0.595453    9.640646
  95 H     1.0000    0     1.008    2.424065   -2.289762    8.309409
  96 H     1.0000    0     1.008    5.807034   -5.452597    7.992049
  97 H     1.0000    0     1.008   -3.096732    3.261611   17.475942
  98 H     1.0000    0     1.008   -8.881845    3.097904   17.261722
  99 H     1.0000    0     1.008   -6.711041   11.035717   24.977021
 100 H     1.0000    0     1.008   -1.082586    0.705359   25.665183
 101 H     1.0000    0     1.008   -0.818421    4.755553   29.826303
 102 H     1.0000    0     1.008    5.638357    1.200278   38.960918
 103 H     1.0000    0     1.008    3.173171    5.045588   37.919925
 104 H     1.0000    0     1.008    0.922697    5.319144   33.802287
 105 H     1.0000    0     1.008    4.675863   -4.221346   31.787575

--------------------------------
INTERNAL COORDINATES (ANGSTROEM)
--------------------------------
 C      0   0   0     0.000000000000     0.00000000     0.00000000
 C      1   0   0     1.383943661895     0.00000000     0.00000000
 C      2   1   0     1.432955258234   110.53908191     0.00000000
 N      3   2   1     1.355124840042   121.62065541   180.44536157
 C      4   3   2     1.313544284750   119.80756184   359.44314168
 C      5   4   3     1.402392485897   121.85313522   359.79964488
 C      6   5   4     1.372772122204   120.71329798     1.11033626
 C      3   2   1     1.391693126591   113.50118309     0.65728847
 S      1   2   3     1.704455185976   112.96792660   359.07544371
 C      8   3   2     1.431627832015   120.11357759   173.74803268
 C     10   8   3     1.390617689877   128.15083447   196.89911731
 C     11  10   8     1.465921292225   130.00641186   350.65217395
 O     12  11  10     1.210741078266   128.74223043     1.04450686
 N     12  11  10     1.395469621489   106.17671110   181.12402877
 C     14  12  11     1.404605030213   111.93549659   358.61747998
 O     15  14  12     1.201253187176   125.83083456   181.07364179
 C     11  10   8     1.401304580846   121.42322768   170.31090152
 C     17  11  10     1.379416423601   122.32407986   356.59668880
 C     18  17  11     1.400320237303   116.50357986     3.74630039
 C     19  18  17     1.380709481607   121.07785552     1.46147349
 C     20  19  18     1.500798042276   115.68040011   167.84466109
 O     21  20  19     1.229130338980   120.59816133   264.29752428
 S     21  20  19     1.986727910510    99.54952972    29.99644268
 C     19  18  17     1.487323974324   124.18377161   187.69994953
 O     24  19  18     1.199005760870   126.02418155   351.90447261
 C     14  12  11     1.393450465140   120.40115822   177.23282135
 C     26  14  12     1.336847230651   125.42611679   183.67973004
 C     27  26  14     1.448529961858   124.89355646   177.76914870
 C     28  27  26     1.377351839546   123.38602605    14.19184305
 C     29  28  27     1.407314170646   119.93541737   182.22520912
 C     30  29  28     1.392676004999   130.79120546   178.60730387
 C     31  30  29     1.488830840929   126.58935245     3.94564106
 C     32  31  30     1.543715092788   111.27183410   121.41750381
 N     33  32  31     1.451209533148   109.35870511   207.06174299
 C     32  31  30     1.539384164853   111.21171557   247.09422636
 N     35  32  31     1.450973406683   108.91145307    66.46011672
 C     31  30  29     1.444927978620   106.74611770   182.89683875
 C     37  31  30     1.347434099799   131.89218851   176.25549648
 C     38  37  31     1.489868848188   121.67991743   179.90060047
 C     39  38  37     1.493985947926   114.97088965   359.75623083
 C     40  39  38     1.347620492461   122.63212458     2.05341921
 C     41  40  39     1.413314085014   120.32368392   358.90740019
 C     42  41  40     1.385995355367   132.56388423   178.80457734
 C     43  42  41     1.410773240390   132.24138950   359.03809058
 C     44  43  42     1.359743387261   119.14892113   181.55399464
 C     39  38  37     1.507091864917   106.18098430   236.31524458
 C     46  39  38     1.327268550294   124.22096291   239.33992912
 C     47  46  39     1.456565046230   122.71909181   175.18796287
 C     48  47  46     1.396018796328   121.90218572   310.45618438
 C     49  48  47     1.473637263848   130.14535768   355.32359510
 O     50  49  48     1.209299095551   130.54823679     0.62749795
 N     50  49  48     1.401574365954   105.90804201   182.40791948
 C     52  50  49     1.398265170095   112.40661763     1.07109306
 O     53  52  50     1.205387220564   126.04422346   179.92252995
 C     49  48  47     1.404715373982   121.94919973   180.38790610
 C     55  49  48     1.381257702893   122.21006697   359.95764471
 C     56  55  49     1.391004284717   116.36485213     0.95128312
 C     57  56  55     1.400555145398   121.95207169   359.35360332
 C     58  57  56     1.466360296312   114.42631464   180.29769626
 O     59  58  57     1.198628694217   128.25982367   179.06788250
 S     59  58  57     1.799130886400   108.84704380   359.15181513
 C     57  56  55     1.469116173385   123.32150245   179.07251272
 O     62  57  56     1.195289995733   128.10123505     0.13400644
 C     52  50  49     1.388798944016   120.16584766   180.18248372
 C     64  52  50     1.340784733244   125.73758149   182.35083218
 C     65  64  52     1.423194928321   123.60060551   179.84209324
 C     66  65  64     1.392453106212   127.31310940   181.25461716
 C     67  66  65     1.441172188637   112.64315629   179.75953647
 N     68  67  66     1.352548130974   123.15118002   180.17740003
 C     69  68  67     1.297543102444   116.95424100     0.00000000
 C     70  69  68     1.417956857912   124.70174543   359.96606460
 C     71  70  69     1.364909452858   119.72273941     0.00000000
 C     68  67  66     1.377921860992   112.35039511     0.08405147
 S     73  68  67     1.703657938731   111.77862292   359.89656528
 H      1   2   3     1.071820201433   126.85969898   179.61077360
 H      5   4   3     1.080204755822   116.08140147   178.91134715
 H      6   5   4     1.077749750220   118.49035196   180.34318990
 H      7   6   5     1.079022122526   121.46438872   178.57104859
 H     18  17  11     1.078299517481   122.48222122   184.34828877
 H     26  14  12     1.081725997561   111.30788426     1.98112911
 H     27  26  14     1.079841111321   119.22878517     0.17832133
 H     29  28  27     1.078187282897   120.88427408     1.92065022
 H     32  31  30     1.093063829884   108.57120375     4.31358131
 H     33  32  31     1.099831740677   110.07982801    81.43944848
 H     33  32  31     1.093733887836   108.53248183   323.81648529
 H     34  33  32     1.013794998311   110.85487914   291.48240387
 H     34  33  32     1.013179511488   110.97782589   171.51090735
 H     35  32  31     1.102734441015   109.45534439   301.86599078
 H     35  32  31     1.093356277661   109.40428694   183.49911088
 H     36  35  32     1.014860316842   110.26610384   298.07174077
 H     36  35  32     1.013338539976   111.00908717   177.98988356
 H     38  37  31     1.079257996496   122.74039304     2.96343525
 H     39  38  37     1.100223093286   108.51769036   121.12843032
 H     40  39  38     1.079057825049   115.77179150   181.57129631
 H     41  40  39     1.080305462543   120.65926863   178.93832893
 H     44  43  42     1.079898812343   119.82834430     1.34405361
 H     45  44  43     1.080170380264   120.00443949   179.73632476
 H     46  39  38     1.080561453551   114.79414688    58.12119378
 H     47  46  39     1.081573896366   121.17072667   353.72927441
 H     56  55  49     1.078228999285   122.27745690   180.13103385
 H     64  52  50     1.082749733687   112.18260505     2.07999668
 H     65  64  52     1.079259693494   120.05131441   359.92200604
 H     70  69  68     1.082573147367   115.70646187   179.96879605
 H     71  70  69     1.078685728885   119.21727961   179.99808188
 H     72  71  70     1.080119710495   121.59807197   179.99850268
 H     73  68  67     1.070539337857   127.73710215   179.87412377

---------------------------
INTERNAL COORDINATES (A.U.)
---------------------------
 C      0   0   0     0.000000000000     0.00000000     0.00000000
 C      1   0   0     2.615274505758     0.00000000     0.00000000
 C      2   1   0     2.707893000224   110.53908191     0.00000000
 N      3   2   1     2.560814824954   121.62065541   180.44536157
 C      4   3   2     2.482238962955   119.80756184   359.44314168
 C      5   4   3     2.650137730614   121.85313522   359.79964488
 C      6   5   4     2.594163355247   120.71329798     1.11033626
 C      3   2   1     2.629918871717   113.50118309     0.65728847
 S      1   2   3     3.220953509036   112.96792660   359.07544371
 C      8   3   2     2.705384528208   120.11357759   173.74803268
 C     10   8   3     2.627886590855   128.15083447   196.89911731
 C     11  10   8     2.770189776190   130.00641186   350.65217395
 O     12  11  10     2.287969057011   128.74223043     1.04450686
 N     12  11  10     2.637055412822   106.17671110   181.12402877
 C     14  12  11     2.654318833431   111.93549659   358.61747998
 O     15  14  12     2.270039541262   125.83083456   181.07364179
 C     11  10   8     2.648081888008   121.42322768   170.31090152
 C     17  11  10     2.606719265239   122.32407986   356.59668880
 C     18  17  11     2.646221748290   116.50357986     3.74630039
 C     19  18  17     2.609162790746   121.07785552     1.46147349
 C     20  19  18     2.836097282227   115.68040011   167.84466109
 O     21  20  19     2.322719723565   120.59816133   264.29752428
 S     21  20  19     3.754371653482    99.54952972    29.99644268
 C     19  18  17     2.810634983888   124.18377161   187.69994953
 O     24  19  18     2.265792521039   126.02418155   351.90447261
 C     14  12  11     2.633239760301   120.40115822   177.23282135
 C     26  14  12     2.526275148822   125.42611679   183.67973004
 C     27  26  14     2.737324924691   124.89355646   177.76914870
 C     28  27  26     2.602817766794   123.38602605    14.19184305
 C     29  28  27     2.659438366907   119.93541737   182.22520912
 C     30  29  28     2.631776242732   130.79120546   178.60730387
 C     31  30  29     2.813482549091   126.58935245     3.94564106
 C     32  31  30     2.917198754169   111.27183410   121.41750381
 N     33  32  31     2.742388580586   109.35870511   207.06174299
 C     32  31  30     2.909014486467   111.21171557   247.09422636
 N     35  32  31     2.741942366233   108.91145307    66.46011672
 C     31  30  29     2.730518162833   106.74611770   182.89683875
 C     37  31  30     2.546281432126   131.89218851   176.25549648
 C     38  37  31     2.815444098535   121.67991743   179.90060047
 C     39  38  37     2.823224289507   114.97088965   359.75623083
 C     40  39  38     2.546633663211   122.63212458     2.05341921
 C     41  40  39     2.670776561891   120.32368392   358.90740019
 C     42  41  40     2.619151644531   132.56388423   178.80457734
 C     43  42  41     2.665975061401   132.24138950   359.03809058
 C     44  43  42     2.569542614334   119.14892113   181.55399464
 C     39  38  37     2.847990883354   106.18098430   236.31524458
 C     46  39  38     2.508174066223   124.22096291   239.33992912
 C     47  46  39     2.752509033618   122.71909181   175.18796287
 C     48  47  46     2.638093202866   121.90218572   310.45618438
 C     49  48  47     2.784770849413   130.14535768   355.32359510
 O     50  49  48     2.285244104590   130.54823679     0.62749795
 N     50  49  48     2.648591707978   105.90804201   182.40791948
 C     52  50  49     2.642338234080   112.40661763     1.07109306
 O     53  52  50     2.277851732195   126.04422346   179.92252995
 C     49  48  47     2.654527352934   121.94919973   180.38790610
 C     55  49  48     2.610198778836   122.21006697   359.95764471
 C     56  55  49     2.628617149225   116.36485213     0.95128312
 C     57  56  55     2.646665660256   121.95207169   359.35360332
 C     58  57  56     2.771019373685   114.42631464   180.29769626
 O     59  58  57     2.265079968329   128.25982367   179.06788250
 S     59  58  57     3.399864654376   108.84704380   359.15181513
 C     57  56  55     2.776227226611   123.32150245   179.07251272
 O     62  57  56     2.258770742552   128.10123505     0.13400644
 C     52  50  49     2.624449659269   120.16584766   180.18248372
 C     64  52  50     2.533715950374   125.73758149   182.35083218
 C     65  64  52     2.689448649713   123.60060551   179.84209324
 C     66  65  64     2.631355025069   127.31310940   181.25461716
 C     67  66  65     2.723420748347   112.64315629   179.75953647
 N     68  67  66     2.555945550487   123.15118002   180.17740003
 C     69  68  67     2.452001110578   116.95424100     0.00000000
 C     70  69  68     2.679550131169   124.70174543   359.96606460
 C     71  70  69     2.579305063501   119.72273941     0.00000000
 C     68  67  66     2.603894951218   112.35039511     0.08405147
 S     73  68  67     3.219446930082   111.77862292   359.89656528
 H      1   2   3     2.025446645513   126.85969898   179.61077360
 H      5   4   3     2.041291157062   116.08140147   178.91134715
 H      6   5   4     2.036651868818   118.49035196   180.34318990
 H      7   6   5     2.039056304016   121.46438872   178.57104859
 H     18  17  11     2.037690778379   122.48222122   184.34828877
 H     26  14  12     2.044165887334   111.30788426     1.98112911
 H     27  26  14     2.040603968547   119.22878517     0.17832133
 H     29  28  27     2.037478685751   120.88427408     1.92065022
 H     32  31  30     2.065591285375   108.57120375     4.31358131
 H     33  32  31     2.078380783273   110.07982801    81.43944848
 H     33  32  31     2.066857511398   108.53248183   323.81648529
 H     34  33  32     1.915794902747   110.85487914   291.48240387
 H     34  33  32     1.914631801213   110.97782589   171.51090735
 H     35  32  31     2.083866091961   109.45534439   301.86599078
 H     35  32  31     2.066143931582   109.40428694   183.49911088
 H     36  35  32     1.917808063015   110.26610384   298.07174077
 H     36  35  32     1.914932321502   111.00908717   177.98988356
 H     38  37  31     2.039502041221   122.74039304     2.96343525
 H     39  38  37     2.079120332526   108.51769036   121.12843032
 H     40  39  38     2.039123772008   115.77179150   181.57129631
 H     41  40  39     2.041481465185   120.65926863   178.93832893
 H     44  43  42     2.040713007675   119.82834430     1.34405361
 H     45  44  43     2.041226196673   120.00443949   179.73632476
 H     46  39  38     2.041965218083   114.79414688    58.12119378
 H     47  46  39     2.043878457730   121.17072667   353.72927441
 H     56  55  49     2.037557518301   122.27745690   180.13103385
 H     64  52  50     2.046100468245   112.18260505     2.07999668
 H     65  64  52     2.039505248083   120.05131441   359.92200604
 H     70  69  68     2.045766768461   115.70646187   179.96879605
 H     71  70  69     2.038420612162   119.21727961   179.99808188
 H     72  71  70     2.041130444686   121.59807197   179.99850268
 H     73  68  67     2.023026164140   127.73710215   179.87412377

---------------------
BASIS SET INFORMATION
---------------------
There are 5 groups of distinct atoms

 Group   1 Type C   : 7s4p1d contracted to 3s2p1d pattern {511/31/1}
 Group   2 Type N   : 7s4p1d contracted to 3s2p1d pattern {511/31/1}
 Group   3 Type S   : 10s7p1d contracted to 4s3p1d pattern {5311/511/1}
 Group   4 Type O   : 7s4p1d contracted to 3s2p1d pattern {511/31/1}
 Group   5 Type H   : 4s1p contracted to 2s1p pattern {31/1}

Atom   0C    basis set group =>   1
Atom   1C    basis set group =>   1
Atom   2C    basis set group =>   1
Atom   3N    basis set group =>   2
Atom   4C    basis set group =>   1
Atom   5C    basis set group =>   1
Atom   6C    basis set group =>   1
Atom   7C    basis set group =>   1
Atom   8S    basis set group =>   3
Atom   9C    basis set group =>   1
Atom  10C    basis set group =>   1
Atom  11C    basis set group =>   1
Atom  12O    basis set group =>   4
Atom  13N    basis set group =>   2
Atom  14C    basis set group =>   1
Atom  15O    basis set group =>   4
Atom  16C    basis set group =>   1
Atom  17C    basis set group =>   1
Atom  18C    basis set group =>   1
Atom  19C    basis set group =>   1
Atom  20C    basis set group =>   1
Atom  21O    basis set group =>   4
Atom  22S    basis set group =>   3
Atom  23C    basis set group =>   1
Atom  24O    basis set group =>   4
Atom  25C    basis set group =>   1
Atom  26C    basis set group =>   1
Atom  27C    basis set group =>   1
Atom  28C    basis set group =>   1
Atom  29C    basis set group =>   1
Atom  30C    basis set group =>   1
Atom  31C    basis set group =>   1
Atom  32C    basis set group =>   1
Atom  33N    basis set group =>   2
Atom  34C    basis set group =>   1
Atom  35N    basis set group =>   2
Atom  36C    basis set group =>   1
Atom  37C    basis set group =>   1
Atom  38C    basis set group =>   1
Atom  39C    basis set group =>   1
Atom  40C    basis set group =>   1
Atom  41C    basis set group =>   1
Atom  42C    basis set group =>   1
Atom  43C    basis set group =>   1
Atom  44C    basis set group =>   1
Atom  45C    basis set group =>   1
Atom  46C    basis set group =>   1
Atom  47C    basis set group =>   1
Atom  48C    basis set group =>   1
Atom  49C    basis set group =>   1
Atom  50O    basis set group =>   4
Atom  51N    basis set group =>   2
Atom  52C    basis set group =>   1
Atom  53O    basis set group =>   4
Atom  54C    basis set group =>   1
Atom  55C    basis set group =>   1
Atom  56C    basis set group =>   1
Atom  57C    basis set group =>   1
Atom  58C    basis set group =>   1
Atom  59O    basis set group =>   4
Atom  60S    basis set group =>   3
Atom  61C    basis set group =>   1
Atom  62O    basis set group =>   4
Atom  63C    basis set group =>   1
Atom  64C    basis set group =>   1
Atom  65C    basis set group =>   1
Atom  66C    basis set group =>   1
Atom  67C    basis set group =>   1
Atom  68N    basis set group =>   2
Atom  69C    basis set group =>   1
Atom  70C    basis set group =>   1
Atom  71C    basis set group =>   1
Atom  72C    basis set group =>   1
Atom  73S    basis set group =>   3
Atom  74H    basis set group =>   5
Atom  75H    basis set group =>   5
Atom  76H    basis set group =>   5
Atom  77H    basis set group =>   5
Atom  78H    basis set group =>   5
Atom  79H    basis set group =>   5
Atom  80H    basis set group =>   5
Atom  81H    basis set group =>   5
Atom  82H    basis set group =>   5
Atom  83H    basis set group =>   5
Atom  84H    basis set group =>   5
Atom  85H    basis set group =>   5
Atom  86H    basis set group =>   5
Atom  87H    basis set group =>   5
Atom  88H    basis set group =>   5
Atom  89H    basis set group =>   5
Atom  90H    basis set group =>   5
Atom  91H    basis set group =>   5
Atom  92H    basis set group =>   5
Atom  93H    basis set group =>   5
Atom  94H    basis set group =>   5
Atom  95H    basis set group =>   5
Atom  96H    basis set group =>   5
Atom  97H    basis set group =>   5
Atom  98H    basis set group =>   5
Atom  99H    basis set group =>   5
Atom 100H    basis set group =>   5
Atom 101H    basis set group =>   5
Atom 102H    basis set group =>   5
Atom 103H    basis set group =>   5
Atom 104H    basis set group =>   5
Atom 105H    basis set group =>   5
---------------------------------
AUXILIARY/J BASIS SET INFORMATION
---------------------------------
There are 5 groups of distinct atoms

 Group   1 Type C   : 12s5p4d2f1g contracted to 6s4p3d1f1g pattern {711111/2111/211/2/1}
 Group   2 Type N   : 12s5p4d2f1g contracted to 6s4p3d1f1g pattern {711111/2111/211/2/1}
 Group   3 Type S   : 14s5p5d2f1g contracted to 8s4p3d1f1g pattern {71111111/2111/311/2/1}
 Group   4 Type O   : 12s5p4d2f1g contracted to 6s4p3d1f1g pattern {711111/2111/211/2/1}
 Group   5 Type H   : 5s2p1d contracted to 3s1p1d pattern {311/2/1}

Atom   0C    basis set group =>   1
Atom   1C    basis set group =>   1
Atom   2C    basis set group =>   1
Atom   3N    basis set group =>   2
Atom   4C    basis set group =>   1
Atom   5C    basis set group =>   1
Atom   6C    basis set group =>   1
Atom   7C    basis set group =>   1
Atom   8S    basis set group =>   3
Atom   9C    basis set group =>   1
Atom  10C    basis set group =>   1
Atom  11C    basis set group =>   1
Atom  12O    basis set group =>   4
Atom  13N    basis set group =>   2
Atom  14C    basis set group =>   1
Atom  15O    basis set group =>   4
Atom  16C    basis set group =>   1
Atom  17C    basis set group =>   1
Atom  18C    basis set group =>   1
Atom  19C    basis set group =>   1
Atom  20C    basis set group =>   1
Atom  21O    basis set group =>   4
Atom  22S    basis set group =>   3
Atom  23C    basis set group =>   1
Atom  24O    basis set group =>   4
Atom  25C    basis set group =>   1
Atom  26C    basis set group =>   1
Atom  27C    basis set group =>   1
Atom  28C    basis set group =>   1
Atom  29C    basis set group =>   1
Atom  30C    basis set group =>   1
Atom  31C    basis set group =>   1
Atom  32C    basis set group =>   1
Atom  33N    basis set group =>   2
Atom  34C    basis set group =>   1
Atom  35N    basis set group =>   2
Atom  36C    basis set group =>   1
Atom  37C    basis set group =>   1
Atom  38C    basis set group =>   1
Atom  39C    basis set group =>   1
Atom  40C    basis set group =>   1
Atom  41C    basis set group =>   1
Atom  42C    basis set group =>   1
Atom  43C    basis set group =>   1
Atom  44C    basis set group =>   1
Atom  45C    basis set group =>   1
Atom  46C    basis set group =>   1
Atom  47C    basis set group =>   1
Atom  48C    basis set group =>   1
Atom  49C    basis set group =>   1
Atom  50O    basis set group =>   4
Atom  51N    basis set group =>   2
Atom  52C    basis set group =>   1
Atom  53O    basis set group =>   4
Atom  54C    basis set group =>   1
Atom  55C    basis set group =>   1
Atom  56C    basis set group =>   1
Atom  57C    basis set group =>   1
Atom  58C    basis set group =>   1
Atom  59O    basis set group =>   4
Atom  60S    basis set group =>   3
Atom  61C    basis set group =>   1
Atom  62O    basis set group =>   4
Atom  63C    basis set group =>   1
Atom  64C    basis set group =>   1
Atom  65C    basis set group =>   1
Atom  66C    basis set group =>   1
Atom  67C    basis set group =>   1
Atom  68N    basis set group =>   2
Atom  69C    basis set group =>   1
Atom  70C    basis set group =>   1
Atom  71C    basis set group =>   1
Atom  72C    basis set group =>   1
Atom  73S    basis set group =>   3
Atom  74H    basis set group =>   5
Atom  75H    basis set group =>   5
Atom  76H    basis set group =>   5
Atom  77H    basis set group =>   5
Atom  78H    basis set group =>   5
Atom  79H    basis set group =>   5
Atom  80H    basis set group =>   5
Atom  81H    basis set group =>   5
Atom  82H    basis set group =>   5
Atom  83H    basis set group =>   5
Atom  84H    basis set group =>   5
Atom  85H    basis set group =>   5
Atom  86H    basis set group =>   5
Atom  87H    basis set group =>   5
Atom  88H    basis set group =>   5
Atom  89H    basis set group =>   5
Atom  90H    basis set group =>   5
Atom  91H    basis set group =>   5
Atom  92H    basis set group =>   5
Atom  93H    basis set group =>   5
Atom  94H    basis set group =>   5
Atom  95H    basis set group =>   5
Atom  96H    basis set group =>   5
Atom  97H    basis set group =>   5
Atom  98H    basis set group =>   5
Atom  99H    basis set group =>   5
Atom 100H    basis set group =>   5
Atom 101H    basis set group =>   5
Atom 102H    basis set group =>   5
Atom 103H    basis set group =>   5
Atom 104H    basis set group =>   5
Atom 105H    basis set group =>   5


           ************************************************************
           *        Program running with 6 parallel MPI-processes     *
           *              working on a common directory               *
           ************************************************************
------------------------------------------------------------------------------
                           ORCA GTO INTEGRAL CALCULATION
                           -- RI-GTO INTEGRALS CHOSEN --
------------------------------------------------------------------------------

                         BASIS SET STATISTICS AND STARTUP INFO

Gaussian basis set:
 # of primitive gaussian shells          ... 1072
 # of primitive gaussian functions       ... 2048
 # of contracted shells                  ...  548
 # of contracted basis functions         ... 1212
 Highest angular momentum                ...    2
 Maximum contraction depth               ...    5
Auxiliary gaussian basis set:
 # of primitive gaussian shells          ... 2044
 # of primitive gaussian functions       ... 5720
 # of contracted shells                  ... 1278
 # of contracted aux-basis functions     ... 3986
 Highest angular momentum                ...    4
 Maximum contraction depth               ...    7
Ratio of auxiliary to basis functions    ...  3.29
Integral package used                  ... LIBINT
 One Electron integrals                  ... done
 Ordering auxiliary basis shells         ... done
 Integral threshhold             Thresh  ...  2.500e-11
 Primitive cut-off               TCut    ...  2.500e-12
 Pre-screening matrix                    ... done
 Shell pair data                         ... 
 Ordering of the shell pairs             ... done (   0.010 sec) 48492 of 150426 pairs
 Determination of significant pairs      ... done (   0.000 sec)
 Creation of shell pair data             ... done (   0.006 sec)
 Storage of shell pair data              ... done (   0.021 sec)
 Shell pair data done in (   0.037 sec)
 Computing two index integrals           ... done
 Cholesky decomposition of the V-matrix  ... done


Timings:
 Total evaluation time                   ...   2.371 sec (  0.040 min)
 One electron matrix time                ...   0.614 sec (  0.010 min) = 25.9%
 Schwartz matrix evaluation time         ...   0.713 sec (  0.012 min) = 30.1%
 Two index repulsion integral time       ...   0.376 sec (  0.006 min) = 15.9%
 Cholesky decomposition of V             ...   0.613 sec (  0.010 min) = 25.9%
 Three index repulsion integral time     ...   0.000 sec (  0.000 min) =  0.0%



           ************************************************************
           *        Program running with 6 parallel MPI-processes     *
           *              working on a common directory               *
           ************************************************************
-------------------------------------------------------------------------------
                                 ORCA SCF
-------------------------------------------------------------------------------

------------
SCF SETTINGS
------------
Hamiltonian:
 Density Functional     Method          .... DFT(GTOs)
 Exchange Functional    Exchange        .... WB88
 Correlation Functional Correlation     .... LYP
 LDA part of GGA corr.  LDAOpt          .... VWN-5
 Gradients option       PostSCFGGA      .... off
 Hybrid DFT is turned on
   Fraction HF Exchange ScalHFX         ....  0.190000
   Scaling of DF-GGA-X  ScalDFX         ....  0.350000
   Scaling of DF-GGA-C  ScalDFC         ....  0.810000
   Scaling of DF-LDA-C  ScalLDAC        ....  1.000000
   Perturbative correction              ....  0.000000
   Density functional embedding theory  .... OFF
 Long-range corrected/Screened/Range-Separated Hybrid DFT is turned on
   Amount of maximum screened exact exchange              ....  0.460000
   Range separation parameter mu (erf(mu*r12)/r12)        ....  0.330000
 RI-approximation to the Coulomb term is turned on
   Number of auxiliary basis functions  .... 3986
   RIJ-COSX (HFX calculated with COS-X)).... on


General Settings:
 Integral files         IntName         .... xtbopt
 Hartree-Fock type      HFTyp           .... RHF
 Total Charge           Charge          ....    0
 Multiplicity           Mult            ....    1
 Number of Electrons    NEL             ....  538
 Basis Dimension        Dim             .... 1212
 Nuclear Repulsion      ENuc            ....  11089.0217782228 Eh

Convergence Acceleration:
 DIIS                   CNVDIIS         .... on
   Start iteration      DIISMaxIt       ....    12
   Startup error        DIISStart       ....  0.200000
   # of expansion vecs  DIISMaxEq       ....     5
   Bias factor          DIISBfac        ....   1.050
   Max. coefficient     DIISMaxC        ....  10.000
 Newton-Raphson         CNVNR           .... off
 SOSCF                  CNVSOSCF        .... on
   Start iteration      SOSCFMaxIt      ....   150
   Startup grad/error   SOSCFStart      ....  0.003300
 Level Shifting         CNVShift        .... on
   Level shift para.    LevelShift      ....    0.2500
   Turn off err/grad.   ShiftErr        ....    0.0010
 Zerner damping         CNVZerner       .... off
 Static damping         CNVDamp         .... on
   Fraction old density DampFac         ....    0.7000
   Max. Damping (<1)    DampMax         ....    0.9800
   Min. Damping (>=0)   DampMin         ....    0.0000
   Turn off err/grad.   DampErr         ....    0.1000
 Fernandez-Rico         CNVRico         .... off

SCF Procedure:
 Maximum # iterations   MaxIter         ....   125
 SCF integral mode      SCFMode         .... Direct
   Integral package                     .... LIBINT
 Reset frequency        DirectResetFreq ....    20
 Integral Threshold     Thresh          ....  2.500e-11 Eh
 Primitive CutOff       TCut            ....  2.500e-12 Eh

Convergence Tolerance:
 Convergence Check Mode ConvCheckMode   .... Total+1el-Energy
 Convergence forced     ConvForced      .... 1
 Energy Change          TolE            ....  1.000e-08 Eh
 1-El. energy change                    ....  1.000e-05 Eh
 Orbital Gradient       TolG            ....  1.000e-05
 Orbital Rotation angle TolX            ....  1.000e-05
 DIIS Error             TolErr          ....  5.000e-07


Diagonalization of the overlap matrix:
Smallest eigenvalue                        ... 1.946e-04
Time for diagonalization                   ...    0.220 sec
Threshold for overlap eigenvalues          ... 1.000e-08
Number of eigenvalues below threshold      ... 0
Time for construction of square roots      ...    0.155 sec
Total time needed                          ...    0.379 sec

-------------------
DFT GRID GENERATION
-------------------

General Integration Accuracy     IntAcc      ...  4.670
Radial Grid Type                 RadialGrid  ... Gauss-Chebyshev
Angular Grid (max. acc.)         AngularGrid ... Lebedev-302
Angular grid pruning method      GridPruning ... 3 (G Style)
Weight generation scheme         WeightScheme... Becke
Basis function cutoff            BFCut       ...    1.0000e-11
Integration weight cutoff        WCut        ...    1.0000e-14
Grids for H and He will be reduced by one unit

# of grid points (after initial pruning)     ... 570832 (   0.0 sec)
# of grid points (after weights+screening)   ... 487756 (   7.2 sec)
nearest neighbour list constructed           ...    0.0 sec
Grid point re-assignment to atoms done       ...    0.1 sec
Grid point division into batches done        ...    1.7 sec
Reduced shell lists constructed in    2.7 sec

Total number of grid points                  ...   487756
Total number of batches                      ...     7676
Average number of points per batch           ...       63
Average number of grid points per atom       ...     4601
Average number of shells per batch           ...    98.04 (17.89%)
Average number of basis functions per batch  ...   211.03 (17.41%)
Average number of large shells per batch     ...    62.53 (63.78%)
Average number of large basis fcns per batch ...   136.77 (64.81%)
Maximum spatial batch extension              ...  16.06, 16.00, 20.25 au
Average spatial batch extension              ...   0.30,  0.29,  0.30 au

Time for grid setup =   10.413 sec

------------------------------
INITIAL GUESS: MODEL POTENTIAL
------------------------------
Loading Hartree-Fock densities                     ... done
Calculating cut-offs                               ... done
Setting up the integral package                    ... done
Initializing the effective Hamiltonian             ... done
Starting the Coulomb interaction                   ... done (   1.4 sec)
Reading the grid                                   ... done
Mapping shells                                     ... done
Starting the XC term evaluation                    ... done (   1.5 sec)
  promolecular density results
     # of electrons  =    537.983156790
     EX              =   -500.412940363
     EC              =    -18.694672573
     EX+EC           =   -519.107612936
Transforming the Hamiltonian                       ... done (   0.1 sec)
Diagonalizing the Hamiltonian                      ... done (   0.2 sec)
Back transforming the eigenvectors                 ... done (   0.1 sec)
Now organizing SCF variables                       ... done
                      ------------------
                      INITIAL GUESS DONE (  13.8 sec)
                      ------------------
--------------------
COSX GRID GENERATION
--------------------

General Integration Accuracy     IntAcc      ...  3.340
Radial Grid Type                 RadialGrid  ... Gauss-Chebyshev
Angular Grid (max. acc.)         AngularGrid ... Lebedev-50
Angular grid pruning method      GridPruning ... 3 (G Style)
Weight generation scheme         WeightScheme... Becke
Basis function cutoff            BFCut       ...    1.0000e-11
Integration weight cutoff        WCut        ...    1.0000e-14
Grids for H and He will be reduced by one unit

# of grid points (after initial pruning)     ...  53580 (   0.0 sec)
# of grid points (after weights+screening)   ...  47769 (   0.7 sec)
nearest neighbour list constructed           ...    0.0 sec
Grid point re-assignment to atoms done       ...    0.0 sec
Grid point division into batches done        ...    0.0 sec
Reduced shell lists constructed in    0.2 sec

Total number of grid points                  ...    47769
Total number of batches                      ...      803
Average number of points per batch           ...       59
Average number of grid points per atom       ...      451
Average number of shells per batch           ...   115.50 (21.08%)
Average number of basis functions per batch  ...   250.07 (20.63%)
Average number of large shells per batch     ...    73.27 (63.43%)
Average number of large basis fcns per batch ...   162.97 (65.17%)
Maximum spatial batch extension              ...  16.27, 13.20, 17.75 au
Average spatial batch extension              ...   0.78,  0.71,  0.71 au

Overlap Fitting                  UseSFitting ... on
Constructing numerical overlap ... done (      0.1 sec)
Inverting numerical overlap    ... done (      0.1 sec)
Obtaining analytic overlap     ... done (      0.0 sec)
Final contraction and storage  ... done (      0.1 sec)


General Integration Accuracy     IntAcc      ...  3.670
Radial Grid Type                 RadialGrid  ... Gauss-Chebyshev
Angular Grid (max. acc.)         AngularGrid ... Lebedev-50
Angular grid pruning method      GridPruning ... 3 (G Style)
Weight generation scheme         WeightScheme... Becke
Basis function cutoff            BFCut       ...    1.0000e-11
Integration weight cutoff        WCut        ...    1.0000e-14
Grids for H and He will be reduced by one unit

# of grid points (after initial pruning)     ...  67044 (   0.0 sec)
# of grid points (after weights+screening)   ...  59526 (   0.8 sec)
nearest neighbour list constructed           ...    0.0 sec
Grid point re-assignment to atoms done       ...    0.0 sec
Grid point division into batches done        ...    0.0 sec
Reduced shell lists constructed in    0.2 sec

Total number of grid points                  ...    59526
Total number of batches                      ...      972
Average number of points per batch           ...       61
Average number of grid points per atom       ...      562
Average number of shells per batch           ...   113.49 (20.71%)
Average number of basis functions per batch  ...   245.60 (20.26%)
Average number of large shells per batch     ...    71.83 (63.30%)
Average number of large basis fcns per batch ...   159.36 (64.88%)
Maximum spatial batch extension              ...  14.52, 14.94, 19.51 au
Average spatial batch extension              ...   0.69,  0.63,  0.64 au

Overlap Fitting                  UseSFitting ... on
Constructing numerical overlap ... done (      0.1 sec)
Inverting numerical overlap    ... done (      0.1 sec)
Obtaining analytic overlap     ... done (      0.0 sec)
Final contraction and storage  ... done (      0.1 sec)


General Integration Accuracy     IntAcc      ...  4.010
Radial Grid Type                 RadialGrid  ... Gauss-Chebyshev
Angular Grid (max. acc.)         AngularGrid ... Lebedev-110
Angular grid pruning method      GridPruning ... 3 (G Style)
Weight generation scheme         WeightScheme... Becke
Basis function cutoff            BFCut       ...    1.0000e-11
Integration weight cutoff        WCut        ...    1.0000e-14
Grids for H and He will be reduced by one unit

# of grid points (after initial pruning)     ... 130296 (   0.0 sec)
# of grid points (after weights+screening)   ... 114744 (   1.7 sec)
nearest neighbour list constructed           ...    0.0 sec
Grid point re-assignment to atoms done       ...    0.0 sec
Grid point division into batches done        ...    0.1 sec
Reduced shell lists constructed in    0.4 sec

Total number of grid points                  ...   114744
Total number of batches                      ...     1846
Average number of points per batch           ...       62
Average number of grid points per atom       ...     1082
Average number of shells per batch           ...   108.45 (19.79%)
Average number of basis functions per batch  ...   234.49 (19.35%)
Average number of large shells per batch     ...    69.38 (63.98%)
Average number of large basis fcns per batch ...   153.38 (65.41%)
Maximum spatial batch extension              ...  14.60, 13.80, 24.70 au
Average spatial batch extension              ...   0.54,  0.50,  0.51 au

Overlap Fitting                  UseSFitting ... on
Constructing numerical overlap ... done (      0.2 sec)
Inverting numerical overlap    ... done (      0.1 sec)
Obtaining analytic overlap     ... done (      0.0 sec)
Final contraction and storage  ... done (      0.1 sec)

Time for X-Grid setup             =    5.034 sec
--------------
SCF ITERATIONS
--------------
ITER       Energy         Delta-E        Max-DP      RMS-DP      [F,P]     Damp
               ***  Starting incremental Fock matrix formation  ***
  0  -4670.4648350540   0.000000000000 0.12792122  0.00119598  0.2856224 0.7000
  1  -4671.1421592339  -0.677324179929 0.07824568  0.00080041  0.1183939 0.7000
                               ***Turning on DIIS***
  2  -4671.4188042930  -0.276645059119 0.10534987  0.00126939  0.0445234 0.0000
  3  -4671.8897859882  -0.470981695165 0.05516733  0.00057542  0.0625190 0.0000
  4  -4671.9712517021  -0.081465713960 0.02245413  0.00015650  0.0152722 0.0000
  5  -4671.9769795961  -0.005727893991 0.00605744  0.00005675  0.0058806 0.0000
                      *** Initiating the SOSCF procedure ***
                           *** Shutting down DIIS ***
                      *** Re-Reading the Fockian *** 
                      *** Removing any level shift *** 
ITER      Energy       Delta-E        Grad      Rot      Max-DP    RMS-DP
  6  -4671.97789047  -0.0009108708  0.001330  0.001330  0.004618  0.000031
               *** Restarting incremental Fock matrix formation ***
  7  -4671.97819587  -0.0003054056  0.000923  0.006598  0.002005  0.000029
  8  -4671.97837828  -0.0001824058  0.000424  0.007878  0.006266  0.000039
  9  -4671.97840115  -0.0000228677  0.000451  0.001898  0.004180  0.000016
 10  -4671.97844347  -0.0000423227  0.000086  0.000500  0.000503  0.000006
 11  -4671.97844375  -0.0000002770  0.000108  0.000401  0.000320  0.000003
 12  -4671.97844611  -0.0000023597  0.000046  0.000449  0.000126  0.000001
 13  -4671.97844622  -0.0000001107  0.000017  0.000170  0.000118  0.000001
 14  -4671.97844635  -0.0000001368  0.000007  0.000075  0.000074  0.000000
 15  -4671.97844635   0.0000000045  0.000007  0.000014  0.000036  0.000000
                  ***Gradient check signals convergence***
              ***Rediagonalizing the Fockian in SOSCF/NRSCF***

               *****************************************************
               *                     SUCCESS                       *
               *           SCF CONVERGED AFTER  16 CYCLES          *
               *****************************************************

Setting up the final grid:

General Integration Accuracy     IntAcc      ...  5.010
Radial Grid Type                 RadialGrid  ... Gauss-Chebyshev
Angular Grid (max. acc.)         AngularGrid ... Lebedev-434
Angular grid pruning method      GridPruning ... 3 (G Style)
Weight generation scheme         WeightScheme... Becke
Basis function cutoff            BFCut       ...    1.0000e-11
Integration weight cutoff        WCut        ...    1.0000e-14
Grids for H and He will be reduced by one unit

# of grid points (after initial pruning)     ... 1010468 (   0.1 sec)
# of grid points (after weights+screening)   ... 860401 (  12.4 sec)
nearest neighbour list constructed           ...    0.0 sec
Grid point re-assignment to atoms done       ...    0.1 sec
Grid point division into batches done        ...    5.5 sec
Reduced shell lists constructed in    7.2 sec

Total number of grid points                  ...   860401
Total number of batches                      ...    13498
Average number of points per batch           ...       63
Average number of grid points per atom       ...     8117
Average number of shells per batch           ...    94.93 (17.32%)
Average number of basis functions per batch  ...   204.00 (16.83%)
Average number of large shells per batch     ...    60.52 (63.75%)
Average number of large basis fcns per batch ...   132.20 (64.80%)
Maximum spatial batch extension              ...  18.93, 17.47, 17.19 au
Average spatial batch extension              ...   0.25,  0.24,  0.24 au

Final grid set up in   20.4 sec
Final integration                            ... done (   3.3 sec)
Change in XC energy                          ...    -0.000092901
Integrated number of electrons               ...   538.000115719
Previous integrated no of electrons          ...   537.999574617
Old exchange energy                            =   -138.672274154 Eh
New exchange energy                            =   -138.668747432 Eh
Exchange energy change after final integration =      0.003526722 Eh
Total energy after final integration           =  -4671.975012550 Eh
Final COS-X integration done in                =    65.107 sec

----------------
TOTAL SCF ENERGY
----------------

Total Energy       :        -4671.97501255 Eh         -127130.90330 eV

Components:
Nuclear Repulsion  :        11089.02177822 Eh          301747.62314 eV
Electronic Energy  :       -15760.99679077 Eh         -428878.52644 eV
One Electron Energy:       -28479.53784539 Eh         -774967.62337 eV
Two Electron Energy:        12718.54105462 Eh          346089.09693 eV

Virial components:
Potential Energy   :        -9312.34490507 Eh         -253401.78757 eV
Kinetic Energy     :         4640.36989252 Eh          126270.88426 eV
Virial Ratio       :            2.00681091


DFT components:
N(Alpha)           :      269.000057859557 electrons
N(Beta)            :      269.000057859557 electrons
N(Total)           :      538.000115719114 electrons
E(XC)              :     -388.886608296892 Eh       
DFET-embed. en.    :        0.000000000000 Eh       

---------------
SCF CONVERGENCE
---------------

  Last Energy change         ...   -2.2053e-08  Tolerance :   1.0000e-08
  Last MAX-Density change    ...    7.1054e-15  Tolerance :   1.0000e-07
  Last RMS-Density change    ...    3.5627e-17  Tolerance :   5.0000e-09
  Last Orbital Gradient      ...    1.5901e-06  Tolerance :   1.0000e-05
  Last Orbital Rotation      ...    7.0855e-06  Tolerance :   1.0000e-05

             **** THE GBW FILE WAS UPDATED (xtbopt.gbw) ****
             **** DENSITY FILE WAS UPDATED (xtbopt.scfp) ****
             **** ENERGY FILE WAS UPDATED (xtbopt.en.tmp) ****
             **** THE GBW FILE WAS UPDATED (xtbopt.gbw) ****
             **** DENSITY FILE WAS UPDATED (xtbopt.scfp) ****
----------------
ORBITAL ENERGIES
----------------

  NO   OCC          E(Eh)            E(eV) 
   0   2.0000     -89.003338     -2421.9040 
   1   2.0000     -88.974139     -2421.1094 
   2   2.0000     -88.958596     -2420.6865 
   3   2.0000     -88.889335     -2418.8018 
   4   2.0000     -19.252637      -523.8909 
   5   2.0000     -19.251703      -523.8655 
   6   2.0000     -19.245423      -523.6946 
   7   2.0000     -19.245233      -523.6894 
   8   2.0000     -19.229870      -523.2714 
   9   2.0000     -19.221298      -523.0381 
  10   2.0000     -19.196326      -522.3586 
  11   2.0000     -19.141696      -520.8720 
  12   2.0000     -14.506934      -394.7537 
  13   2.0000     -14.495826      -394.4515 
  14   2.0000     -14.473078      -393.8325 
  15   2.0000     -14.400847      -391.8670 
  16   2.0000     -14.368917      -390.9981 
  17   2.0000     -14.366747      -390.9391 
  18   2.0000     -10.425725      -283.6984 
  19   2.0000     -10.424483      -283.6646 
  20   2.0000     -10.413826      -283.3746 
  21   2.0000     -10.413710      -283.3715 
  22   2.0000     -10.406309      -283.1701 
  23   2.0000     -10.400816      -283.0206 
  24   2.0000     -10.383012      -282.5361 
  25   2.0000     -10.368367      -282.1376 
  26   2.0000     -10.362926      -281.9896 
  27   2.0000     -10.348830      -281.6060 
  28   2.0000     -10.342881      -281.4441 
  29   2.0000     -10.339628      -281.3556 
  30   2.0000     -10.337084      -281.2864 
  31   2.0000     -10.334990      -281.2294 
  32   2.0000     -10.333756      -281.1958 
  33   2.0000     -10.333064      -281.1770 
  34   2.0000     -10.332803      -281.1699 
  35   2.0000     -10.331683      -281.1394 
  36   2.0000     -10.328741      -281.0593 
  37   2.0000     -10.326696      -281.0037 
  38   2.0000     -10.322931      -280.9012 
  39   2.0000     -10.322600      -280.8922 
  40   2.0000     -10.320059      -280.8231 
  41   2.0000     -10.309869      -280.5458 
  42   2.0000     -10.307202      -280.4732 
  43   2.0000     -10.305724      -280.4330 
  44   2.0000     -10.304261      -280.3932 
  45   2.0000     -10.303337      -280.3681 
  46   2.0000     -10.302343      -280.3410 
  47   2.0000     -10.301090      -280.3069 
  48   2.0000     -10.299397      -280.2608 
  49   2.0000     -10.297474      -280.2085 
  50   2.0000     -10.297054      -280.1971 
  51   2.0000     -10.295661      -280.1592 
  52   2.0000     -10.293676      -280.1052 
  53   2.0000     -10.293155      -280.0910 
  54   2.0000     -10.292402      -280.0705 
  55   2.0000     -10.292355      -280.0692 
  56   2.0000     -10.288190      -279.9559 
  57   2.0000     -10.286156      -279.9005 
  58   2.0000     -10.279775      -279.7269 
  59   2.0000     -10.274584      -279.5856 
  60   2.0000     -10.270062      -279.4626 
  61   2.0000     -10.268090      -279.4089 
  62   2.0000     -10.267221      -279.3853 
  63   2.0000     -10.266453      -279.3644 
  64   2.0000     -10.264569      -279.3131 
  65   2.0000     -10.260152      -279.1929 
  66   2.0000     -10.258991      -279.1613 
  67   2.0000     -10.256628      -279.0970 
  68   2.0000     -10.254898      -279.0500 
  69   2.0000     -10.254390      -279.0361 
  70   2.0000     -10.253746      -279.0186 
  71   2.0000     -10.253657      -279.0162 
  72   2.0000     -10.249440      -278.9014 
  73   2.0000     -10.248704      -278.8814 
  74   2.0000      -8.096594      -220.3195 
  75   2.0000      -8.068983      -219.5682 
  76   2.0000      -8.057649      -219.2598 
  77   2.0000      -7.988049      -217.3659 
  78   2.0000      -6.065516      -165.0511 
  79   2.0000      -6.060781      -164.9222 
  80   2.0000      -6.060165      -164.9055 
  81   2.0000      -6.037814      -164.2973 
  82   2.0000      -6.033769      -164.1872 
  83   2.0000      -6.032183      -164.1440 
  84   2.0000      -6.026544      -163.9906 
  85   2.0000      -6.023246      -163.9009 
  86   2.0000      -6.018710      -163.7774 
  87   2.0000      -5.956597      -162.0873 
  88   2.0000      -5.954133      -162.0202 
  89   2.0000      -5.949242      -161.8871 
  90   2.0000      -1.190846       -32.4046 
  91   2.0000      -1.175019       -31.9739 
  92   2.0000      -1.171179       -31.8694 
  93   2.0000      -1.170810       -31.8594 
  94   2.0000      -1.166172       -31.7332 
  95   2.0000      -1.147307       -31.2198 
  96   2.0000      -1.134936       -30.8832 
  97   2.0000      -1.118743       -30.4426 
  98   2.0000      -1.083870       -29.4936 
  99   2.0000      -1.069276       -29.0965 
 100   2.0000      -1.062840       -28.9213 
 101   2.0000      -1.040030       -28.3007 
 102   2.0000      -1.022451       -27.8223 
 103   2.0000      -1.017124       -27.6774 
 104   2.0000      -0.988638       -26.9022 
 105   2.0000      -0.979966       -26.6662 
 106   2.0000      -0.975641       -26.5485 
 107   2.0000      -0.963677       -26.2230 
 108   2.0000      -0.956213       -26.0199 
 109   2.0000      -0.948447       -25.8085 
 110   2.0000      -0.943488       -25.6736 
 111   2.0000      -0.941266       -25.6131 
 112   2.0000      -0.927669       -25.2432 
 113   2.0000      -0.920425       -25.0460 
 114   2.0000      -0.909900       -24.7596 
 115   2.0000      -0.901749       -24.5378 
 116   2.0000      -0.898366       -24.4458 
 117   2.0000      -0.898066       -24.4376 
 118   2.0000      -0.885665       -24.1002 
 119   2.0000      -0.871621       -23.7180 
 120   2.0000      -0.867663       -23.6103 
 121   2.0000      -0.866553       -23.5801 
 122   2.0000      -0.847982       -23.0748 
 123   2.0000      -0.836747       -22.7690 
 124   2.0000      -0.833465       -22.6797 
 125   2.0000      -0.827566       -22.5192 
 126   2.0000      -0.821383       -22.3510 
 127   2.0000      -0.818733       -22.2788 
 128   2.0000      -0.812652       -22.1134 
 129   2.0000      -0.806551       -21.9474 
 130   2.0000      -0.792821       -21.5738 
 131   2.0000      -0.787966       -21.4416 
 132   2.0000      -0.775827       -21.1113 
 133   2.0000      -0.772545       -21.0220 
 134   2.0000      -0.764296       -20.7976 
 135   2.0000      -0.755422       -20.5561 
 136   2.0000      -0.747921       -20.3520 
 137   2.0000      -0.746212       -20.3055 
 138   2.0000      -0.738788       -20.1034 
 139   2.0000      -0.726057       -19.7570 
 140   2.0000      -0.723212       -19.6796 
 141   2.0000      -0.717526       -19.5249 
 142   2.0000      -0.714176       -19.4337 
 143   2.0000      -0.712999       -19.4017 
 144   2.0000      -0.704133       -19.1604 
 145   2.0000      -0.693620       -18.8744 
 146   2.0000      -0.685610       -18.6564 
 147   2.0000      -0.685092       -18.6423 
 148   2.0000      -0.674334       -18.3496 
 149   2.0000      -0.670769       -18.2525 
 150   2.0000      -0.660640       -17.9769 
 151   2.0000      -0.658065       -17.9068 
 152   2.0000      -0.655523       -17.8377 
 153   2.0000      -0.649004       -17.6603 
 154   2.0000      -0.639317       -17.3967 
 155   2.0000      -0.638194       -17.3661 
 156   2.0000      -0.628659       -17.1067 
 157   2.0000      -0.626278       -17.0419 
 158   2.0000      -0.622246       -16.9322 
 159   2.0000      -0.618147       -16.8206 
 160   2.0000      -0.615831       -16.7576 
 161   2.0000      -0.602318       -16.3899 
 162   2.0000      -0.600921       -16.3519 
 163   2.0000      -0.600248       -16.3336 
 164   2.0000      -0.599125       -16.3030 
 165   2.0000      -0.594588       -16.1796 
 166   2.0000      -0.589098       -16.0302 
 167   2.0000      -0.587004       -15.9732 
 168   2.0000      -0.581331       -15.8188 
 169   2.0000      -0.579439       -15.7673 
 170   2.0000      -0.578581       -15.7440 
 171   2.0000      -0.576511       -15.6877 
 172   2.0000      -0.575042       -15.6477 
 173   2.0000      -0.570709       -15.5298 
 174   2.0000      -0.568579       -15.4718 
 175   2.0000      -0.564980       -15.3739 
 176   2.0000      -0.560144       -15.2423 
 177   2.0000      -0.559579       -15.2269 
 178   2.0000      -0.556811       -15.1516 
 179   2.0000      -0.556334       -15.1386 
 180   2.0000      -0.553021       -15.0485 
 181   2.0000      -0.552189       -15.0258 
 182   2.0000      -0.547414       -14.8959 
 183   2.0000      -0.546340       -14.8667 
 184   2.0000      -0.545515       -14.8442 
 185   2.0000      -0.543159       -14.7801 
 186   2.0000      -0.540896       -14.7185 
 187   2.0000      -0.537760       -14.6332 
 188   2.0000      -0.534214       -14.5367 
 189   2.0000      -0.531965       -14.4755 
 190   2.0000      -0.525919       -14.3110 
 191   2.0000      -0.523178       -14.2364 
 192   2.0000      -0.517123       -14.0716 
 193   2.0000      -0.515518       -14.0280 
 194   2.0000      -0.514051       -13.9881 
 195   2.0000      -0.513207       -13.9651 
 196   2.0000      -0.511905       -13.9296 
 197   2.0000      -0.510473       -13.8907 
 198   2.0000      -0.508875       -13.8472 
 199   2.0000      -0.507204       -13.8017 
 200   2.0000      -0.506667       -13.7871 
 201   2.0000      -0.504299       -13.7227 
 202   2.0000      -0.501176       -13.6377 
 203   2.0000      -0.498988       -13.5782 
 204   2.0000      -0.496441       -13.5089 
 205   2.0000      -0.494015       -13.4428 
 206   2.0000      -0.490596       -13.3498 
 207   2.0000      -0.488814       -13.3013 
 208   2.0000      -0.487206       -13.2575 
 209   2.0000      -0.486121       -13.2280 
 210   2.0000      -0.484761       -13.1910 
 211   2.0000      -0.482443       -13.1279 
 212   2.0000      -0.481625       -13.1057 
 213   2.0000      -0.479990       -13.0612 
 214   2.0000      -0.477940       -13.0054 
 215   2.0000      -0.476235       -12.9590 
 216   2.0000      -0.470395       -12.8001 
 217   2.0000      -0.467305       -12.7160 
 218   2.0000      -0.462740       -12.5918 
 219   2.0000      -0.460701       -12.5363 
 220   2.0000      -0.459736       -12.5101 
 221   2.0000      -0.456195       -12.4137 
 222   2.0000      -0.455107       -12.3841 
 223   2.0000      -0.454321       -12.3627 
 224   2.0000      -0.450483       -12.2583 
 225   2.0000      -0.447501       -12.1771 
[...]
  11   24531.5    407.6   0.002109216   0.02831  -0.02354   0.03043  -0.16379
  12   25344.0    394.6   0.064776289   0.84143  -0.41161   0.81614   0.07694
  13   25418.3    393.4   0.043363945   0.56164  -0.16391   0.73056  -0.03237
  14   25862.1    386.7   0.666886353   8.48915  -1.39329   1.19655  -2.26190
  15   26462.0    377.9   0.063869521   0.79460   0.73165  -0.24245  -0.44778
  16   26525.7    377.0   0.009383364   0.11646   0.10745   0.04759  -0.32039
  17   26747.0    373.9   0.002015404   0.02481   0.11696  -0.10206   0.02663
  18   27155.8    368.2   0.006568553   0.07963   0.05356  -0.12010   0.24967
  19   27708.5    360.9   0.540610403   6.42313   1.86878  -1.54334  -0.74088
  20   28320.2    353.1   0.084619127   0.98367   0.57084  -0.79457   0.16268
  21   28668.5    348.8   0.065053123   0.74703  -0.50549   0.69569  -0.08676
  22   28918.5    345.8   0.081968881   0.93315   0.59075  -0.61425   0.45481
  23   28990.0    344.9   0.022642299   0.25713   0.30931  -0.34117   0.21226
  24   29084.0    343.8   0.012505490   0.14155   0.09246  -0.31566  -0.18265
  25   29375.2    340.4   0.069179577   0.77530   0.44480  -0.74968   0.12425
  26   29561.4    338.3   0.018389938   0.20480   0.23434  -0.38123   0.06746
  27   29889.4    334.6   0.003552193   0.03912   0.16417  -0.09717   0.05227
  28   30674.5    326.0   0.088746466   0.95246  -0.30760   0.84535  -0.37845
  29   31100.3    321.5   0.014597654   0.15452  -0.22996   0.08156  -0.30821
  30   31152.6    321.0   0.008122704   0.08584  -0.16663   0.03160  -0.23890
  31   31241.6    320.1   0.000009145   0.00010  -0.00538   0.00691  -0.00444
  32   31436.8    318.1   0.062870229   0.65839   0.27816  -0.70584   0.28777
  33   32256.6    310.0   0.009174808   0.09364  -0.01873   0.22413   0.20750
  34   32331.5    309.3   0.071542554   0.72847  -0.51703   0.66923   0.11522
  35   32412.0    308.5   0.008807138   0.08946  -0.07891   0.25091  -0.14239
  36   32599.4    306.8   0.007588078   0.07663   0.06946  -0.19690  -0.18175
  37   32851.5    304.4   0.000233019   0.00234   0.02773  -0.01735  -0.03557
  38   32937.2    303.6   0.089413263   0.89370   0.62681  -0.69703  -0.12235
  39   33027.8    302.8   0.013776539   0.13732   0.12170  -0.08549   0.33941
  40   33239.4    300.8   0.015753203   0.15602   0.10511  -0.33305  -0.18453
  41   33507.5    298.4   0.076995510   0.75648  -0.56441   0.55276   0.36383
  42   33798.4    295.9   0.892829882   8.69658   1.99860  -2.14281  -0.33250
  43   33997.1    294.1   0.013764893   0.13329  -0.26097   0.25316  -0.03316
  44   34106.5    293.2   0.195798622   1.88994   0.99366  -0.73573  -0.60108
  45   34261.1    291.9   0.098353045   0.94507  -0.63906   0.65124  -0.33550
  46   34338.9    291.2   0.002979045   0.02856  -0.11372   0.08259  -0.09385
  47   34511.1    289.8   0.000206888   0.00197   0.01935   0.03944   0.00659
  48   34776.5    287.6   0.000044443   0.00042  -0.01324   0.01378   0.00746
  49   35108.2    284.8   0.027416928   0.25709   0.23925   0.34423  -0.28523
  50   35256.3    283.6   0.199700879   1.86474   0.71988  -0.96454  -0.64513
  51   35804.9    279.3   0.016550896   0.15218   0.29151  -0.25057   0.06646
  52   36051.5    277.4   0.020260956   0.18502  -0.20518   0.34914   0.14498
  53   36739.8    272.2   0.002826675   0.02533  -0.09244   0.07770   0.10366
  54   36970.8    270.5   0.002797817   0.02491   0.09962  -0.12195   0.01087
  55   36985.2    270.4   0.009705641   0.08639   0.07617  -0.25943  -0.11527
  56   37035.2    270.0   0.013193620   0.11728   0.13312  -0.26429   0.17237
  57   37170.3    269.0   0.007292472   0.06459  -0.17703   0.14191   0.11450
  58   37289.9    268.2   0.045792238   0.40427   0.22185  -0.36119   0.47392
  59   37407.2    267.3   0.001492279   0.01313   0.02004   0.08693  -0.07194
  60   37594.8    266.0   0.071000951   0.62174   0.10134  -0.45508   0.63590
  61   37808.1    264.5   0.025254765   0.21990  -0.27548  -0.37879   0.02301
  62   38190.1    261.8   0.004134565   0.03564  -0.11567   0.11101  -0.09969
  63   38440.7    260.1   0.100732396   0.86269  -0.58782   0.70339  -0.14969
  64   38500.4    259.7   0.004899084   0.04189   0.07985  -0.15995  -0.09966
  65   38669.6    258.6   0.037333906   0.31784   0.27947  -0.48576   0.06141
  66   38831.9    257.5   0.001347438   0.01142  -0.02534   0.09436  -0.04333
  67   39080.7    255.9   0.054903444   0.46250  -0.28108   0.12288   0.60696
  68   39138.1    255.5   0.002898462   0.02438  -0.10661  -0.04187   0.10612
  69   39191.9    255.2   0.031151153   0.26167   0.37213  -0.14621  -0.31909
  70   39335.4    254.2   0.069254000   0.57961  -0.56209   0.50635   0.08530
  71   39394.7    253.8   0.025259069   0.21108   0.31872  -0.32260  -0.07369
  72   39530.5    253.0   0.000908602   0.00757   0.08125   0.03098   0.00229
  73   39639.6    252.3   0.002694275   0.02238   0.05248  -0.12903   0.05453
  74   39775.8    251.4   0.054897877   0.45437   0.48934  -0.29905  -0.35424
  75   39946.1    250.3   0.019958626   0.16449  -0.16287   0.10907   0.35505
  76   40011.6    249.9   0.007162010   0.05893  -0.19532   0.14250  -0.02170
  77   40192.9    248.8   0.012424969   0.10177   0.21529  -0.13515  -0.19276

-----------------------------------------------------------------------------
         ABSORPTION SPECTRUM VIA TRANSITION VELOCITY DIPOLE MOMENTS
-----------------------------------------------------------------------------
State   Energy  Wavelength   fosc         P2         PX        PY        PZ  
        (cm-1)    (nm)                  (au**2)     (au)      (au)      (au) 
-----------------------------------------------------------------------------
   0   10208.5    979.6   0.000785965   0.00005  -0.00016  -0.00090  -0.00735
   1   13614.7    734.5   0.034083934   0.00317  -0.00882  -0.00714   0.05516
   2   16134.7    619.8   0.025938455   0.00286  -0.02841   0.04416  -0.01015
   3   17184.9    581.9   0.002853476   0.00034   0.00192   0.01237   0.01336
   4   17674.6    565.8   0.007190247   0.00087   0.01004  -0.01065  -0.02558
   5   18296.2    546.6   0.043955542   0.00550  -0.03404   0.06567   0.00501
   6   19336.8    517.1   0.002770350   0.00037  -0.00828   0.01634  -0.00554
   7   22702.7    440.5   0.093802933   0.01455   0.01098   0.05483  -0.10690
   8   23682.2    422.3   0.030671501   0.00496   0.02930   0.04182  -0.04855
   9   24022.4    416.3   0.003403914   0.00056   0.01000   0.01751  -0.01233
  10   24426.6    409.4   0.007406553   0.00124  -0.01306   0.03261   0.00157
  11   24531.5    407.6   0.001937058   0.00032  -0.00249   0.00355  -0.01749
  12   25344.0    394.6   0.064365137   0.01115  -0.04783   0.09387   0.00700
  13   25418.3    393.4   0.040512555   0.00704  -0.01923   0.08152  -0.00470
  14   25862.1    386.7   0.641841350   0.11345  -0.16176   0.13816  -0.26114
  15   26462.0    377.9   0.060573313   0.01095   0.08498  -0.02683  -0.05489
  16   26525.7    377.0   0.009160773   0.00166   0.01241   0.00616  -0.03833
  17   26747.0    373.9   0.001924493   0.00035   0.01484  -0.01122   0.00237
  18   27155.8    368.2   0.007844964   0.00146   0.00624  -0.01537   0.03436
  19   27708.5    360.9   0.489958429   0.09279   0.22356  -0.18612  -0.09036
  20   28320.2    353.1   0.079848131   0.01545   0.06918  -0.10076   0.02272
  21   28668.5    348.8   0.059797762   0.01172  -0.06792   0.08393  -0.00760
  22   28918.5    345.8   0.081374184   0.01608   0.07859  -0.07897   0.06059
  23   28990.0    344.9   0.021895832   0.00434   0.04060  -0.04357   0.02814
  24   29084.0    343.8   0.011427282   0.00227   0.01017  -0.03862  -0.02601
  25   29375.2    340.4   0.063323266   0.01271   0.05761  -0.09577   0.01491
  26   29561.4    338.3   0.021283680   0.00430   0.03472  -0.05398   0.01347
  27   29889.4    334.6   0.002885676   0.00059   0.01881  -0.01218   0.00934
  28   30674.5    326.0   0.083671362   0.01754  -0.04027   0.11457  -0.05286
  29   31100.3    321.5   0.011057458   0.00235  -0.02755   0.00707  -0.03926
  30   31152.6    321.0   0.007589208   0.00162  -0.02133   0.00258  -0.03397
  31   31241.6    320.1   0.000009155   0.00000  -0.00086   0.00093  -0.00059
  32   31436.8    318.1   0.057499824   0.01235   0.03722  -0.09589   0.04211
  33   32256.6    310.0   0.006354098   0.00140  -0.00205   0.02750   0.02530
  34   32331.5    309.3   0.064296661   0.01421  -0.07257   0.09314   0.01628
  35   32412.0    308.5   0.007344853   0.00163  -0.01167   0.03349  -0.01922
  36   32599.4    306.8   0.006453625   0.00144   0.00910  -0.02732  -0.02467
  37   32851.5    304.4   0.000237612   0.00005   0.00430  -0.00211  -0.00551
  38   32937.2    303.6   0.084115520   0.01894   0.09200  -0.10009  -0.02126
  39   33027.8    302.8   0.012145856   0.00274   0.01670  -0.01390   0.04764
  40   33239.4    300.8   0.012635629   0.00287   0.01453  -0.04470  -0.02572
  41   33507.5    298.4   0.068992125   0.01580  -0.08142   0.08057   0.05177
  42   33798.4    295.9   0.801871670   0.18523   0.29209  -0.31240  -0.04817
  43   33997.1    294.1   0.012440120   0.00289  -0.03841   0.03733  -0.00459
  44   34106.5    293.2   0.183719375   0.04283   0.14935  -0.11028  -0.09143
  45   34261.1    291.9   0.088839796   0.02080  -0.09458   0.09712  -0.04925
  46   34338.9    291.2   0.002653711   0.00062  -0.01680   0.01237  -0.01370
  47   34511.1    289.8   0.000201487   0.00005   0.00307   0.00613   0.00071
  48   34776.5    287.6   0.000044602   0.00001  -0.00217   0.00231   0.00076
  49   35108.2    284.8   0.029490321   0.00708   0.03734   0.05889  -0.04705
  50   35256.3    283.6   0.167433050   0.04034   0.10264  -0.14543  -0.09306
  51   35804.9    279.3   0.014324977   0.00351   0.04307  -0.03986   0.00785
  52   36051.5    277.4   0.018549856   0.00457  -0.03282   0.05423   0.02350
  53   36739.8    272.2   0.001867092   0.00047  -0.01448   0.01140   0.01137
  54   36970.8    270.5   0.002548877   0.00064   0.01647  -0.01930   0.00066
  55   36985.2    270.4   0.009003667   0.00228   0.01320  -0.04121  -0.02009
  56   37035.2    270.0   0.011566057   0.00293   0.02177  -0.04163   0.02684
  57   37170.3    269.0   0.006413451   0.00163  -0.02838   0.02183   0.01863
  58   37289.9    268.2   0.040412518   0.01030   0.03580  -0.05701   0.07594
  59   37407.2    267.3   0.001343703   0.00034   0.00402   0.01409  -0.01135
  60   37594.8    266.0   0.061495302   0.01580   0.01479  -0.07222   0.10181
  61   37808.1    264.5   0.023089563   0.00597  -0.04780  -0.06058   0.00349
  62   38190.1    261.8   0.003666687   0.00096  -0.01806   0.01803  -0.01748
  63   38440.7    260.1   0.078989704   0.02075  -0.08986   0.10967  -0.02551
  64   38500.4    259.7   0.003830599   0.00101   0.01115  -0.02465  -0.01662
  65   38669.6    258.6   0.031368442   0.00829   0.04541  -0.07842   0.00885
  66   38831.9    257.5   0.000934156   0.00025  -0.00155   0.01391  -0.00721
  67   39080.7    255.9   0.048338895   0.01291  -0.04641   0.02252   0.10124
  68   39138.1    255.5   0.001850350   0.00049  -0.01490  -0.00784   0.01454
  69   39191.9    255.2   0.026250187   0.00703   0.06191  -0.02488  -0.05078
  70   39335.4    254.2   0.053384534   0.01435  -0.08831   0.08005   0.01206
  71   39394.7    253.8   0.020327415   0.00547   0.05149  -0.05166  -0.01237
  72   39530.5    253.0   0.000776875   0.00021   0.01282   0.00639   0.00214
  73   39639.6    252.3   0.002029299   0.00055   0.00724  -0.02055   0.00867
  74   39775.8    251.4   0.045068071   0.01225   0.08062  -0.04687  -0.05963
  75   39946.1    250.3   0.016421130   0.00448  -0.02502   0.01798   0.05945
  76   40011.6    249.9   0.005931991   0.00162  -0.03212   0.02418  -0.00248
  77   40192.9    248.8   0.010340139   0.00284   0.03434  -0.02213  -0.03423

-------------------------------------------------------------------
                             CD SPECTRUM
-------------------------------------------------------------------
State   Energy Wavelength       R         MX        MY        MZ   
        (cm-1)   (nm)       (1e40*cgs)   (au)      (au)      (au)  
-------------------------------------------------------------------
   0   10208.5    979.6     -1.07183   0.01701   0.04658  -0.03503
   1   13614.7    734.5    -21.14444   0.57662   0.60319   0.30078
   2   16134.7    619.8     -0.16799   0.35844   0.20220  -0.10753
   3   17184.9    581.9      1.09007   0.50888   0.04035  -0.10120
   4   17674.6    565.8      2.36231  -0.83322  -0.60918  -0.07122
   5   18296.2    546.6     43.16766   0.49922   0.00136   0.08929
   6   19336.8    517.1     -2.16068   0.31435   0.19214   0.08296
   7   22702.7    440.5     27.50863  -1.66771  -1.84327  -1.07466
   8   23682.2    422.3    -20.88536  -0.43903  -0.99541  -1.15855
   9   24022.4    416.3     -1.23359   0.04169  -0.13984  -0.17704
  10   24426.6    409.4     11.89504   0.20781  -0.08446   0.08898
  11   24531.5    407.6      0.13268   0.26000   0.26387   0.01509
  12   25344.0    394.6     73.86389  -0.04402  -0.37775  -0.30123
  13   25418.3    393.4    201.78889  -0.89532  -1.40379  -0.70313
  14   25862.1    386.7    -496.21230   4.41592   5.03255  -0.98857
  15   26462.0    377.9    141.90798  -1.99484  -2.37556  -0.62877
  16   26525.7    377.0    -10.45959  -0.16335  -0.25836  -0.23166
  17   26747.0    373.9      0.80737  -0.42825  -0.49250  -0.13528
  18   27155.8    368.2    -24.36777   0.94549   0.79076   0.59159
  19   27708.5    360.9     97.60319  -3.30387  -3.47442  -0.53715
  20   28320.2    353.1      3.29962  -1.08182  -0.79068  -0.15182
  21   28668.5    348.8    -14.48437   0.40036   0.37586  -0.02699
  22   28918.5    345.8      4.88711  -2.38508  -1.84847   0.55593
  23   28990.0    344.9      8.76838  -1.21487  -0.76835   0.36009
  24   29084.0    343.8     -2.93201  -0.03945   0.17502  -0.39055
  25   29375.2    340.4     -1.28665  -1.80001  -1.08987  -0.08814
  26   29561.4    338.3    -17.26984  -2.26084  -1.54981   0.18137
  27   29889.4    334.6     -5.12420   0.11553  -0.19231  -0.30445
  28   30674.5    326.0     21.22590   0.04729  -0.42549  -0.75094
  29   31100.3    321.5     -5.84123  -0.00316   0.58769   0.07747
  30   31152.6    321.0     -6.62137  -0.18199   0.40559   0.06301
  31   31241.6    320.1     -0.00311   0.01336  -0.00447  -0.02615
  32   31436.8    318.1      3.20371  -0.33863   0.23333   0.85241
  33   32256.6    310.0    -13.53725  -0.21462  -0.33335   0.61747
  34   32331.5    309.3     27.11504   1.43504   0.89243   0.25771
  35   32412.0    308.5     -5.92108   0.16829  -0.26767  -0.74136
  36   32599.4    306.8    -18.39255  -0.60824   0.00094  -0.66277
  37   32851.5    304.4     -0.81247  -0.12401  -0.09813  -0.14569
  38   32937.2    303.6     -8.57160  -1.03816  -1.03223   0.26487
  39   33027.8    302.8     -1.17865  -0.48309  -1.03919  -0.07379
  40   33239.4    300.8      4.89857  -0.91113  -0.15552  -0.12570
  41   33507.5    298.4      8.63972   1.54159   1.25906   0.37786
  42   33798.4    295.9     38.17613  -3.82838  -3.39847  -0.62312
  43   33997.1    294.1      0.36155   0.68012   0.71022   0.11592
  44   34106.5    293.2      3.46840  -2.18613  -2.38968  -0.66447
  45   34261.1    291.9     -6.12445   2.08039   2.17811   0.18778
  46   34338.9    291.2     -0.07322   0.25834   0.39887   0.03469
  47   34511.1    289.8      0.87825   0.05126  -0.10896  -0.06372
  48   34776.5    287.6     -0.05665   0.02015   0.02019   0.03067
  49   35108.2    284.8    -44.89813   0.29546  -0.56168  -1.09781
  50   35256.3    283.6     21.73781  -2.14654  -1.06294  -0.66312
  51   35804.9    279.3     24.11322  -1.36566  -1.08929   0.34396
  52   36051.5    277.4      6.66029   1.31920   0.85275  -0.38158
  53   36739.8    272.2      0.92382  -0.47152  -0.33699  -0.20571
  54   36970.8    270.5     -0.56052  -0.05868  -0.06437   0.03438
  55   36985.2    270.4     31.89802   0.06736   0.58023  -0.08742
  56   37035.2    270.0     -6.92703  -0.00282   0.07588   0.28901
  57   37170.3    269.0     -1.11969   0.35682   0.31920   0.19758
  58   37289.9    268.2    -114.17784   0.01984  -0.31574   0.77214
  59   37407.2    267.3      0.61413  -0.03823  -0.20658  -0.22407
  60   37594.8    266.0    -187.76380  -0.14835  -0.10933   1.19802
  61   37808.1    264.5    165.92178   0.27301   1.71496   0.90981
  62   38190.1    261.8      1.80100   0.26830   0.35045   0.15558
  63   38440.7    260.1     33.10788   1.71146   1.44373   1.00156
  64   38500.4    259.7      1.64696  -0.41248  -0.03957  -0.19685
  65   38669.6    258.6      2.52900  -1.37271  -0.84160  -0.58481
  66   38831.9    257.5      2.58745   0.17462  -0.02181   0.10371
  67   39080.7    255.9     23.68883   2.01938   1.76046   0.41317
  68   39138.1    255.5      3.17333   0.49934   0.65191   0.63206
  69   39191.9    255.2     -0.39696  -0.91950  -1.25802  -0.50119
  70   39335.4    254.2    -31.95177   1.71738   2.01906   0.92047
  71   39394.7    253.8    -13.46700  -0.95500  -1.03861  -0.35891
  72   39530.5    253.0     -9.41442   0.42610   0.17076   0.01177
  73   39639.6    252.3     -1.99636  -0.26700  -0.12921   0.10652
  74   39775.8    251.4      0.61620  -1.98640  -2.28278  -0.80943
  75   39946.1    250.3    -29.28606   1.35323   1.10488   0.63126
  76   40011.6    249.9     14.69945   0.94761   0.89753   0.23800
  77   40192.9    248.8     24.19921  -0.67143  -0.55359   0.17080

sTD-DFT done

Total run time:        3.885 sec

           *** ORCA-CIS/TD-DFT FINISHED WITHOUT ERROR ***

-------------------------   --------------------
FINAL SINGLE POINT ENERGY     -4671.975012550116
-------------------------   --------------------


                            ***************************************
                            *     ORCA property calculations      *
                            ***************************************

                                    ---------------------
                                    Active property flags
                                    ---------------------
   (+) Dipole Moment


------------------------------------------------------------------------------
                       ORCA ELECTRIC PROPERTIES CALCULATION
------------------------------------------------------------------------------

Dipole Moment Calculation                       ... on
Quadrupole Moment Calculation                   ... off
Polarizability Calculation                      ... off
GBWName                                         ... xtbopt.gbw
Electron density file                           ... xtbopt.scfp
The origin for moment calculation is the CENTER OF MASS  = ( 3.484937, -6.143340 18.504837)

-------------
DIPOLE MOMENT
-------------
                                X             Y             Z
Electronic contribution:     18.59628      -7.94338     -15.43247
Nuclear contribution   :    -20.57594       7.77576      19.82170
                        -----------------------------------------
Total Dipole Moment    :     -1.97966      -0.16763       4.38923
                        -----------------------------------------
Magnitude (a.u.)       :      4.81794
Magnitude (Debye)      :     12.24623



--------------------
Rotational spectrum 
--------------------
 
Rotational constants in cm-1:     0.001257     0.000264     0.000228 
Rotational constants in MHz :    37.671054     7.922861     6.837601 

 Dipole components along the rotational axes: 
x,y,z [a.u.] :     2.294859     3.564641     2.288996 
x,y,z [Debye]:     5.833069     9.060597     5.818165 

 

Timings for individual modules:

Sum of individual times         ...      640.318 sec (=  10.672 min)
GTO integral calculation        ...        3.165 sec (=   0.053 min)   0.5 %
SCF iterations                  ...      632.446 sec (=  10.541 min)  98.8 %
CIS module                      ...        4.707 sec (=   0.078 min)   0.7 %
                             ****ORCA TERMINATED NORMALLY****
TOTAL RUN TIME: 0 days 0 hours 10 minutes 41 seconds 382 msec
