
                                 *****************
                                 * O   R   C   A *
                                 *****************

           --- An Ab Initio, DFT and Semiempirical electronic structure package ---

                  #######################################################
                  #                        -***-                        #
                  #          Department of theory and spectroscopy      #
                  #               Directorship: Frank Neese             #
                  #        Max Planck Institute fuer Kohlenforschung    #
                  #                Kaiser Wilhelm Platz 1               #
                  #                 D-45470 Muelheim/Ruhr               #
                  #                      Germany                        #
                  #                                                     #
                  #                  All rights reserved                #
                  #                        -***-                        #
                  #######################################################


                         Program Version 4.2.0 -  RELEASE  -


 With contributions from (in alphabetic order):
   Daniel Aravena         : Magnetic Suceptibility
   Michael Atanasov       : Ab Initio Ligand Field Theory (pilot matlab implementation)
   Alexander A. Auer      : GIAO ZORA, VPT2
   Ute Becker             : Parallelization
   Giovanni Bistoni       : ED, misc. LED, open-shell LED, HFLED
   Martin Brehm           : Molecular dynamics
   Dmytro Bykov           : SCF Hessian
   Vijay G. Chilkuri      : MRCI spin determinant printing, contributions to CSF-ICE
   Dipayan Datta          : RHF DLPNO-CCSD density
   Achintya Kumar Dutta   : EOM-CC, STEOM-CC
   Dmitry Ganyushin       : Spin-Orbit,Spin-Spin,Magnetic field MRCI
   Miquel Garcia          : C-PCM Hessian, Gaussian charge scheme
   Yang Guo               : DLPNO-NEVPT2, CIM, IAO-localization
   Andreas Hansen         : Spin unrestricted coupled pair/coupled cluster methods
   Benjamin Helmich-Paris : CASSCF linear response (MC-RPA)
   Lee Huntington         : MR-EOM, pCC
   Robert Izsak           : Overlap fitted RIJCOSX, COSX-SCS-MP3, EOM
   Christian Kollmar      : KDIIS, OOCD, Brueckner-CCSD(T), CCSD density
   Simone Kossmann        : Meta GGA functionals, TD-DFT gradient, OOMP2, MP2 Hessian
   Martin Krupicka        : AUTO-CI
   Lucas Lang             : DCDCAS
   Dagmar Lenk            : GEPOL surface, SMD
   Dimitrios Liakos       : Extrapolation schemes; Compound Job, initial MDCI parallelization
   Dimitrios Manganas     : Further ROCIS development; embedding schemes
   Dimitrios Pantazis     : SARC Basis sets
   Taras Petrenko         : DFT Hessian,TD-DFT gradient, ASA, ECA, R-Raman, ABS, FL, XAS/XES, NRVS
   Peter Pinski           : DLPNO-MP2, DLPNO-MP2 Gradient
   Christoph Reimann      : Effective Core Potentials
   Marius Retegan         : Local ZFS, SOC
   Christoph Riplinger    : Optimizer, TS searches, QM/MM, DLPNO-CCSD(T), (RO)-DLPNO pert. Triples
   Tobias Risthaus        : Range-separated hybrids, TD-DFT gradient, RPA, STAB
   Michael Roemelt        : Original ROCIS implementation
   Masaaki Saitow         : Open-shell DLPNO-CCSD energy and density
   Barbara Sandhoefer     : DKH picture change effects
   Avijit Sen             : IP-ROCIS
   Kantharuban Sivalingam : CASSCF convergence, NEVPT2, FIC-MRCI
   Bernardo de Souza      : ESD, SOC TD-DFT
   Georgi Stoychev        : AutoAux, RI-MP2 NMR
   Willem Van den Heuvel  : Paramagnetic NMR
   Boris Wezisla          : Elementary symmetry handling
   Frank Wennmohs         : Technical directorship


 We gratefully acknowledge several colleagues who have allowed us to
 interface, adapt or use parts of their codes:
   Stefan Grimme, W. Hujo, H. Kruse,             : VdW corrections, initial TS optimization,
                  C. Bannwarth                     DFT functionals, gCP, sTDA/sTD-DF
   Ed Valeev, F. Pavosevic, A. Kumar             : LibInt (2-el integral package), F12 methods
   Garnet Chan, S. Sharma, J. Yang, R. Olivares  : DMRG
   Ulf Ekstrom                                   : XCFun DFT Library
   Mihaly Kallay                                 : mrcc  (arbitrary order and MRCC methods)
   Andreas Klamt, Michael Diedenhofen            : otool_cosmo (COSMO solvation model)
   Jiri Pittner, Ondrej Demel                    : Mk-CCSD
   Frank Weinhold                                : gennbo (NPA and NBO analysis)
   Christopher J. Cramer and Donald G. Truhlar   : smd solvation model
   Lars Goerigk                                  : TD-DFT with DH, B97 family of functionals
   V. Asgeirsson, H. Jonsson                     : NEB implementation
   FAccTs GmbH                                   : IRC, NEB, NEB-TS, Multilevel, MM, QM/MM, CI optimization
   S Lehtola, MJT Oliveira, MAL Marques          : LibXC Library


 Your calculation uses the libint2 library for the computation of 2-el integrals
 For citations please refer to: http://libint.valeyev.net

 Your ORCA version has been built with support for libXC version: 4.2.3
 For citations please refer to: https://tddft.org/programs/libxc/

 This ORCA versions uses:
   CBLAS   interface :  Fast vector & matrix operations
   LAPACKE interface :  Fast linear algebra routines
   SCALAPACK package :  Parallel linear algebra routines


XCFun DFT library Copyright 2009-2010 Ulf Ekstrom and contributors.
See http://admol.org/xcfun for more information. This is free soft-
ware; see the source code for copying conditions. There is ABSOLUTELY
NO WARRANTY; not even for MERCHANTABILITY or FITNESS FOR A PARTICULAR
PURPOSE. For details see the documentation. Scientific users of this 
library should cite U. Ekstrom, L. Visscher, R. Bast, A. J. Thorvald-
sen and K. Ruud; J.Chem.Theor.Comp. 2010, DOI: 10.1021/ct100117s
XCFun Version 0.99 
----- Orbital basis set information -----
Your calculation utilizes the basis: def2-SVP
   F. Weigend and R. Ahlrichs, Phys. Chem. Chem. Phys. 7, 3297 (2005).

----- AuxJ basis set information -----
Your calculation utilizes the auxiliary basis: def2/J
   F. Weigend, Phys. Chem. Chem. Phys. 8, 1057 (2006).

================================================================================
                                        WARNINGS
                       Please study these warnings very carefully!
================================================================================

INFO   : Checking CIS options ...

WARNING: CIS/ROCIS methods need fully converged wavefunctions
  ===> : Setting SCFConvForced true
         You can overwrite this default with %scf ConvForced false 


INFO   : the flag for use of LIBINT has been found!

================================================================================
                                       INPUT FILE
================================================================================
NAME = xtbopt.inp
|  1> # ORCA input file
|  2> # SCF done       -210.543913437031          0.000582142289
|  3> ! CAM-B3LYP def2-SVP def2/J RIJCOSX Grid4 TightSCF
|  4> %maxcore 5000
|  5> %tddft
|  6>     Mode sTDDFT
|  7>     Ethresh 5.0
|  8>     maxcore 5000
|  9> end
| 10> 
| 11> %pal
| 12>   nprocs 6
| 13>   end
| 14> * xyz 0 1
| 15>    C        8.18405        -5.06786         4.26677
| 16>    S        7.56698        -3.47524         4.28276
| 17>    C        7.23752        -3.54181         2.56889
| 18>    C        7.57824        -4.77871         2.05144
| 19>    C        8.12802        -5.64322         3.03059
| 20>    C        8.59106        -7.03644         2.73782
| 21>    C        8.77859        -7.22810         1.23629
| 22>    C        7.52955        -6.74794         0.51022
| 23>    C        7.37962        -5.22372         0.62370
| 24>    O        6.14806        -4.80298         0.07710
| 25>    C        6.71443        -2.35139         1.98153
| 26>    C        6.67554        -2.05359         0.66945
| 27>    C        6.17023        -0.81297         0.14626
| 28>    C        6.84674        -0.14546        -0.89611
| 29>    C        8.07133        -0.64890        -1.52975
| 30>    O        8.70111        -1.63448        -1.27945
| 31>    S        8.56846         0.49720        -2.83398
| 32>    C        7.21169         1.62013        -2.50953
| 33>    O        7.01925         2.61834        -3.14214
| 34>    C        6.41589         1.08591        -1.39261
| 35>    C        5.29906         1.74705        -0.87550
| 36>    C        4.59174         1.06627         0.11709
| 37>    C        4.98907        -0.18572         0.59900
| 38>    C        4.00639        -0.80732         1.50037
| 39>    O        3.96750        -1.91741         1.94091
| 40>    S        2.68166         0.37903         1.82983
| 41>    C        3.36661         1.61144         0.72666
| 42>    O        2.86825         2.68466         0.55127
| 43>    C        4.91757         3.08244        -1.36720
| 44>    C        3.87859         3.24066        -2.24389
| 45>    C        3.60119         4.52341        -2.75773
| 46>    C        2.65080         4.95253        -3.68296
| 47>    C        1.61163         4.12081        -4.32849
| 48>    C        0.19120         4.69153        -4.12954
| 49>    N       -0.78157         3.76910        -4.68436
| 50>    C        1.89640         3.92482        -5.84852
| 51>    N        3.02479         3.08596        -6.14576
| 52>    C        2.89599         6.36150        -3.90657
| 53>    C        2.36683         7.23732        -4.78277
| 54>    C        2.83686         8.64999        -4.84707
| 55>    C        3.83247         9.03193        -3.80601
| 56>    C        4.39020         8.12919        -2.97263
| 57>    C        3.98372         6.77798        -3.01618
| 58>    C        4.41569         5.64454        -2.33353
| 59>    C        5.45115         5.44875        -1.40210
| 60>    C        5.69710         4.19089        -0.93858
| 61>    C        1.60433         9.51947        -4.87050
| 62>    C        1.11849        10.12942        -3.79976
| 63>    C       -0.09820        10.93682        -3.83354
| 64>    C       -1.34475        10.43315        -4.22562
| 65>    C       -1.59783         9.02112        -4.54664
| 66>    O       -0.82505         8.10336        -4.59400
| 67>    S       -3.34670         8.80104        -4.86502
| 68>    C       -3.72576        10.54422        -4.60694
| 69>    O       -4.83687        10.97392        -4.72011
| 70>    C       -2.48937        11.24641        -4.25512
| 71>    C       -2.45084        12.60433        -3.89878
| 72>    C       -1.19884        13.10137        -3.50593
| 73>    C       -0.06352        12.28699        -3.46796
| 74>    C        1.17344        12.97303        -3.07240
| 75>    O        2.27653        12.51132        -2.98353
| 76>    S        0.80102        14.69470        -2.74999
| 77>    C       -0.93941        14.51365        -3.19791
| 78>    O       -1.68309        15.44667        -3.25657
| 79>    C       -3.63293        13.44628        -3.89728
| 80>    S       -4.21644        14.08730        -2.39491
| 81>    C       -5.51631        14.90644        -3.20502
| 82>    C       -5.47067        14.68623        -4.56364
| 83>    C       -4.39888        13.85311        -4.95864
| 84>    C       -4.12622        13.50721        -6.38718
| 85>    C       -4.79233        14.52742        -7.30513
| 86>    C       -6.26565        14.64228        -6.93692
| 87>    C       -6.44126        15.28460        -5.55488
| 88>    O       -7.78350        15.19865        -5.12437
| 89>    C       -6.46657        15.69835        -2.47165
| 90>    C       -6.42527        15.89701        -1.15726
| 91>    H        8.55617        -5.50423         5.17284
| 92>    H        7.84127        -7.74503         3.10465
| 93>    H        9.51969        -7.23783         3.27567
| 94>    H        8.96196        -8.28077         1.01691
| 95>    H        9.64204        -6.65419         0.89397
| 96>    H        6.64667        -7.22450         0.94606
| 97>    H        7.56506        -7.01272        -0.54705
| 98>    H        8.14521        -4.74556        -0.00428
| 99>    H        5.43422        -5.06399         0.66980
|100>    H        6.39421        -1.60819         2.70170
|101>    H        7.10461        -2.72519        -0.05548
|102>    H        3.29921         2.38463        -2.55822
|103>    H        1.62385         3.12452        -3.87034
|104>    H        0.08462         5.64396        -4.64753
|105>    H        0.05002         4.87858        -3.05304
|106>    H       -0.87471         2.94559        -4.09942
|107>    H       -1.69009         4.20919        -4.75904
|108>    H        2.06725         4.89565        -6.31578
|109>    H        1.00188         3.47418        -6.28427
|110>    H        2.89977         2.14862        -5.78294
|111>    H        3.88832         3.46627        -5.77548
|112>    H        1.57945         6.96962        -5.47047
|113>    H        3.32912         8.77626        -5.82656
|114>    H        4.10809        10.07471        -3.77361
|115>    H        5.14160         8.42953        -2.25756
|116>    H        6.05037         6.28500        -1.07560
|117>    H        6.49712         4.01131        -0.23541
|118>    H        1.08953         9.57986        -5.81922
|119>    H        1.64801        10.10097        -2.85766
|120>    H       -4.54083        12.51462        -6.59165
|121>    H       -3.04905        13.46222        -6.56661
|122>    H       -4.68791        14.21290        -8.34471
|123>    H       -4.30768        15.49948        -7.19229
|124>    H       -6.71063        13.64304        -6.91884
|125>    H       -6.80760        15.23869        -7.67214
|126>    H       -6.24686        16.36359        -5.62733
|127>    H       -8.00778        14.26751        -5.00915
|128>    H       -7.24877        16.13970        -3.07358
|129>    H       -5.65263        15.46037        -0.54481
|130>    H       -7.15869        16.50269        -0.65557
|131> *
|132> 
|133>                          ****END OF INPUT****
================================================================================

                       ****************************
                       * Single Point Calculation *
                       ****************************

---------------------------------
CARTESIAN COORDINATES (ANGSTROEM)
---------------------------------
  C      8.184050   -5.067860    4.266770
  S      7.566980   -3.475240    4.282760
  C      7.237520   -3.541810    2.568890
  C      7.578240   -4.778710    2.051440
  C      8.128020   -5.643220    3.030590
  C      8.591060   -7.036440    2.737820
  C      8.778590   -7.228100    1.236290
  C      7.529550   -6.747940    0.510220
  C      7.379620   -5.223720    0.623700
  O      6.148060   -4.802980    0.077100
  C      6.714430   -2.351390    1.981530
  C      6.675540   -2.053590    0.669450
  C      6.170230   -0.812970    0.146260
  C      6.846740   -0.145460   -0.896110
  C      8.071330   -0.648900   -1.529750
  O      8.701110   -1.634480   -1.279450
  S      8.568460    0.497200   -2.833980
  C      7.211690    1.620130   -2.509530
  O      7.019250    2.618340   -3.142140
  C      6.415890    1.085910   -1.392610
  C      5.299060    1.747050   -0.875500
  C      4.591740    1.066270    0.117090
  C      4.989070   -0.185720    0.599000
  C      4.006390   -0.807320    1.500370
  O      3.967500   -1.917410    1.940910
  S      2.681660    0.379030    1.829830
  C      3.366610    1.611440    0.726660
  O      2.868250    2.684660    0.551270
  C      4.917570    3.082440   -1.367200
  C      3.878590    3.240660   -2.243890
  C      3.601190    4.523410   -2.757730
  C      2.650800    4.952530   -3.682960
  C      1.611630    4.120810   -4.328490
  C      0.191200    4.691530   -4.129540
  N     -0.781570    3.769100   -4.684360
  C      1.896400    3.924820   -5.848520
  N      3.024790    3.085960   -6.145760
  C      2.895990    6.361500   -3.906570
  C      2.366830    7.237320   -4.782770
  C      2.836860    8.649990   -4.847070
  C      3.832470    9.031930   -3.806010
  C      4.390200    8.129190   -2.972630
  C      3.983720    6.777980   -3.016180
  C      4.415690    5.644540   -2.333530
  C      5.451150    5.448750   -1.402100
  C      5.697100    4.190890   -0.938580
  C      1.604330    9.519470   -4.870500
  C      1.118490   10.129420   -3.799760
  C     -0.098200   10.936820   -3.833540
  C     -1.344750   10.433150   -4.225620
  C     -1.597830    9.021120   -4.546640
  O     -0.825050    8.103360   -4.594000
  S     -3.346700    8.801040   -4.865020
  C     -3.725760   10.544220   -4.606940
  O     -4.836870   10.973920   -4.720110
  C     -2.489370   11.246410   -4.255120
  C     -2.450840   12.604330   -3.898780
  C     -1.198840   13.101370   -3.505930
  C     -0.063520   12.286990   -3.467960
  C      1.173440   12.973030   -3.072400
  O      2.276530   12.511320   -2.983530
  S      0.801020   14.694700   -2.749990
  C     -0.939410   14.513650   -3.197910
  O     -1.683090   15.446670   -3.256570
  C     -3.632930   13.446280   -3.897280
  S     -4.216440   14.087300   -2.394910
  C     -5.516310   14.906440   -3.205020
  C     -5.470670   14.686230   -4.563640
  C     -4.398880   13.853110   -4.958640
  C     -4.126220   13.507210   -6.387180
  C     -4.792330   14.527420   -7.305130
  C     -6.265650   14.642280   -6.936920
  C     -6.441260   15.284600   -5.554880
  O     -7.783500   15.198650   -5.124370
  C     -6.466570   15.698350   -2.471650
  C     -6.425270   15.897010   -1.157260
  H      8.556170   -5.504230    5.172840
  H      7.841270   -7.745030    3.104650
  H      9.519690   -7.237830    3.275670
  H      8.961960   -8.280770    1.016910
  H      9.642040   -6.654190    0.893970
  H      6.646670   -7.224500    0.946060
  H      7.565060   -7.012720   -0.547050
  H      8.145210   -4.745560   -0.004280
  H      5.434220   -5.063990    0.669800
  H      6.394210   -1.608190    2.701700
  H      7.104610   -2.725190   -0.055480
  H      3.299210    2.384630   -2.558220
  H      1.623850    3.124520   -3.870340
  H      0.084620    5.643960   -4.647530
  H      0.050020    4.878580   -3.053040
  H     -0.874710    2.945590   -4.099420
  H     -1.690090    4.209190   -4.759040
  H      2.067250    4.895650   -6.315780
  H      1.001880    3.474180   -6.284270
  H      2.899770    2.148620   -5.782940
  H      3.888320    3.466270   -5.775480
  H      1.579450    6.969620   -5.470470
  H      3.329120    8.776260   -5.826560
  H      4.108090   10.074710   -3.773610
  H      5.141600    8.429530   -2.257560
  H      6.050370    6.285000   -1.075600
  H      6.497120    4.011310   -0.235410
  H      1.089530    9.579860   -5.819220
  H      1.648010   10.100970   -2.857660
  H     -4.540830   12.514620   -6.591650
  H     -3.049050   13.462220   -6.566610
  H     -4.687910   14.212900   -8.344710
  H     -4.307680   15.499480   -7.192290
  H     -6.710630   13.643040   -6.918840
  H     -6.807600   15.238690   -7.672140
  H     -6.246860   16.363590   -5.627330
  H     -8.007780   14.267510   -5.009150
  H     -7.248770   16.139700   -3.073580
  H     -5.652630   15.460370   -0.544810
  H     -7.158690   16.502690   -0.655570

----------------------------
CARTESIAN COORDINATES (A.U.)
----------------------------
  NO LB      ZA    FRAG     MASS         X           Y           Z
   0 C     6.0000    0    12.011   15.465613   -9.576867    8.063027
   1 S    16.0000    0    32.060   14.299520   -6.567252    8.093243
   2 C     6.0000    0    12.011   13.676931   -6.693051    4.854499
   3 C     6.0000    0    12.011   14.320798   -9.030453    3.876660
   4 C     6.0000    0    12.011   15.359732  -10.664140    5.726985
   5 C     6.0000    0    12.011   16.234751  -13.296945    5.173730
   6 C     6.0000    0    12.011   16.589131  -13.659129    2.336250
   7 C     6.0000    0    12.011   14.228787  -12.751759    0.964176
   8 C     6.0000    0    12.011   13.945461   -9.871400    1.178622
   9 O     8.0000    0    15.999   11.618150   -9.076317    0.145698
  10 C     6.0000    0    12.011   12.688434   -4.443483    3.744549
  11 C     6.0000    0    12.011   12.614942   -3.880723    1.265077
  12 C     6.0000    0    12.011   11.660045   -1.536291    0.276391
  13 C     6.0000    0    12.011   12.938464   -0.274880   -1.693402
  14 C     6.0000    0    12.011   15.252603   -1.226243   -2.890809
  15 O     8.0000    0    15.999   16.442715   -3.088720   -2.417810
  16 S    16.0000    0    32.060   16.192043    0.939572   -5.355446
  17 C     6.0000    0    12.011   13.628119    3.061602   -4.742324
  18 O     8.0000    0    15.999   13.264460    4.947946   -5.937784
  19 C     6.0000    0    12.011   12.124275    2.052073   -2.631652
  20 C     6.0000    0    12.011   10.013772    3.301446   -1.654455
  21 C     6.0000    0    12.011    8.677131    2.014958    0.221268
  22 C     6.0000    0    12.011    9.427976   -0.350960    1.131946
  23 C     6.0000    0    12.011    7.570980   -1.525614    2.835288
  24 O     8.0000    0    15.999    7.497488   -3.623380    3.667788
  25 S    16.0000    0    32.060    5.067603    0.716263    3.457878
  26 C     6.0000    0    12.011    6.361971    3.045180    1.373188
  27 O     8.0000    0    15.999    5.420207    5.073272    1.041749
  28 C     6.0000    0    12.011    9.292861    5.824967   -2.583634
  29 C     6.0000    0    12.011    7.329473    6.123960   -4.240338
  30 C     6.0000    0    12.011    6.805263    8.548006   -5.211354
  31 C     6.0000    0    12.011    5.009286    9.358925   -6.959786
  32 C     6.0000    0    12.011    3.045539    7.787202   -8.179661
  33 C     6.0000    0    12.011    0.361316    8.865707   -7.803700
  34 N     7.0000    0    14.007   -1.476953    7.122567   -8.852158
  35 C     6.0000    0    12.011    3.583677    7.416835  -11.052101
  36 N     7.0000    0    14.007    5.716025    5.831619  -11.613803
  37 C     6.0000    0    12.011    5.472628   12.021493   -7.382347
  38 C     6.0000    0    12.011    4.472661   13.676553   -9.038125
  39 C     6.0000    0    12.011    5.360888   16.346112   -9.159635
  40 C     6.0000    0    12.011    7.242319   17.067874   -7.192317
  41 C     6.0000    0    12.011    8.296276   15.361943   -5.617457
  42 C     6.0000    0    12.011    7.528140   12.808526   -5.699754
  43 C     6.0000    0    12.011    8.344445   10.666635   -4.409733
  44 C     6.0000    0    12.011   10.301181   10.296645   -2.649585
  45 C     6.0000    0    12.011   10.765959    7.919634   -1.773659
  46 C     6.0000    0    12.011    3.031744   17.989191   -9.203911
  47 C     6.0000    0    12.011    2.113640   19.141830   -7.180506
  48 C     6.0000    0    12.011   -0.185571   20.667595   -7.244341
  49 C     6.0000    0    12.011   -2.541209   19.715796   -7.985265
  50 C     6.0000    0    12.011   -3.019461   17.047446   -8.591904
  51 O     8.0000    0    15.999   -1.559119   15.313131   -8.681402
  52 S    16.0000    0    32.060   -6.324346   16.631555   -9.193555
  53 C     6.0000    0    12.011   -7.040666   19.925688   -8.705855
  54 O     8.0000    0    15.999   -9.140360   20.737703   -8.919715
  55 C     6.0000    0    12.011   -4.704228   21.252635   -8.041011
  56 C     6.0000    0    12.011   -4.631416   23.818732   -7.367626
  57 C     6.0000    0    12.011   -2.265479   24.758001   -6.625248
  58 C     6.0000    0    12.011   -0.120035   23.219046   -6.553495
  59 C     6.0000    0    12.011    2.217480   24.515474   -5.805995
  60 O     8.0000    0    15.999    4.302018   23.642968   -5.638055
  61 S    16.0000    0    32.060    1.513708   27.768959   -5.196728
  62 C     6.0000    0    12.011   -1.775228   27.426824   -6.043174
  63 O     8.0000    0    15.999   -3.180579   29.189976   -6.154025
  64 C     6.0000    0    12.011   -6.865243   25.409787   -7.364792
  65 S    16.0000    0    32.060   -7.967917   26.621139   -4.525724
  66 C     6.0000    0    12.011  -10.424315   28.169089   -6.056610
  67 C     6.0000    0    12.011  -10.338068   27.752953   -8.624030
  68 C     6.0000    0    12.011   -8.312678   26.178584   -9.370472
  69 C     6.0000    0    12.011   -7.797426   25.524928  -12.070021
  70 C     6.0000    0    12.011   -9.056191   27.452845  -13.804695
  71 C     6.0000    0    12.011  -11.840363   27.669899  -13.108879
  72 C     6.0000    0    12.011  -12.172217   28.883708  -10.497202
  73 O     8.0000    0    15.999  -14.708683   28.721286   -9.683656
  74 C     6.0000    0    12.011  -12.220046   29.665582   -4.670742
  75 C     6.0000    0    12.011  -12.142001   30.040995   -2.186904
  76 H     1.0000    0     1.008   16.168818  -10.401487    9.775251
  77 H     1.0000    0     1.008   14.817853  -14.635986    5.866938
  78 H     1.0000    0     1.008   17.989607  -13.677517    6.190119
  79 H     1.0000    0     1.008   16.935650  -15.648387    1.921681
  80 H     1.0000    0     1.008   18.220815  -12.574597    1.689358
  81 H     1.0000    0     1.008   12.560386  -13.652326    1.787794
  82 H     1.0000    0     1.008   14.295892  -13.252120   -1.033775
  83 H     1.0000    0     1.008   15.392216   -8.967809   -0.008088
  84 H     1.0000    0     1.008   10.269188   -9.569554    1.265739
  85 H     1.0000    0     1.008   12.083306   -3.039039    5.105473
  86 H     1.0000    0     1.008   13.425767   -5.149863   -0.104842
  87 H     1.0000    0     1.008    6.234603    4.506298   -4.834335
  88 H     1.0000    0     1.008    3.068632    5.904487   -7.313883
  89 H     1.0000    0     1.008    0.159909   10.665539   -8.782559
  90 H     1.0000    0     1.008    0.094524    9.219180   -5.769409
  91 H     1.0000    0     1.008   -1.652962    5.566358   -7.746781
  92 H     1.0000    0     1.008   -3.193807    7.954216   -8.993282
  93 H     1.0000    0     1.008    3.906536    9.251438  -11.935095
  94 H     1.0000    0     1.008    1.893279    6.565249  -11.875549
  95 H     1.0000    0     1.008    5.479771    4.060303  -10.928173
  96 H     1.0000    0     1.008    7.347860    6.550301  -10.914075
  97 H     1.0000    0     1.008    2.984728   13.170673  -10.337690
  98 H     1.0000    0     1.008    6.291125   16.584728  -11.010603
  99 H     1.0000    0     1.008    7.763165   19.038443   -7.131089
 100 H     1.0000    0     1.008    9.716216   15.929503   -4.266170
 101 H     1.0000    0     1.008   11.433542   11.876929   -2.032589
 102 H     1.0000    0     1.008   12.277777    7.580277   -0.444860
 103 H     1.0000    0     1.008    2.058913   18.103312  -10.996732
 104 H     1.0000    0     1.008    3.114288   19.088067   -5.400195
 105 H     1.0000    0     1.008   -8.580925   23.649204  -12.456413
 106 H     1.0000    0     1.008   -5.761869   25.439909  -12.409095
 107 H     1.0000    0     1.008   -8.858866   26.858489  -15.769217
 108 H     1.0000    0     1.008   -8.140335   29.289772  -13.591458
 109 H     1.0000    0     1.008  -12.681253   25.781609  -13.074713
 110 H     1.0000    0     1.008  -12.864500   28.796951  -14.498243
 111 H     1.0000    0     1.008  -11.804855   30.922704  -10.634113
 112 H     1.0000    0     1.008  -15.132511   26.961687   -9.465922
 113 H     1.0000    0     1.008  -13.698190   30.499613   -5.808224
 114 H     1.0000    0     1.008  -10.681923   29.215865   -1.029542
 115 H     1.0000    0     1.008  -13.527964   31.185565   -1.238848

--------------------------------
INTERNAL COORDINATES (ANGSTROEM)
--------------------------------
 C      0   0   0     0.000000000000     0.00000000     0.00000000
 S      1   0   0     1.708060165626     0.00000000     0.00000000
 C      2   1   0     1.746518202997    91.34215936     0.00000000
 C      3   2   1     1.383389399591   110.77335848     1.36990553
 C      1   2   3     1.364668268445   112.75329497   359.00787681
 C      5   1   2     1.497057875601   123.83613367   180.56983087
 C      6   5   1     1.525284693885   110.33357446   196.65896168
 C      7   6   5     1.522442837055   109.20719512   309.92714813
 C      4   3   2     1.508617019691   125.82483725   177.18437459
 O      9   4   3     1.411571373045   113.16704934   319.49848212
 C      3   2   1     1.426784739931   116.18869412   182.55643194
 C     11   3   2     1.346013075159   126.61787039   163.43440142
 C     12  11   3     1.438125153316   123.75492652   182.02088958
 C     13  12  11     1.410592285921   120.56689476   137.59439746
 C     14  13  12     1.467846092511   123.83515203     0.88634493
 O     15  14  13     1.196094007509   129.16464224   358.16311214
 S     15  14  13     1.806017535851   108.88879235   178.68418349
 C     17  15  14     1.790827858924    93.35614878     1.27997311
 O     18  17  15     1.197351982418   123.28477010   181.50512849
 C     14  13  12     1.395856743867   122.15836172   182.59751001
 C     20  14  13     1.397074837151   122.17841729     1.02087818
 C     21  20  14     1.396065148516   115.93926088   356.41850800
 C     22  21  20     1.399138069348   122.50447007     1.72819936
 C     23  22  21     1.471228880664   113.54134572   188.11916415
 O     24  23  22     1.194942564226   129.80013941   169.87040663
 S     24  23  22     1.808557377304   108.88715936   353.32666616
 C     22  21  20     1.473000146198   122.35363984   182.14802853
 O     27  22  21     1.196212986930   128.16200491   354.66358308
 C     21  20  14     1.473285431340   120.82409864   176.32854603
 C     29  21  20     1.368611838653   121.00710463   102.59643461
 C     30  29  21     1.409407630212   119.22042038   184.11190216
 C     31  30  29     1.394071619179   131.01844523   177.53227895
 C     32  31  30     1.479304373075   126.54479888     3.29807380
 C     33  32  31     1.543672182103   112.47501289   125.20200509
 N     34  33  32     1.450856233470   109.42705735   184.95581236
 C     33  32  31     1.558844839585   111.58428525   249.23368954
 N     36  33  32     1.437115760577   114.74028467    70.12736486
 C     32  31  30     1.447520648937   106.65860255   184.36536356
 C     38  32  31     1.347144171201   131.81716561   172.84895664
 C     39  38  32     1.490201066903   121.36416910   182.45836156
 C     40  39  38     1.490276269455   115.05769209   355.02214798
 C     41  40  39     1.349268129358   122.42216195     7.79963206
 C     42  41  40     1.411697934050   120.15336446   356.50232507
 C     43  42  41     1.391867571646   132.44994924   176.78416515
 C     44  43  42     1.406439824735   131.81002330   356.82871100
 C     45  44  43     1.362921117490   119.11519694   183.46517937
 C     40  39  38     1.508533936045   106.81916587   227.21793058
 C     47  40  39     1.324599432168   123.54065384    99.09228991
 C     48  47  40     1.460606177072   122.77773696   181.80023919
 C     49  48  47     1.400463172597   123.30691183    58.92116354
 C     50  49  48     1.470010900538   124.04470332     4.92417699
 O     51  50  49     1.200714502119   129.19837491   356.24263389
 S     51  50  49     1.791186005891   108.96153623   175.39766978
 C     53  51  50     1.802489468041    93.50034056     0.91608571
 O     54  53  51     1.196668279433   121.93701935   179.18230423
 C     50  49  48     1.404427649258   121.53765342   180.55046524
 C     56  50  49     1.404424965208   122.15454499     0.16252050
 C     57  56  50     1.403169228604   115.97716370   359.78855089
 C     58  57  56     1.397715281343   121.73387570   359.72083313
 C     59  58  57     1.468737089067   114.78722155   178.30154732
 O     60  59  58     1.199116987245   127.94159537   181.28986482
 S     60  59  58     1.790751924025   108.80904932     0.24033568
 C     58  57  56     1.468575855617   123.84803815   175.13173114
 O     63  58  57     1.194582461951   129.11125901   357.75539964
 C     57  56  50     1.451281785388   122.60526866   181.39904920
 S     65  57  56     1.734504591346   119.29533587   114.46108482
 C     66  65  57     1.736931365541    91.26455731   179.59568492
 C     67  66  65     1.377107024926   111.09568300   359.57951806
 C     65  57  56     1.370647693975   128.79713569   293.56132807
 C     69  65  57     1.494896925276   124.70639890   358.68564007
 C     70  69  65     1.525504237523   109.91577111   202.41579868
 C     71  70  69     1.522971846785   109.10915520   307.14607470
 C     68  67  66     1.510843586411   124.23952403   181.48479940
 O     73  68  67     1.412209078076   112.73541581   315.08899406
 C     67  66  65     1.438035838427   121.08950002   179.95990031
 C     75  67  66     1.329959607545   124.45423219     1.55672470
 H      1   2   3     1.072312881672   119.79504611   179.19710687
 H      6   5   1     1.094919668789   108.96246263    76.49463322
 H      6   5   1     1.091876472638   109.77784614   319.20979641
 H      7   6   5     1.090809914788   109.87164627   188.86842673
 H      7   6   5     1.091834040960   109.86623955    70.01898141
 H      8   7   6     1.093866094913   109.55739444   307.91867104
 H      8   7   6     1.090499546722   111.04403547   188.87153972
 H      9   4   3     1.099601707029   108.69587633    75.57516160
 H     10   9   4     0.963839745860   109.10714481   307.87674142
 H     11   3   2     1.083296781727   114.02272869   348.24117900
 H     12  11   3     1.077344480563   120.43058623   357.19162056
 H     30  29  21     1.080403579317   120.12386216     2.30870447
 H     33  32  31     1.096651501162   108.70229734     6.90779003
 H     34  33  32     1.089401597851   110.60806153    66.13822018
 H     34  33  32     1.101713095547   107.85549336   308.62617670
 H     35  34  33     1.014395673936   110.92797804    72.82257060
 H     35  34  33     1.012257329388   110.70565097   193.01390819
 H     36  33  32     1.090886116421   109.53514757   308.57822323
 H     36  33  32     1.092300555021   106.93359030   190.67383771
 H     37  36  33     1.012854692639   111.66533367    60.93860256
 H     37  36  33     1.013620755214   111.98404725   298.69887183
 H     39  38  32     1.079148666496   122.67055450     2.96354706
 H     40  39  38     1.103478445915   106.70723955   113.55813839
 H     41  40  39     1.079076583380   116.05810340   186.02375717
 H     42  41  40     1.079875539356   120.69964018   177.25356136
 H     45  44  43     1.079342818988   120.08002724     2.42670405
 H     46  45  44     1.080152315972   120.56352387   178.97859022
 H     47  40  39     1.081080769647   115.77844235   282.40816514
 H     48  47  40     1.081088915353   120.84093888     5.65709297
 H     70  69  65     1.094963168833   108.61078799    83.02767830
 H     70  69  65     1.092938440124   110.25334937   325.15315145
 H     71  70  69     1.091124623130   109.80059912   186.32043875
 H     71  70  69     1.092025243161   109.83633290    67.43645242
 H     72  71  70     1.093990248768   109.18370056   308.10804734
 H     72  71  70     1.090854316121   111.03261954   189.18261925
 H     73  68  67     1.098753740653   108.57382089    70.20869800
 H     74  73  68     0.964675523894   108.42909285   299.69532772
 H     75  67  66     1.081178240347   114.76804136   181.64103157
 H     76  75  67     1.078295906373   121.54008679   359.89782866
 H     76  75  67     1.075381799595   121.60180131   179.71511801

---------------------------
INTERNAL COORDINATES (A.U.)
---------------------------
 C      0   0   0     0.000000000000     0.00000000     0.00000000
 S      1   0   0     3.227765933294     0.00000000     0.00000000
 C      2   1   0     3.300441091573    91.34215936     0.00000000
 C      3   2   1     2.614227101796   110.77335848     1.36990553
 C      1   2   3     2.578849291013   112.75329497   359.00787681
 C      5   1   2     2.829029391516   123.83613367   180.56983087
 C      6   5   1     2.882370347705   110.33357446   196.65896168
 C      7   6   5     2.877000016584   109.20719512   309.92714813
 C      4   3   2     2.850873008188   125.82483725   177.18437459
 O      9   4   3     2.667483313538   113.16704934   319.49848212
 C      3   2   1     2.696232410528   116.18869412   182.55643194
 C     11   3   2     2.543596084728   126.61787039   163.43440142
 C     12  11   3     2.717662686071   123.75492652   182.02088958
 C     13  12  11     2.665633107013   120.56689476   137.59439746
 C     14  13  12     2.773827121592   123.83515203     0.88634493
 O     15  14  13     2.260290104617   129.16464224   358.16311214
 S     15  14  13     3.412878535817   108.88879235   178.68418349
 C     17  15  14     3.384174206364    93.35614878     1.27997311
 O     18  17  15     2.262667332677   123.28477010   181.50512849
 C     14  13  12     2.637786968096   122.15836172   182.59751001
 C     20  14  13     2.640088830808   122.17841729     1.02087818
 C     21  20  14     2.638180795807   115.93926088   356.41850800
 C     22  21  20     2.643987774612   122.50447007     1.72819936
 C     23  22  21     2.780219664771   113.54134572   188.11916415
 O     24  23  22     2.258114192154   129.80013941   169.87040663
 S     24  23  22     3.417678140587   108.88715936   353.32666616
 C     22  21  20     2.783566871541   122.35363984   182.14802853
 O     27  22  21     2.260514943138   128.16200491   354.66358308
 C     21  20  14     2.784105982329   120.82409864   176.32854603
 C     29  21  20     2.586301558696   121.00710463   102.59643461
 C     30  29  21     2.663394432160   119.22042038   184.11190216
 C     31  30  29     2.634413571320   131.01844523   177.53227895
 C     32  31  30     2.795480133825   126.54479888     3.29807380
 C     33  32  31     2.917117664728   112.47501289   125.20200509
 N     34  33  32     2.741720940952   109.42705735   184.95581236
 C     33  32  31     2.945789832092   111.58428525   249.23368954
 N     36  33  32     2.715755210233   114.74028467    70.12736486
 C     32  31  30     2.735417599688   106.65860255   184.36536356
 C     38  32  31     2.545733546478   131.81716561   172.84895664
 C     39  38  32     2.816071900925   121.36416910   182.45836156
 C     40  39  38     2.816214013151   115.05769209   355.02214798
 C     41  40  39     2.549747245714   122.42216195     7.79963206
 C     42  41  40     2.667722479176   120.15336446   356.50232507
 C     43  42  41     2.630248525097   132.44994924   176.78416515
 C     44  43  42     2.657786092589   131.81002330   356.82871100
 C     45  44  43     2.575547654194   119.11519694   183.46517937
 C     40  39  38     2.850716002852   106.81916587   227.21793058
 C     47  40  39     2.503130163945   123.54065384    99.09228991
 C     48  47  40     2.760145664179   122.77773696   181.80023919
 C     49  48  47     2.646491856851   123.30691183    58.92116354
 C     50  49  48     2.777918015895   124.04470332     4.92417699
 O     51  50  49     2.269021574033   129.19837491   356.24263389
 S     51  50  49     3.384851006046   108.96153623   175.39766978
 C     53  51  50     3.406211453876    93.50034056     0.91608571
 O     54  53  51     2.261375321278   121.93701935   179.18230423
 C     50  49  48     2.653983632004   121.53765342   180.55046524
 C     56  50  49     2.653978559885   122.15454499     0.16252050
 C     57  56  50     2.651605561606   115.97716370   359.78855089
 C     58  57  56     2.641299094935   121.73387570   359.72083313
 C     59  58  57     2.775510861069   114.78722155   178.30154732
 O     60  59  58     2.266002708426   127.94159537   181.28986482
 S     60  59  58     3.384030710200   108.80904932     0.24033568
 C     58  57  56     2.775206174004   123.84803815   175.13173114
 O     63  58  57     2.257433697472   129.11125901   357.75539964
 C     57  56  50     2.742525117532   122.60526866   181.39904920
 S     65  57  56     3.277738655673   119.29533587   114.46108482
 C     66  65  57     3.282324594290    91.26455731   179.59568492
 C     67  66  65     2.602355134209   111.09568300   359.57951806
 C     65  57  56     2.590148767704   128.79713569   293.56132807
 C     69  65  57     2.824945787213   124.70639890   358.68564007
 C     70  69  65     2.882785225054   109.91577111   202.41579868
 C     71  70  69     2.877999700096   109.10915520   307.14607470
 C     68  67  66     2.855080609509   124.23952403   181.48479940
 O     73  68  67     2.668688401401   112.73541581   315.08899406
 C     67  66  65     2.717493905391   121.08950002   179.95990031
 C     75  67  66     2.513259427437   124.45423219     1.55672470
 H      1   2   3     2.026377676236   119.79504611   179.19710687
 H      6   5   1     2.069098312654   108.96246263    76.49463322
 H      6   5   1     2.063347505357   109.77784614   319.20979641
 H      7   6   5     2.061332003115   109.87164627   188.86842673
 H      7   6   5     2.063267321108   109.86623955    70.01898141
 H      8   7   6     2.067107346567   109.55739444   307.91867104
 H      8   7   6     2.060745492469   111.04403547   188.87153972
 H      9   4   3     2.077946082676   108.69587633    75.57516160
 H     10   9   4     1.821393156664   109.10714481   307.87674142
 H     11   3   2     2.047134239222   114.02272869   348.24117900
 H     12  11   3     2.035886020156   120.43058623   357.19162056
 H     30  29  21     2.041666879017   120.12386216     2.30870447
 H     33  32  31     2.072371001549   108.70229734     6.90779003
 H     34  33  32     2.058670669794   110.60806153    66.13822018
 H     34  33  32     2.081936028739   107.85549336   308.62617670
 H     35  34  33     1.916930015173   110.92797804    72.82257060
 H     35  34  33     1.912889129598   110.70565097   193.01390819
 H     36  33  32     2.061476003333   109.53514757   308.57822323
 H     36  33  32     2.064148904921   106.93359030   190.67383771
 H     37  36  33     1.914017982544   111.66533367    60.93860256
 H     37  36  33     1.915465631012   111.98404725   298.69887183
 H     39  38  32     2.039295437464   122.67055450     2.96354706
 H     40  39  38     2.085272057465   106.70723955   113.55813839
 H     41  40  39     2.039159220116   116.05810340   186.02375717
 H     42  41  40     2.040669028104   120.69964018   177.25356136
 H     45  44  43     2.039662332501   120.08002724     2.42670405
 H     46  45  44     2.041192060108   120.56352387   178.97859022
 H     47  40  39     2.042946583281   115.77844235   282.40816514
 H     48  47  40     2.042961976436   120.84093888     5.65709297
 H     70  69  65     2.069180515824   108.61078799    83.02767830
 H     70  69  65     2.065354333069   110.25334937   325.15315145
 H     71  70  69     2.061926715693   109.80059912   186.32043875
 H     71  70  69     2.063628640902   109.83633290    67.43645242
 H     72  71  70     2.067341963352   109.18370056   308.10804734
 H     72  71  70     2.061415909475   111.03261954   189.18261925
 H     73  68  67     2.076343658457   108.57382089    70.20869800
 H     74  73  68     1.822972548257   108.42909285   299.69532772
 H     75  67  66     2.043130776211   114.76804136   181.64103157
 H     76  75  67     2.037683954373   121.54008679   359.89782866
 H     76  75  67     2.032177090638   121.60180131   179.71511801

---------------------
BASIS SET INFORMATION
---------------------
There are 5 groups of distinct atoms

 Group   1 Type C   : 7s4p1d contracted to 3s2p1d pattern {511/31/1}
 Group   2 Type S   : 10s7p1d contracted to 4s3p1d pattern {5311/511/1}
 Group   3 Type O   : 7s4p1d contracted to 3s2p1d pattern {511/31/1}
 Group   4 Type N   : 7s4p1d contracted to 3s2p1d pattern {511/31/1}
 Group   5 Type H   : 4s1p contracted to 2s1p pattern {31/1}

Atom   0C    basis set group =>   1
Atom   1S    basis set group =>   2
Atom   2C    basis set group =>   1
Atom   3C    basis set group =>   1
Atom   4C    basis set group =>   1
Atom   5C    basis set group =>   1
Atom   6C    basis set group =>   1
Atom   7C    basis set group =>   1
Atom   8C    basis set group =>   1
Atom   9O    basis set group =>   3
Atom  10C    basis set group =>   1
Atom  11C    basis set group =>   1
Atom  12C    basis set group =>   1
Atom  13C    basis set group =>   1
Atom  14C    basis set group =>   1
Atom  15O    basis set group =>   3
Atom  16S    basis set group =>   2
Atom  17C    basis set group =>   1
Atom  18O    basis set group =>   3
Atom  19C    basis set group =>   1
Atom  20C    basis set group =>   1
Atom  21C    basis set group =>   1
Atom  22C    basis set group =>   1
Atom  23C    basis set group =>   1
Atom  24O    basis set group =>   3
Atom  25S    basis set group =>   2
Atom  26C    basis set group =>   1
Atom  27O    basis set group =>   3
Atom  28C    basis set group =>   1
Atom  29C    basis set group =>   1
Atom  30C    basis set group =>   1
Atom  31C    basis set group =>   1
Atom  32C    basis set group =>   1
Atom  33C    basis set group =>   1
Atom  34N    basis set group =>   4
Atom  35C    basis set group =>   1
Atom  36N    basis set group =>   4
Atom  37C    basis set group =>   1
Atom  38C    basis set group =>   1
Atom  39C    basis set group =>   1
Atom  40C    basis set group =>   1
Atom  41C    basis set group =>   1
Atom  42C    basis set group =>   1
Atom  43C    basis set group =>   1
Atom  44C    basis set group =>   1
Atom  45C    basis set group =>   1
Atom  46C    basis set group =>   1
Atom  47C    basis set group =>   1
Atom  48C    basis set group =>   1
Atom  49C    basis set group =>   1
Atom  50C    basis set group =>   1
Atom  51O    basis set group =>   3
Atom  52S    basis set group =>   2
Atom  53C    basis set group =>   1
Atom  54O    basis set group =>   3
Atom  55C    basis set group =>   1
Atom  56C    basis set group =>   1
Atom  57C    basis set group =>   1
Atom  58C    basis set group =>   1
Atom  59C    basis set group =>   1
Atom  60O    basis set group =>   3
Atom  61S    basis set group =>   2
Atom  62C    basis set group =>   1
Atom  63O    basis set group =>   3
Atom  64C    basis set group =>   1
Atom  65S    basis set group =>   2
Atom  66C    basis set group =>   1
Atom  67C    basis set group =>   1
Atom  68C    basis set group =>   1
Atom  69C    basis set group =>   1
Atom  70C    basis set group =>   1
Atom  71C    basis set group =>   1
Atom  72C    basis set group =>   1
Atom  73O    basis set group =>   3
Atom  74C    basis set group =>   1
Atom  75C    basis set group =>   1
Atom  76H    basis set group =>   5
Atom  77H    basis set group =>   5
Atom  78H    basis set group =>   5
Atom  79H    basis set group =>   5
Atom  80H    basis set group =>   5
Atom  81H    basis set group =>   5
Atom  82H    basis set group =>   5
Atom  83H    basis set group =>   5
Atom  84H    basis set group =>   5
Atom  85H    basis set group =>   5
Atom  86H    basis set group =>   5
Atom  87H    basis set group =>   5
Atom  88H    basis set group =>   5
Atom  89H    basis set group =>   5
Atom  90H    basis set group =>   5
Atom  91H    basis set group =>   5
Atom  92H    basis set group =>   5
Atom  93H    basis set group =>   5
Atom  94H    basis set group =>   5
Atom  95H    basis set group =>   5
Atom  96H    basis set group =>   5
Atom  97H    basis set group =>   5
Atom  98H    basis set group =>   5
Atom  99H    basis set group =>   5
Atom 100H    basis set group =>   5
Atom 101H    basis set group =>   5
Atom 102H    basis set group =>   5
Atom 103H    basis set group =>   5
Atom 104H    basis set group =>   5
Atom 105H    basis set group =>   5
Atom 106H    basis set group =>   5
Atom 107H    basis set group =>   5
Atom 108H    basis set group =>   5
Atom 109H    basis set group =>   5
Atom 110H    basis set group =>   5
Atom 111H    basis set group =>   5
Atom 112H    basis set group =>   5
Atom 113H    basis set group =>   5
Atom 114H    basis set group =>   5
Atom 115H    basis set group =>   5
---------------------------------
AUXILIARY/J BASIS SET INFORMATION
---------------------------------
There are 5 groups of distinct atoms

 Group   1 Type C   : 12s5p4d2f1g contracted to 6s4p3d1f1g pattern {711111/2111/211/2/1}
 Group   2 Type S   : 14s5p5d2f1g contracted to 8s4p3d1f1g pattern {71111111/2111/311/2/1}
 Group   3 Type O   : 12s5p4d2f1g contracted to 6s4p3d1f1g pattern {711111/2111/211/2/1}
 Group   4 Type N   : 12s5p4d2f1g contracted to 6s4p3d1f1g pattern {711111/2111/211/2/1}
 Group   5 Type H   : 5s2p1d contracted to 3s1p1d pattern {311/2/1}

Atom   0C    basis set group =>   1
Atom   1S    basis set group =>   2
Atom   2C    basis set group =>   1
Atom   3C    basis set group =>   1
Atom   4C    basis set group =>   1
Atom   5C    basis set group =>   1
Atom   6C    basis set group =>   1
Atom   7C    basis set group =>   1
Atom   8C    basis set group =>   1
Atom   9O    basis set group =>   3
Atom  10C    basis set group =>   1
Atom  11C    basis set group =>   1
Atom  12C    basis set group =>   1
Atom  13C    basis set group =>   1
Atom  14C    basis set group =>   1
Atom  15O    basis set group =>   3
Atom  16S    basis set group =>   2
Atom  17C    basis set group =>   1
Atom  18O    basis set group =>   3
Atom  19C    basis set group =>   1
Atom  20C    basis set group =>   1
Atom  21C    basis set group =>   1
Atom  22C    basis set group =>   1
Atom  23C    basis set group =>   1
Atom  24O    basis set group =>   3
Atom  25S    basis set group =>   2
Atom  26C    basis set group =>   1
Atom  27O    basis set group =>   3
Atom  28C    basis set group =>   1
Atom  29C    basis set group =>   1
Atom  30C    basis set group =>   1
Atom  31C    basis set group =>   1
Atom  32C    basis set group =>   1
Atom  33C    basis set group =>   1
Atom  34N    basis set group =>   4
Atom  35C    basis set group =>   1
Atom  36N    basis set group =>   4
Atom  37C    basis set group =>   1
Atom  38C    basis set group =>   1
Atom  39C    basis set group =>   1
Atom  40C    basis set group =>   1
Atom  41C    basis set group =>   1
Atom  42C    basis set group =>   1
Atom  43C    basis set group =>   1
Atom  44C    basis set group =>   1
Atom  45C    basis set group =>   1
Atom  46C    basis set group =>   1
Atom  47C    basis set group =>   1
Atom  48C    basis set group =>   1
Atom  49C    basis set group =>   1
Atom  50C    basis set group =>   1
Atom  51O    basis set group =>   3
Atom  52S    basis set group =>   2
Atom  53C    basis set group =>   1
Atom  54O    basis set group =>   3
Atom  55C    basis set group =>   1
Atom  56C    basis set group =>   1
Atom  57C    basis set group =>   1
Atom  58C    basis set group =>   1
Atom  59C    basis set group =>   1
Atom  60O    basis set group =>   3
Atom  61S    basis set group =>   2
Atom  62C    basis set group =>   1
Atom  63O    basis set group =>   3
Atom  64C    basis set group =>   1
Atom  65S    basis set group =>   2
Atom  66C    basis set group =>   1
Atom  67C    basis set group =>   1
Atom  68C    basis set group =>   1
Atom  69C    basis set group =>   1
Atom  70C    basis set group =>   1
Atom  71C    basis set group =>   1
Atom  72C    basis set group =>   1
Atom  73O    basis set group =>   3
Atom  74C    basis set group =>   1
Atom  75C    basis set group =>   1
Atom  76H    basis set group =>   5
Atom  77H    basis set group =>   5
Atom  78H    basis set group =>   5
Atom  79H    basis set group =>   5
Atom  80H    basis set group =>   5
Atom  81H    basis set group =>   5
Atom  82H    basis set group =>   5
Atom  83H    basis set group =>   5
Atom  84H    basis set group =>   5
Atom  85H    basis set group =>   5
Atom  86H    basis set group =>   5
Atom  87H    basis set group =>   5
Atom  88H    basis set group =>   5
Atom  89H    basis set group =>   5
Atom  90H    basis set group =>   5
Atom  91H    basis set group =>   5
Atom  92H    basis set group =>   5
Atom  93H    basis set group =>   5
Atom  94H    basis set group =>   5
Atom  95H    basis set group =>   5
Atom  96H    basis set group =>   5
Atom  97H    basis set group =>   5
Atom  98H    basis set group =>   5
Atom  99H    basis set group =>   5
Atom 100H    basis set group =>   5
Atom 101H    basis set group =>   5
Atom 102H    basis set group =>   5
Atom 103H    basis set group =>   5
Atom 104H    basis set group =>   5
Atom 105H    basis set group =>   5
Atom 106H    basis set group =>   5
Atom 107H    basis set group =>   5
Atom 108H    basis set group =>   5
Atom 109H    basis set group =>   5
Atom 110H    basis set group =>   5
Atom 111H    basis set group =>   5
Atom 112H    basis set group =>   5
Atom 113H    basis set group =>   5
Atom 114H    basis set group =>   5
Atom 115H    basis set group =>   5


           ************************************************************
           *        Program running with 6 parallel MPI-processes     *
           *              working on a common directory               *
           ************************************************************
------------------------------------------------------------------------------
                           ORCA GTO INTEGRAL CALCULATION
                           -- RI-GTO INTEGRALS CHOSEN --
------------------------------------------------------------------------------

                         BASIS SET STATISTICS AND STARTUP INFO

Gaussian basis set:
 # of primitive gaussian shells          ... 1148
 # of primitive gaussian functions       ... 2176
 # of contracted shells                  ...  588
 # of contracted basis functions         ... 1288
 Highest angular momentum                ...    2
 Maximum contraction depth               ...    5
Auxiliary gaussian basis set:
 # of primitive gaussian shells          ... 2162
 # of primitive gaussian functions       ... 6002
 # of contracted shells                  ... 1352
 # of contracted aux-basis functions     ... 4176
 Highest angular momentum                ...    4
 Maximum contraction depth               ...    7
Ratio of auxiliary to basis functions    ...  3.24
Integral package used                  ... LIBINT
 One Electron integrals                  ... done
 Ordering auxiliary basis shells         ... done
 Integral threshhold             Thresh  ...  2.500e-11
 Primitive cut-off               TCut    ...  2.500e-12
 Pre-screening matrix                    ... done
 Shell pair data                         ... 
 Ordering of the shell pairs             ... done (   0.012 sec) 56190 of 173166 pairs
 Determination of significant pairs      ... done (   0.000 sec)
 Creation of shell pair data             ... done (   0.007 sec)
 Storage of shell pair data              ... done (   0.011 sec)
 Shell pair data done in (   0.031 sec)
 Computing two index integrals           ... done
 Cholesky decomposition of the V-matrix  ... done


Timings:
 Total evaluation time                   ...   2.659 sec (  0.044 min)
 One electron matrix time                ...   0.761 sec (  0.013 min) = 28.6%
 Schwartz matrix evaluation time         ...   0.800 sec (  0.013 min) = 30.1%
 Two index repulsion integral time       ...   0.420 sec (  0.007 min) = 15.8%
 Cholesky decomposition of V             ...   0.630 sec (  0.010 min) = 23.7%
 Three index repulsion integral time     ...   0.000 sec (  0.000 min) =  0.0%



           ************************************************************
           *        Program running with 6 parallel MPI-processes     *
           *              working on a common directory               *
           ************************************************************
-------------------------------------------------------------------------------
                                 ORCA SCF
-------------------------------------------------------------------------------

------------
SCF SETTINGS
------------
Hamiltonian:
 Density Functional     Method          .... DFT(GTOs)
 Exchange Functional    Exchange        .... WB88
 Correlation Functional Correlation     .... LYP
 LDA part of GGA corr.  LDAOpt          .... VWN-5
 Gradients option       PostSCFGGA      .... off
 Hybrid DFT is turned on
   Fraction HF Exchange ScalHFX         ....  0.190000
   Scaling of DF-GGA-X  ScalDFX         ....  0.350000
   Scaling of DF-GGA-C  ScalDFC         ....  0.810000
   Scaling of DF-LDA-C  ScalLDAC        ....  1.000000
   Perturbative correction              ....  0.000000
   Density functional embedding theory  .... OFF
 Long-range corrected/Screened/Range-Separated Hybrid DFT is turned on
   Amount of maximum screened exact exchange              ....  0.460000
   Range separation parameter mu (erf(mu*r12)/r12)        ....  0.330000
 RI-approximation to the Coulomb term is turned on
   Number of auxiliary basis functions  .... 4176
   RIJ-COSX (HFX calculated with COS-X)).... on


General Settings:
 Integral files         IntName         .... xtbopt
 Hartree-Fock type      HFTyp           .... RHF
 Total Charge           Charge          ....    0
 Multiplicity           Mult            ....    1
 Number of Electrons    NEL             ....  578
 Basis Dimension        Dim             .... 1288
 Nuclear Repulsion      ENuc            ....  12697.6562134779 Eh

Convergence Acceleration:
 DIIS                   CNVDIIS         .... on
   Start iteration      DIISMaxIt       ....    12
   Startup error        DIISStart       ....  0.200000
   # of expansion vecs  DIISMaxEq       ....     5
   Bias factor          DIISBfac        ....   1.050
   Max. coefficient     DIISMaxC        ....  10.000
 Newton-Raphson         CNVNR           .... off
 SOSCF                  CNVSOSCF        .... on
   Start iteration      SOSCFMaxIt      ....   150
   Startup grad/error   SOSCFStart      ....  0.003300
 Level Shifting         CNVShift        .... on
   Level shift para.    LevelShift      ....    0.2500
   Turn off err/grad.   ShiftErr        ....    0.0010
 Zerner damping         CNVZerner       .... off
 Static damping         CNVDamp         .... on
   Fraction old density DampFac         ....    0.7000
   Max. Damping (<1)    DampMax         ....    0.9800
   Min. Damping (>=0)   DampMin         ....    0.0000
   Turn off err/grad.   DampErr         ....    0.1000
 Fernandez-Rico         CNVRico         .... off

SCF Procedure:
 Maximum # iterations   MaxIter         ....   125
 SCF integral mode      SCFMode         .... Direct
   Integral package                     .... LIBINT
 Reset frequency        DirectResetFreq ....    20
 Integral Threshold     Thresh          ....  2.500e-11 Eh
 Primitive CutOff       TCut            ....  2.500e-12 Eh

Convergence Tolerance:
 Convergence Check Mode ConvCheckMode   .... Total+1el-Energy
 Convergence forced     ConvForced      .... 1
 Energy Change          TolE            ....  1.000e-08 Eh
 1-El. energy change                    ....  1.000e-05 Eh
 Orbital Gradient       TolG            ....  1.000e-05
 Orbital Rotation angle TolX            ....  1.000e-05
 DIIS Error             TolErr          ....  5.000e-07


Diagonalization of the overlap matrix:
Smallest eigenvalue                        ... 1.667e-04
Time for diagonalization                   ...    0.254 sec
Threshold for overlap eigenvalues          ... 1.000e-08
Number of eigenvalues below threshold      ... 0
Time for construction of square roots      ...    0.172 sec
Total time needed                          ...    0.430 sec

-------------------
DFT GRID GENERATION
-------------------

General Integration Accuracy     IntAcc      ...  4.670
Radial Grid Type                 RadialGrid  ... Gauss-Chebyshev
Angular Grid (max. acc.)         AngularGrid ... Lebedev-302
Angular grid pruning method      GridPruning ... 3 (G Style)
Weight generation scheme         WeightScheme... Becke
Basis function cutoff            BFCut       ...    1.0000e-11
Integration weight cutoff        WCut        ...    1.0000e-14
Grids for H and He will be reduced by one unit

# of grid points (after initial pruning)     ... 611676 (   0.0 sec)
# of grid points (after weights+screening)   ... 515982 (   8.2 sec)
nearest neighbour list constructed           ...    0.0 sec
Grid point re-assignment to atoms done       ...    0.1 sec
Grid point division into batches done        ...    1.7 sec
Reduced shell lists constructed in    2.9 sec

Total number of grid points                  ...   515982
Total number of batches                      ...     8119
Average number of points per batch           ...       63
Average number of grid points per atom       ...     4448
Average number of shells per batch           ...   101.10 (17.19%)
Average number of basis functions per batch  ...   209.30 (16.25%)
Average number of large shells per batch     ...    62.31 (61.63%)
Average number of large basis fcns per batch ...   130.58 (62.39%)
Maximum spatial batch extension              ...  19.93, 18.33, 20.66 au
Average spatial batch extension              ...   0.31,  0.29,  0.30 au

Time for grid setup =   11.427 sec

------------------------------
INITIAL GUESS: MODEL POTENTIAL
------------------------------
Loading Hartree-Fock densities                     ... done
Calculating cut-offs                               ... done
Setting up the integral package                    ... done
Initializing the effective Hamiltonian             ... done
Starting the Coulomb interaction                   ... done (   1.8 sec)
Reading the grid                                   ... done
Mapping shells                                     ... done
Starting the XC term evaluation                    ... done (   1.7 sec)
  promolecular density results
     # of electrons  =    577.981857367
     EX              =   -552.900051406
     EC              =    -20.190768927
     EX+EC           =   -573.090820333
Transforming the Hamiltonian                       ... done (   0.1 sec)
Diagonalizing the Hamiltonian                      ... done (   0.2 sec)
Back transforming the eigenvectors                 ... done (   0.1 sec)
Now organizing SCF variables                       ... done
                      ------------------
                      INITIAL GUESS DONE (  15.5 sec)
                      ------------------
--------------------
COSX GRID GENERATION
--------------------

General Integration Accuracy     IntAcc      ...  3.340
Radial Grid Type                 RadialGrid  ... Gauss-Chebyshev
Angular Grid (max. acc.)         AngularGrid ... Lebedev-50
Angular grid pruning method      GridPruning ... 3 (G Style)
Weight generation scheme         WeightScheme... Becke
Basis function cutoff            BFCut       ...    1.0000e-11
Integration weight cutoff        WCut        ...    1.0000e-14
Grids for H and He will be reduced by one unit

# of grid points (after initial pruning)     ...  57608 (   0.0 sec)
# of grid points (after weights+screening)   ...  50996 (   0.8 sec)
nearest neighbour list constructed           ...    0.0 sec
Grid point re-assignment to atoms done       ...    0.0 sec
Grid point division into batches done        ...    0.0 sec
Reduced shell lists constructed in    0.1 sec

Total number of grid points                  ...    50996
Total number of batches                      ...      864
Average number of points per batch           ...       59
Average number of grid points per atom       ...      440
Average number of shells per batch           ...   118.30 (20.12%)
Average number of basis functions per batch  ...   246.47 (19.14%)
Average number of large shells per batch     ...    73.02 (61.72%)
Average number of large basis fcns per batch ...   154.95 (62.87%)
Maximum spatial batch extension              ...  17.16, 15.63, 15.27 au
Average spatial batch extension              ...   0.64,  0.56,  0.59 au

Overlap Fitting                  UseSFitting ... on
Constructing numerical overlap ... done (      0.1 sec)
Inverting numerical overlap    ... done (      0.1 sec)
Obtaining analytic overlap     ... done (      0.0 sec)
Final contraction and storage  ... done (      0.1 sec)


General Integration Accuracy     IntAcc      ...  3.670
Radial Grid Type                 RadialGrid  ... Gauss-Chebyshev
Angular Grid (max. acc.)         AngularGrid ... Lebedev-50
Angular grid pruning method      GridPruning ... 3 (G Style)
Weight generation scheme         WeightScheme... Becke
Basis function cutoff            BFCut       ...    1.0000e-11
Integration weight cutoff        WCut        ...    1.0000e-14
Grids for H and He will be reduced by one unit

# of grid points (after initial pruning)     ...  72320 (   0.0 sec)
# of grid points (after weights+screening)   ...  63747 (   0.9 sec)
nearest neighbour list constructed           ...    0.0 sec
Grid point re-assignment to atoms done       ...    0.0 sec
Grid point division into batches done        ...    0.0 sec
Reduced shell lists constructed in    0.2 sec

Total number of grid points                  ...    63747
Total number of batches                      ...     1047
Average number of points per batch           ...       60
Average number of grid points per atom       ...      550
Average number of shells per batch           ...   116.12 (19.75%)
Average number of basis functions per batch  ...   241.98 (18.79%)
Average number of large shells per batch     ...    72.04 (62.04%)
Average number of large basis fcns per batch ...   152.71 (63.11%)
Maximum spatial batch extension              ...  19.47, 16.17, 15.62 au
Average spatial batch extension              ...   0.63,  0.55,  0.57 au

Overlap Fitting                  UseSFitting ... on
Constructing numerical overlap ... done (      0.1 sec)
Inverting numerical overlap    ... done (      0.1 sec)
Obtaining analytic overlap     ... done (      0.0 sec)
Final contraction and storage  ... done (      0.1 sec)


General Integration Accuracy     IntAcc      ...  4.010
Radial Grid Type                 RadialGrid  ... Gauss-Chebyshev
Angular Grid (max. acc.)         AngularGrid ... Lebedev-110
Angular grid pruning method      GridPruning ... 3 (G Style)
Weight generation scheme         WeightScheme... Becke
Basis function cutoff            BFCut       ...    1.0000e-11
Integration weight cutoff        WCut        ...    1.0000e-14
Grids for H and He will be reduced by one unit

# of grid points (after initial pruning)     ... 138812 (   0.0 sec)
# of grid points (after weights+screening)   ... 121022 (   1.9 sec)
nearest neighbour list constructed           ...    0.0 sec
Grid point re-assignment to atoms done       ...    0.0 sec
Grid point division into batches done        ...    0.1 sec
Reduced shell lists constructed in    0.4 sec

Total number of grid points                  ...   121022
Total number of batches                      ...     1951
Average number of points per batch           ...       62
Average number of grid points per atom       ...     1043
Average number of shells per batch           ...   110.96 (18.87%)
Average number of basis functions per batch  ...   230.55 (17.90%)
Average number of large shells per batch     ...    68.90 (62.09%)
Average number of large basis fcns per batch ...   145.50 (63.11%)
Maximum spatial batch extension              ...  25.02, 15.26, 16.60 au
Average spatial batch extension              ...   0.52,  0.46,  0.48 au

Overlap Fitting                  UseSFitting ... on
Constructing numerical overlap ... done (      0.2 sec)
Inverting numerical overlap    ... done (      0.1 sec)
Obtaining analytic overlap     ... done (      0.0 sec)
Final contraction and storage  ... done (      0.1 sec)

Time for X-Grid setup             =    5.598 sec
--------------
SCF ITERATIONS
--------------
ITER       Energy         Delta-E        Max-DP      RMS-DP      [F,P]     Damp
               ***  Starting incremental Fock matrix formation  ***
  0  -5478.9146840354   0.000000000000 0.10814005  0.00122289  0.2291865 0.7000
  1  -5479.6569706610  -0.742286625669 0.06745166  0.00078961  0.1163243 0.7000
                               ***Turning on DIIS***
  2  -5479.9560894129  -0.299118751896 0.10279481  0.00118325  0.0448813 0.0000
  3  -5480.4668533052  -0.510763892265 0.05584951  0.00061934  0.0628360 0.0000
  4  -5480.5560639151  -0.089210609902 0.01538939  0.00015182  0.0184704 0.0000
  5  -5480.5623209913  -0.006257076240 0.00512973  0.00005380  0.0060729 0.0000
                      *** Initiating the SOSCF procedure ***
                           *** Shutting down DIIS ***
                      *** Re-Reading the Fockian *** 
                      *** Removing any level shift *** 
ITER      Energy       Delta-E        Grad      Rot      Max-DP    RMS-DP
  6  -5480.56324821  -0.0009272227  0.001508  0.001508  0.002678  0.000030
               *** Restarting incremental Fock matrix formation ***
  7  -5480.56344300  -0.0001947818  0.000813  0.003393  0.002215  0.000027
  8  -5480.56358198  -0.0001389881  0.000527  0.004487  0.002054  0.000032
  9  -5480.56360166  -0.0000196783  0.000407  0.001282  0.001081  0.000013
 10  -5480.56362779  -0.0000261239  0.000073  0.000368  0.000558  0.000004
 11  -5480.56362768   0.0000001022  0.000094  0.000349  0.000289  0.000002
 12  -5480.56362942  -0.0000017395  0.000034  0.000314  0.000132  0.000001
 13  -5480.56362950  -0.0000000753  0.000021  0.000144  0.000096  0.000001
 14  -5480.56362957  -0.0000000759  0.000007  0.000079  0.000032  0.000000
 15  -5480.56362947   0.0000001048  0.000005  0.000008  0.000019  0.000000
                  ***Gradient check signals convergence***
              ***Rediagonalizing the Fockian in SOSCF/NRSCF***

               *****************************************************
               *                     SUCCESS                       *
               *           SCF CONVERGED AFTER  16 CYCLES          *
               *****************************************************

Setting up the final grid:

General Integration Accuracy     IntAcc      ...  5.010
Radial Grid Type                 RadialGrid  ... Gauss-Chebyshev
Angular Grid (max. acc.)         AngularGrid ... Lebedev-434
Angular grid pruning method      GridPruning ... 3 (G Style)
Weight generation scheme         WeightScheme... Becke
Basis function cutoff            BFCut       ...    1.0000e-11
Integration weight cutoff        WCut        ...    1.0000e-14
Grids for H and He will be reduced by one unit

# of grid points (after initial pruning)     ... 1088204 (   0.1 sec)
# of grid points (after weights+screening)   ... 915092 (  14.1 sec)
nearest neighbour list constructed           ...    0.0 sec
Grid point re-assignment to atoms done       ...    0.1 sec
Grid point division into batches done        ...    5.7 sec
Reduced shell lists constructed in    7.6 sec

Total number of grid points                  ...   915092
Total number of batches                      ...    14352
Average number of points per batch           ...       63
Average number of grid points per atom       ...     7889
Average number of shells per batch           ...    98.89 (16.82%)
Average number of basis functions per batch  ...   204.40 (15.87%)
Average number of large shells per batch     ...    60.95 (61.64%)
Average number of large basis fcns per batch ...   127.70 (62.48%)
Maximum spatial batch extension              ...  18.56, 17.39, 19.19 au
Average spatial batch extension              ...   0.25,  0.24,  0.24 au

Final grid set up in   22.3 sec
Final integration                            ... done (   3.8 sec)
Change in XC energy                          ...    -0.000063860
Integrated number of electrons               ...   578.000053877
Previous integrated no of electrons          ...   578.000664677
Old exchange energy                            =   -151.993870248 Eh
New exchange energy                            =   -151.991033001 Eh
Exchange energy change after final integration =      0.002837247 Eh
Total energy after final integration           =  -5480.560856189 Eh
Final COS-X integration done in                =    76.663 sec

----------------
TOTAL SCF ENERGY
----------------

Total Energy       :        -5480.56085619 Eh         -149133.64270 eV

Components:
Nuclear Repulsion  :        12697.65621348 Eh          345520.79151 eV
Electronic Energy  :       -18178.21706967 Eh         -494654.43421 eV
One Electron Energy:       -32815.89060973 Eh         -892965.78099 eV
Two Electron Energy:        14637.67354006 Eh          398311.34678 eV

Virial components:
Potential Energy   :       -10927.74985160 Eh         -297359.19091 eV
Kinetic Energy     :         5447.18899541 Eh          148225.54821 eV
Virial Ratio       :            2.00612644


DFT components:
N(Alpha)           :      289.000026938684 electrons
N(Beta)            :      289.000026938684 electrons
N(Total)           :      578.000053877368 electrons
E(XC)              :     -430.380158652825 Eh       
DFET-embed. en.    :        0.000000000000 Eh       

---------------
SCF CONVERGENCE
---------------

  Last Energy change         ...   -1.0593e-07  Tolerance :   1.0000e-08
  Last MAX-Density change    ...    1.1990e-14  Tolerance :   1.0000e-07
  Last RMS-Density change    ...    3.5032e-17  Tolerance :   5.0000e-09
  Last Orbital Gradient      ...    1.4399e-06  Tolerance :   1.0000e-05
  Last Orbital Rotation      ...    4.5621e-06  Tolerance :   1.0000e-05

             **** THE GBW FILE WAS UPDATED (xtbopt.gbw) ****
             **** DENSITY FILE WAS UPDATED (xtbopt.scfp) ****
             **** ENERGY FILE WAS UPDATED (xtbopt.en.tmp) ****
             **** THE GBW FILE WAS UPDATED (xtbopt.gbw) ****
             **** DENSITY FILE WAS UPDATED (xtbopt.scfp) ****
----------------
ORBITAL ENERGIES
----------------

  NO   OCC          E(Eh)            E(eV) 
   0   2.0000     -88.959389     -2420.7080 
   1   2.0000     -88.955696     -2420.6076 
   2   2.0000     -88.950846     -2420.4756 
   3   2.0000     -88.950336     -2420.4617 
   4   2.0000     -88.944223     -2420.2953 
   5   2.0000     -88.943954     -2420.2880 
   6   2.0000     -19.251636      -523.8637 
   7   2.0000     -19.251528      -523.8607 
   8   2.0000     -19.249173      -523.7966 
   9   2.0000     -19.248193      -523.7699 
  10   2.0000     -19.238915      -523.5175 
  11   2.0000     -19.236363      -523.4481 
  12   2.0000     -19.234978      -523.4104 
  13   2.0000     -19.234178      -523.3886 
  14   2.0000     -19.209837      -522.7262 
  15   2.0000     -19.206230      -522.6281 
  16   2.0000     -14.369806      -391.0223 
  17   2.0000     -14.354520      -390.6063 
  18   2.0000     -10.415993      -283.4336 
  19   2.0000     -10.413989      -283.3791 
  20   2.0000     -10.411077      -283.2998 
  21   2.0000     -10.410655      -283.2883 
  22   2.0000     -10.401442      -283.0376 
  23   2.0000     -10.400851      -283.0215 
  24   2.0000     -10.397421      -282.9282 
  25   2.0000     -10.397310      -282.9252 
  26   2.0000     -10.343710      -281.4667 
  27   2.0000     -10.340309      -281.3741 
  28   2.0000     -10.337253      -281.2909 
  29   2.0000     -10.336915      -281.2818 
  30   2.0000     -10.335788      -281.2511 
  31   2.0000     -10.333582      -281.1911 
  32   2.0000     -10.327283      -281.0197 
  33   2.0000     -10.320828      -280.8440 
  34   2.0000     -10.320467      -280.8342 
  35   2.0000     -10.320233      -280.8278 
  36   2.0000     -10.319643      -280.8118 
  37   2.0000     -10.319508      -280.8081 
  38   2.0000     -10.318563      -280.7824 
  39   2.0000     -10.318098      -280.7697 
  40   2.0000     -10.298782      -280.2441 
  41   2.0000     -10.296153      -280.1726 
  42   2.0000     -10.296108      -280.1713 
  43   2.0000     -10.295649      -280.1589 
  44   2.0000     -10.292266      -280.0668 
  45   2.0000     -10.291734      -280.0523 
  46   2.0000     -10.287581      -279.9393 
  47   2.0000     -10.286507      -279.9101 
  48   2.0000     -10.284085      -279.8442 
  49   2.0000     -10.278982      -279.7053 
  50   2.0000     -10.274884      -279.5938 
  51   2.0000     -10.273173      -279.5473 
  52   2.0000     -10.272715      -279.5348 
  53   2.0000     -10.272579      -279.5311 
  54   2.0000     -10.269826      -279.4562 
  55   2.0000     -10.269680      -279.4522 
  56   2.0000     -10.269158      -279.4380 
  57   2.0000     -10.268234      -279.4128 
  58   2.0000     -10.268087      -279.4089 
  59   2.0000     -10.267839      -279.4021 
  60   2.0000     -10.264383      -279.3081 
  61   2.0000     -10.264253      -279.3045 
  62   2.0000     -10.264048      -279.2990 
  63   2.0000     -10.262800      -279.2650 
  64   2.0000     -10.261183      -279.2210 
  65   2.0000     -10.260953      -279.2147 
  66   2.0000     -10.260423      -279.2003 
  67   2.0000     -10.260035      -279.1898 
  68   2.0000     -10.259900      -279.1861 
  69   2.0000     -10.259771      -279.1826 
  70   2.0000     -10.255562      -279.0680 
  71   2.0000     -10.252828      -278.9936 
  72   2.0000     -10.251992      -278.9709 
  73   2.0000     -10.251640      -278.9613 
  74   2.0000     -10.248382      -278.8726 
  75   2.0000     -10.246889      -278.8320 
  76   2.0000      -8.058669      -219.2875 
  77   2.0000      -8.054870      -219.1842 
  78   2.0000      -8.047003      -218.9701 
  79   2.0000      -8.045875      -218.9394 
  80   2.0000      -8.043383      -218.8716 
  81   2.0000      -8.043224      -218.8672 
  82   2.0000      -6.027515      -164.0170 
  83   2.0000      -6.024258      -163.9284 
  84   2.0000      -6.023742      -163.9144 
  85   2.0000      -6.020469      -163.8253 
  86   2.0000      -6.019733      -163.8053 
  87   2.0000      -6.016075      -163.7057 
  88   2.0000      -6.015914      -163.7013 
  89   2.0000      -6.015127      -163.6799 
  90   2.0000      -6.012261      -163.6019 
  91   2.0000      -6.012041      -163.5960 
  92   2.0000      -6.011993      -163.5946 
  93   2.0000      -6.011134      -163.5713 
  94   2.0000      -6.009437      -163.5251 
  95   2.0000      -6.008991      -163.5130 
  96   2.0000      -6.008831      -163.5086 
  97   2.0000      -6.007904      -163.4834 
  98   2.0000      -6.004448      -163.3893 
  99   2.0000      -6.004331      -163.3861 
 100   2.0000      -1.175091       -31.9758 
 101   2.0000      -1.172290       -31.8996 
 102   2.0000      -1.170779       -31.8585 
 103   2.0000      -1.168124       -31.7863 
 104   2.0000      -1.161998       -31.6196 
 105   2.0000      -1.160971       -31.5916 
 106   2.0000      -1.155723       -31.4488 
 107   2.0000      -1.155328       -31.4381 
 108   2.0000      -1.100952       -29.9584 
 109   2.0000      -1.098023       -29.8787 
 110   2.0000      -1.029276       -28.0080 
 111   2.0000      -1.013172       -27.5698 
 112   2.0000      -0.986666       -26.8486 
 113   2.0000      -0.981662       -26.7124 
 114   2.0000      -0.974871       -26.5276 
 115   2.0000      -0.973774       -26.4977 
 116   2.0000      -0.959860       -26.1191 
 117   2.0000      -0.953405       -25.9435 
 118   2.0000      -0.946325       -25.7508 
 119   2.0000      -0.934662       -25.4335 
 120   2.0000      -0.932877       -25.3849 
 121   2.0000      -0.923223       -25.1222 
 122   2.0000      -0.921844       -25.0846 
 123   2.0000      -0.913083       -24.8463 
 124   2.0000      -0.911601       -24.8059 
 125   2.0000      -0.906924       -24.6787 
 126   2.0000      -0.887933       -24.1619 
 127   2.0000      -0.872969       -23.7547 
 128   2.0000      -0.868009       -23.6197 
 129   2.0000      -0.863201       -23.4889 
 130   2.0000      -0.858282       -23.3550 
 131   2.0000      -0.844310       -22.9749 
 132   2.0000      -0.843715       -22.9586 
 133   2.0000      -0.831136       -22.6164 
 134   2.0000      -0.828371       -22.5411 
 135   2.0000      -0.825572       -22.4650 
 136   2.0000      -0.822161       -22.3721 
 137   2.0000      -0.820802       -22.3351 
 138   2.0000      -0.815449       -22.1895 
 139   2.0000      -0.807731       -21.9795 
 140   2.0000      -0.801581       -21.8121 
 141   2.0000      -0.791746       -21.5445 
[...]
   0    8657.7   1155.0   0.000135564   0.00515  -0.06048   0.03697  -0.01142
   1    9127.9   1095.5   0.000617932   0.02229   0.10565   0.06627  -0.08206
   2   13959.4    716.4   0.050607297   1.19350   0.48693   0.95618   0.20521
   3   15107.7    661.9   0.010067984   0.21939  -0.20252  -0.40530  -0.11879
   4   17798.5    561.8   0.008371774   0.15485   0.29394  -0.04218   0.25820
   5   18169.0    550.4   0.046326190   0.83941  -0.09905   0.89421  -0.17315
   6   18409.8    543.2   0.028436503   0.50851  -0.63033   0.14151   0.30195
   7   22312.9    448.2   0.002754244   0.04064  -0.18484  -0.06381  -0.04898
   8   22687.3    440.8   0.000769414   0.01116   0.07052  -0.07744   0.01394
   9   22940.2    435.9   0.008956445   0.12853  -0.33101   0.11627   0.07381
  10   23398.7    427.4   0.008069781   0.11354  -0.10833   0.31281   0.06287
  11   23897.6    418.5   0.220805623   3.04180  -1.33390   1.12155   0.06809
  12   23947.9    417.6   0.006202885   0.08527   0.27071  -0.05968  -0.09180
  13   24175.9    413.6   0.000836385   0.01139   0.04629  -0.05974  -0.07535
  14   24261.9    412.2   0.001300296   0.01764  -0.01595   0.13144   0.01059
  15   25788.6    387.8   0.088831327   1.13400   0.37992  -0.53391   0.83941
  16   26152.1    382.4   0.617372571   7.77169  -0.81620   2.14142  -1.58740
  17   26443.3    378.2   0.003083289   0.03839  -0.08395  -0.16647  -0.06023
  18   27702.7    361.0   0.000118767   0.00141   0.00394   0.03390   0.01571
  19   27861.2    358.9   0.011849638   0.14002  -0.36719  -0.01715  -0.06995
  20   28076.4    356.2   0.000061532   0.00072   0.01510  -0.02211  -0.00217
  21   28321.1    353.1   0.047104878   0.54756   0.21715  -0.57703   0.40920
  22   29090.4    343.8   0.026367991   0.29840  -0.09624  -0.52226  -0.12799
  23   29507.2    338.9   0.002811669   0.03137  -0.07344  -0.04483   0.15481
  24   30339.0    329.6   0.172741055   1.87443   0.88930  -0.72593   0.74606
  25   30625.5    326.5   0.015420286   0.16576  -0.15561   0.33614  -0.16898
  26   30945.5    323.1   0.018293008   0.19461   0.34221  -0.09611  -0.26127
  27   31032.8    322.2   0.000673176   0.00714   0.02616   0.06103   0.05228
  28   31188.8    320.6   0.001470698   0.01552   0.05426   0.11069  -0.01807
  29   31583.7    316.6   0.021022997   0.21913   0.10758  -0.43203   0.14461
  30   31747.1    315.0   0.022220808   0.23043   0.10489   0.41264   0.22171
  31   31783.4    314.6   0.001980162   0.02051   0.07910   0.07480   0.09306
  32   31924.1    313.2   0.016306335   0.16816  -0.16082  -0.37123   0.06692
  33   31986.6    312.6   0.016247307   0.16722   0.23850  -0.19780   0.26686
  34   32037.0    312.1   0.019556433   0.20096  -0.09355  -0.34229   0.27395
  35   32250.8    310.1   0.001282043   0.01309   0.08813  -0.01325   0.07173
  36   32384.4    308.8   0.003162964   0.03215   0.16414  -0.06502   0.03136
  37   32771.0    305.1   0.020919048   0.21015  -0.37610   0.22352   0.13686
  38   32835.7    304.5   0.044277353   0.44393   0.07004   0.63972   0.17255
  39   33057.9    302.5   0.001201431   0.01196  -0.03126  -0.07935   0.06849
  40   33301.0    300.3   0.001606179   0.01588   0.07146   0.06734   0.07898
  41   33306.2    300.2   0.004355699   0.04305  -0.07893  -0.18960  -0.02960
  42   33605.1    297.6   0.000338104   0.00331  -0.05321   0.00484  -0.02138
  43   33699.1    296.7   0.007212312   0.07046  -0.10569   0.19412   0.14699
  44   33886.4    295.1   0.017652208   0.17149  -0.36011   0.11537   0.16883
  45   34434.8    290.4   0.103055094   0.98525   0.68725  -0.70311   0.13630
  46   34744.1    287.8   0.032354634   0.30657  -0.46577  -0.04873   0.29539
  47   35215.5    284.0   0.084783685   0.79260  -0.27171   0.84170  -0.10156
  48   35444.1    282.1   0.002315120   0.02150   0.05355  -0.13335   0.02923
  49   35558.4    281.2   0.013595784   0.12587  -0.09909   0.29357  -0.17284
  50   35779.3    279.5   0.116046589   1.06777  -0.25370   0.94407  -0.33485
  51   35868.6    278.8   0.002002426   0.01838  -0.08837   0.03706   0.09589
  52   35962.3    278.1   0.001163296   0.01065  -0.02204  -0.10030   0.01012
  53   36298.5    275.5   0.044965762   0.40782   0.05833   0.26230   0.57932
  54   36633.0    273.0   0.016677158   0.14987  -0.13943   0.31868  -0.16994
  55   36837.6    271.5   0.259874427   2.32246   0.65005  -1.21413   0.65251
  56   37266.9    268.3   0.006122462   0.05409   0.15111   0.13036   0.11941
  57   37384.6    267.5   0.002048449   0.01804   0.01445  -0.10469   0.08288
  58   37417.8    267.3   0.005590575   0.04919  -0.11119  -0.05534   0.18374
  59   37450.9    267.0   0.000028698   0.00025  -0.00876  -0.01138  -0.00678
  60   38089.2    262.5   0.000189234   0.00164  -0.01106   0.00064   0.03890
  61   38285.2    261.2   0.084992859   0.73085   0.22892  -0.69335   0.44465
  62   38511.7    259.7   0.001175657   0.01005   0.08968  -0.04209   0.01535
  63   38523.6    259.6   0.019545248   0.16703  -0.21917   0.30533  -0.16052
  64   39031.1    256.2   0.077555705   0.65415  -0.40193   0.65349  -0.25604
  65   39116.8    255.6   0.227804497   1.91723   0.63278  -1.16337   0.40420
  66   39273.2    254.6   0.119064764   0.99807  -0.39651   0.88449  -0.24195
  67   39440.0    253.5   0.036145878   0.30172   0.25383  -0.47644   0.10144
  68   39574.7    252.7   0.044448035   0.36975   0.19465  -0.50128   0.28388
  69   39630.5    252.3   0.061543752   0.51125   0.31757  -0.60381   0.21403
  70   39796.1    251.3   0.015639984   0.12938   0.05566   0.19844  -0.29479
  71   40016.5    249.9   0.066755663   0.54919  -0.17427   0.59517  -0.40570
  72   40142.5    249.1   0.201821301   1.65515  -0.39682   1.06964  -0.59461
  73   40231.1    248.6   0.047976088   0.39259  -0.21796   0.51843  -0.27625

-----------------------------------------------------------------------------
         ABSORPTION SPECTRUM VIA TRANSITION VELOCITY DIPOLE MOMENTS
-----------------------------------------------------------------------------
State   Energy  Wavelength   fosc         P2         PX        PY        PZ  
        (cm-1)    (nm)                  (au**2)     (au)      (au)      (au) 
-----------------------------------------------------------------------------
   0    8657.7   1155.0   0.000148871   0.00001  -0.00268   0.00127  -0.00010
   1    9127.9   1095.5   0.000930098   0.00006   0.00604   0.00185  -0.00426
   2   13959.4    716.4   0.053138991   0.00507   0.02613   0.06593   0.00635
   3   15107.7    661.9   0.012846673   0.00133  -0.01477  -0.03202  -0.00913
   4   17798.5    561.8   0.007796297   0.00095   0.02351  -0.00532   0.01917
   5   18169.0    550.4   0.050875309   0.00632  -0.01291   0.07695  -0.01517
   6   18409.8    543.2   0.030861348   0.00388  -0.05476   0.01079   0.02770
   7   22312.9    448.2   0.002599476   0.00040  -0.01683  -0.00838  -0.00656
   8   22687.3    440.8   0.000523111   0.00008   0.00645  -0.00609   0.00156
   9   22940.2    435.9   0.009530156   0.00149  -0.03644   0.01088   0.00691
  10   23398.7    427.4   0.007991322   0.00128  -0.01274   0.03248   0.00781
  11   23897.6    418.5   0.216995222   0.03544  -0.14462   0.12028   0.00775
  12   23947.9    417.6   0.006025479   0.00099   0.02896  -0.00751  -0.00954
  13   24175.9    413.6   0.000770312   0.00013   0.00539  -0.00614  -0.00778
  14   24261.9    412.2   0.000920391   0.00015  -0.00210   0.01212   0.00116
  15   25788.6    387.8   0.085103526   0.01500   0.04511  -0.06006   0.09673
  16   26152.1    382.4   0.595783479   0.10649  -0.09351   0.25459  -0.18147
  17   26443.3    378.2   0.002979743   0.00054  -0.01067  -0.01957  -0.00646
  18   27702.7    361.0   0.000107936   0.00002   0.00068   0.00412   0.00174
  19   27861.2    358.9   0.010773070   0.00205  -0.04447  -0.00350  -0.00787
  20   28076.4    356.2   0.000068415   0.00001   0.00177  -0.00312   0.00050
  21   28321.1    353.1   0.048840010   0.00945   0.02805  -0.07717   0.05207
  22   29090.4    343.8   0.025279086   0.00503  -0.01355  -0.06838  -0.01291
  23   29507.2    338.9   0.002319651   0.00047  -0.01000  -0.00810   0.01738
  24   30339.0    329.6   0.154534037   0.03204   0.11562  -0.09446   0.09875
  25   30625.5    326.5   0.009924778   0.00208  -0.01529   0.03882  -0.01834
  26   30945.5    323.1   0.013625510   0.00288   0.04149  -0.01430  -0.03093
  27   31032.8    322.2   0.000602920   0.00013   0.00468   0.00497   0.00902
  28   31188.8    320.6   0.001311318   0.00028   0.00731   0.01462  -0.00351
  29   31583.7    316.6   0.016017266   0.00346   0.01258  -0.05442   0.01839
  30   31747.1    315.0   0.021152687   0.00459   0.01467   0.05967   0.02853
  31   31783.4    314.6   0.001800116   0.00039   0.01037   0.01177   0.01204
  32   31924.1    313.2   0.015653635   0.00342  -0.02177  -0.05348   0.00899
  33   31986.6    312.6   0.013562484   0.00296   0.03138  -0.02478   0.03696
  34   32037.0    312.1   0.018366507   0.00402  -0.01219  -0.04971   0.03743
  35   32250.8    310.1   0.001034098   0.00023   0.01034  -0.00025   0.01100
  36   32384.4    308.8   0.002329098   0.00052   0.02085  -0.00753   0.00489
  37   32771.0    305.1   0.019002231   0.00426  -0.05286   0.03236   0.02036
  38   32835.7    304.5   0.040725255   0.00914   0.01196   0.09159   0.02464
  39   33057.9    302.5   0.001192245   0.00027  -0.00626  -0.01160   0.00978
  40   33301.0    300.3   0.001473498   0.00034   0.01059   0.01097   0.01014
  41   33306.2    300.2   0.004083620   0.00093  -0.01019  -0.02849  -0.00379
  42   33605.1    297.6   0.000365247   0.00008  -0.00901   0.00052  -0.00155
  43   33699.1    296.7   0.006255886   0.00144  -0.01451   0.02815   0.02092
  44   33886.4    295.1   0.016161684   0.00374  -0.05358   0.01505   0.02540
  45   34434.8    290.4   0.089983541   0.02118   0.09944  -0.10441   0.01970
  46   34744.1    287.8   0.029478381   0.00700  -0.07061  -0.00696   0.04434
  47   35215.5    284.0   0.075119044   0.01808  -0.04189   0.12669  -0.01655
  48   35444.1    282.1   0.001983722   0.00048   0.00800  -0.01994   0.00433
  49   35558.4    281.2   0.011125746   0.00270  -0.01324   0.04401  -0.02432
  50   35779.3    279.5   0.101678775   0.02486  -0.03695   0.14434  -0.05163
  51   35868.6    278.8   0.001809526   0.00044  -0.01431   0.00546   0.01446
  52   35962.3    278.1   0.001116684   0.00027  -0.00270  -0.01612   0.00271
  53   36298.5    275.5   0.037595628   0.00933   0.00817   0.04427   0.08544
  54   36633.0    273.0   0.014735724   0.00369  -0.02096   0.05040  -0.02663
  55   36837.6    271.5   0.229706194   0.05783   0.09908  -0.19307   0.10362
  56   37266.9    268.3   0.006051210   0.00154   0.02422   0.02184   0.02186
  57   37384.6    267.5   0.001545814   0.00039   0.00198  -0.01571   0.01201
  58   37417.8    267.3   0.005263859   0.00135  -0.01855  -0.00822   0.03057
  59   37450.9    267.0   0.000028295   0.00001  -0.00142  -0.00190  -0.00128
  60   38089.2    262.5   0.000144126   0.00004  -0.00215   0.00037   0.00572
  61   38285.2    261.2   0.076973128   0.02014   0.03664  -0.11558   0.07375
  62   38511.7    259.7   0.000976077   0.00026   0.01470  -0.00606   0.00203
  63   38523.6    259.6   0.017049711   0.00449  -0.03566   0.05038  -0.02607
  64   39031.1    256.2   0.065457607   0.01746  -0.06429   0.10721  -0.04283
  65   39116.8    255.6   0.192842585   0.05156   0.10069  -0.19209   0.06723
  66   39273.2    254.6   0.104278247   0.02799  -0.06442   0.14892  -0.04078
  67   39440.0    253.5   0.032444373   0.00875   0.04235  -0.08110   0.01937
  68   39574.7    252.7   0.038581839   0.01044   0.03193  -0.08432   0.04802
  69   39630.5    252.3   0.052250218   0.01415   0.05128  -0.10111   0.03606
  70   39796.1    251.3   0.012897146   0.00351   0.00850   0.03340  -0.04817
  71   40016.5    249.9   0.056426545   0.01543  -0.02837   0.09947  -0.06880
  72   40142.5    249.1   0.167375704   0.04592  -0.06463   0.17977  -0.09709
  73   40231.1    248.6   0.039409295   0.01084  -0.03570   0.08781  -0.04303

-------------------------------------------------------------------
                             CD SPECTRUM
-------------------------------------------------------------------
State   Energy Wavelength       R         MX        MY        MZ   
        (cm-1)   (nm)       (1e40*cgs)   (au)      (au)      (au)  
-------------------------------------------------------------------
   0    8657.7   1155.0     -0.15420  -0.03399  -0.04096  -0.00988
   1    9127.9   1095.5      0.58550  -0.01256  -0.05154  -0.02753
   2   13959.4    716.4      2.18147   0.18740   0.10098  -0.96027
   3   15107.7    661.9      6.83072   0.48538  -0.07158  -0.33934
   4   17798.5    561.8     -2.73293  -0.06203   0.20492   0.14900
   5   18169.0    550.4     15.89132  -0.08186  -0.25857  -0.89917
   6   18409.8    543.2      2.89890  -0.10408   0.20277  -0.35302
   7   22312.9    448.2     -2.39543   0.05424  -0.08179  -0.30561
   8   22687.3    440.8     -1.31818   0.06980   0.00299   0.06466
   9   22940.2    435.9     11.28892   0.11983   0.09676  -0.26388
  10   23398.7    427.4    -17.06770  -0.53024   0.05622  -0.04173
  11   23897.6    418.5    -20.80516  -1.37391  -1.36447  -3.14412
  12   23947.9    417.6     -2.94661   0.26703   0.37243   0.40919
  13   24175.9    413.6     -0.50411   0.07441  -0.04754   0.05502
  14   24261.9    412.2      2.41203  -0.04053  -0.06781  -0.18553
  15   25788.6    387.8    -71.90571  -0.59280   0.78745   1.13256
  16   26152.1    382.4    -117.17857  -0.29788  -2.00255  -2.86146
  17   26443.3    378.2      0.09881   0.17207   0.01935  -0.28637
  18   27702.7    361.0      0.19422   0.00300  -0.03936   0.03171
  19   27861.2    358.9     49.87056   0.81187  -0.86706  -1.02473
  20   28076.4    356.2      0.41526  -0.03473   0.05440   0.01589
  21   28321.1    353.1    159.85920  -0.19482   1.45155   0.49297
  22   29090.4    343.8     -8.05748   0.45403   0.00649  -0.63495
  23   29507.2    338.9     -8.76665  -0.25083   0.40647   0.23894
  24   30339.0    329.6    -42.63560  -0.03264   1.38105   1.62513
  25   30625.5    326.5      7.80339   0.14034  -0.14879  -0.22931
  26   30945.5    323.1     -6.28534   0.86835   0.52355   0.84272
  27   31032.8    322.2      0.84142   0.04455   0.16838  -0.28713
  28   31188.8    320.6     -1.89885   0.03087   0.03171  -0.15884
  29   31583.7    316.6      7.21147   0.18530   0.22754   0.33039
  30   31747.1    315.0     21.10369  -1.18965   0.01211   0.13645
  31   31783.4    314.6      4.79783  -0.37387  -0.04678   0.13668
  32   31924.1    313.2     59.62573   0.55359   0.40090  -0.22552
  33   31986.6    312.6    -49.16133  -0.59765  -0.07825   1.25764
  34   32037.0    312.1     -6.50800  -0.08343   0.36297   0.52582
  35   32250.8    310.1     -3.83092  -0.19404   0.00855   0.46658
  36   32384.4    308.8      0.30609  -0.10306   0.05413   0.61019
  37   32771.0    305.1    -29.94901  -0.44051   0.06816  -0.39353
  38   32835.7    304.5     14.92950  -1.09585  -0.00633   0.10125
  39   33057.9    302.5     -5.00875  -0.04369  -0.11817   0.15339
  40   33301.0    300.3    -14.80562  -0.27538   0.00434   1.04075
  41   33306.2    300.2     10.50353   0.59888   0.19136  -1.31724
  42   33605.1    297.6      4.18329   0.25332   0.12472   0.22783
  43   33699.1    296.7    -34.57629   0.62792   0.69434   0.53247
  44   33886.4    295.1      8.37312  -0.35000  -0.23209  -0.79834
  45   34434.8    290.4    -40.92348   0.81640   1.00010   2.31628
  46   34744.1    287.8      1.22804   0.04509   0.35532   0.11208
  47   35215.5    284.0     39.17851  -0.40231  -0.53906  -1.75460
  48   35444.1    282.1      0.29202   0.06784   0.09583   0.27047
  49   35558.4    281.2      1.65483  -0.03091  -0.25464  -0.37417
  50   35779.3    279.5     12.77660  -0.17984  -0.71967  -1.73089
  51   35868.6    278.8     -1.97217  -0.23951   0.02629  -0.14364
  52   35962.3    278.1      4.08627   0.17258   0.12176  -0.13020
  53   36298.5    275.5      7.30304   0.99955   1.29058  -0.73846
  54   36633.0    273.0      3.04812   0.05033  -0.34477  -0.61175
  55   36837.6    271.5     50.00505   0.02195   1.51564   2.47320
  56   37266.9    268.3    -14.06534  -0.41204   0.53844   0.43331
  57   37384.6    267.5      0.05707   0.00686   0.11113   0.13625
  58   37417.8    267.3     -0.20193   0.04622   0.43103   0.16246
  59   37450.9    267.0     -0.08604   0.02745  -0.03862  -0.02449
  60   38089.2    262.5     -0.25955  -0.06700  -0.00842   0.00940
  61   38285.2    261.2    -11.92354  -0.08147   0.57357   1.05008
  62   38511.7    259.7      3.15925  -0.08054   0.14584  -0.00271
  63   38523.6    259.6     10.31007   0.05355  -0.39457  -0.55118
  64   39031.1    256.2     -2.01388  -0.37996  -0.72029  -1.27529
  65   39116.8    255.6    -20.84280   0.83572   1.27474   2.57940
  66   39273.2    254.6     94.59426  -0.21308  -1.11116  -2.05424
  67   39440.0    253.5     34.01821   0.59901   0.83396   0.99539
  68   39574.7    252.7    -27.82623  -0.20020   0.28046   1.04836
  69   39630.5    252.3     -5.88793   0.13143   0.54959   1.47216
  70   39796.1    251.3    -23.78479   0.73098   0.14144  -0.10904
  71   40016.5    249.9    -15.13245   0.09118  -0.60011  -1.07776
  72   40142.5    249.1      2.53576   0.38838  -1.07046  -2.16673
  73   40231.1    248.6      5.98867   0.42961  -0.45456  -1.10003

sTD-DFT done

Total run time:        4.564 sec

           *** ORCA-CIS/TD-DFT FINISHED WITHOUT ERROR ***

-------------------------   --------------------
FINAL SINGLE POINT ENERGY     -5480.560856188560
-------------------------   --------------------


                            ***************************************
                            *     ORCA property calculations      *
                            ***************************************

                                    ---------------------
                                    Active property flags
                                    ---------------------
   (+) Dipole Moment


------------------------------------------------------------------------------
                       ORCA ELECTRIC PROPERTIES CALCULATION
------------------------------------------------------------------------------

Dipole Moment Calculation                       ... on
Quadrupole Moment Calculation                   ... off
Polarizability Calculation                      ... off
GBWName                                         ... xtbopt.gbw
Electron density file                           ... xtbopt.scfp
The origin for moment calculation is the CENTER OF MASS  = ( 3.779378, 10.679003 -4.079511)

-------------
DIPOLE MOMENT
-------------
                                X             Y             Z
Electronic contribution:     15.50051      23.04305      28.05928
Nuclear contribution   :    -15.84556     -23.60413     -27.56149
                        -----------------------------------------
Total Dipole Moment    :     -0.34504      -0.56108       0.49778
                        -----------------------------------------
Magnitude (a.u.)       :      0.82563
Magnitude (Debye)      :      2.09857



--------------------
Rotational spectrum 
--------------------
 
Rotational constants in cm-1:     0.002133     0.000205     0.000202 
Rotational constants in MHz :    63.953683     6.137470     6.054103 

 Dipole components along the rotational axes: 
x,y,z [a.u.] :     0.404594     0.719056    -0.030343 
x,y,z [Debye]:     1.028395     1.827694    -0.077126 

 

Timings for individual modules:

Sum of individual times         ...      741.353 sec (=  12.356 min)
GTO integral calculation        ...        3.386 sec (=   0.056 min)   0.5 %
SCF iterations                  ...      732.623 sec (=  12.210 min)  98.8 %
CIS module                      ...        5.344 sec (=   0.089 min)   0.7 %
                             ****ORCA TERMINATED NORMALLY****
TOTAL RUN TIME: 0 days 0 hours 12 minutes 22 seconds 451 msec
