
                                 *****************
                                 * O   R   C   A *
                                 *****************

           --- An Ab Initio, DFT and Semiempirical electronic structure package ---

                  #######################################################
                  #                        -***-                        #
                  #          Department of theory and spectroscopy      #
                  #               Directorship: Frank Neese             #
                  #        Max Planck Institute fuer Kohlenforschung    #
                  #                Kaiser Wilhelm Platz 1               #
                  #                 D-45470 Muelheim/Ruhr               #
                  #                      Germany                        #
                  #                                                     #
                  #                  All rights reserved                #
                  #                        -***-                        #
                  #######################################################


                         Program Version 4.2.0 -  RELEASE  -


 With contributions from (in alphabetic order):
   Daniel Aravena         : Magnetic Suceptibility
   Michael Atanasov       : Ab Initio Ligand Field Theory (pilot matlab implementation)
   Alexander A. Auer      : GIAO ZORA, VPT2
   Ute Becker             : Parallelization
   Giovanni Bistoni       : ED, misc. LED, open-shell LED, HFLED
   Martin Brehm           : Molecular dynamics
   Dmytro Bykov           : SCF Hessian
   Vijay G. Chilkuri      : MRCI spin determinant printing, contributions to CSF-ICE
   Dipayan Datta          : RHF DLPNO-CCSD density
   Achintya Kumar Dutta   : EOM-CC, STEOM-CC
   Dmitry Ganyushin       : Spin-Orbit,Spin-Spin,Magnetic field MRCI
   Miquel Garcia          : C-PCM Hessian, Gaussian charge scheme
   Yang Guo               : DLPNO-NEVPT2, CIM, IAO-localization
   Andreas Hansen         : Spin unrestricted coupled pair/coupled cluster methods
   Benjamin Helmich-Paris : CASSCF linear response (MC-RPA)
   Lee Huntington         : MR-EOM, pCC
   Robert Izsak           : Overlap fitted RIJCOSX, COSX-SCS-MP3, EOM
   Christian Kollmar      : KDIIS, OOCD, Brueckner-CCSD(T), CCSD density
   Simone Kossmann        : Meta GGA functionals, TD-DFT gradient, OOMP2, MP2 Hessian
   Martin Krupicka        : AUTO-CI
   Lucas Lang             : DCDCAS
   Dagmar Lenk            : GEPOL surface, SMD
   Dimitrios Liakos       : Extrapolation schemes; Compound Job, initial MDCI parallelization
   Dimitrios Manganas     : Further ROCIS development; embedding schemes
   Dimitrios Pantazis     : SARC Basis sets
   Taras Petrenko         : DFT Hessian,TD-DFT gradient, ASA, ECA, R-Raman, ABS, FL, XAS/XES, NRVS
   Peter Pinski           : DLPNO-MP2, DLPNO-MP2 Gradient
   Christoph Reimann      : Effective Core Potentials
   Marius Retegan         : Local ZFS, SOC
   Christoph Riplinger    : Optimizer, TS searches, QM/MM, DLPNO-CCSD(T), (RO)-DLPNO pert. Triples
   Tobias Risthaus        : Range-separated hybrids, TD-DFT gradient, RPA, STAB
   Michael Roemelt        : Original ROCIS implementation
   Masaaki Saitow         : Open-shell DLPNO-CCSD energy and density
   Barbara Sandhoefer     : DKH picture change effects
   Avijit Sen             : IP-ROCIS
   Kantharuban Sivalingam : CASSCF convergence, NEVPT2, FIC-MRCI
   Bernardo de Souza      : ESD, SOC TD-DFT
   Georgi Stoychev        : AutoAux, RI-MP2 NMR
   Willem Van den Heuvel  : Paramagnetic NMR
   Boris Wezisla          : Elementary symmetry handling
   Frank Wennmohs         : Technical directorship


 We gratefully acknowledge several colleagues who have allowed us to
 interface, adapt or use parts of their codes:
   Stefan Grimme, W. Hujo, H. Kruse,             : VdW corrections, initial TS optimization,
                  C. Bannwarth                     DFT functionals, gCP, sTDA/sTD-DF
   Ed Valeev, F. Pavosevic, A. Kumar             : LibInt (2-el integral package), F12 methods
   Garnet Chan, S. Sharma, J. Yang, R. Olivares  : DMRG
   Ulf Ekstrom                                   : XCFun DFT Library
   Mihaly Kallay                                 : mrcc  (arbitrary order and MRCC methods)
   Andreas Klamt, Michael Diedenhofen            : otool_cosmo (COSMO solvation model)
   Jiri Pittner, Ondrej Demel                    : Mk-CCSD
   Frank Weinhold                                : gennbo (NPA and NBO analysis)
   Christopher J. Cramer and Donald G. Truhlar   : smd solvation model
   Lars Goerigk                                  : TD-DFT with DH, B97 family of functionals
   V. Asgeirsson, H. Jonsson                     : NEB implementation
   FAccTs GmbH                                   : IRC, NEB, NEB-TS, Multilevel, MM, QM/MM, CI optimization
   S Lehtola, MJT Oliveira, MAL Marques          : LibXC Library


 Your calculation uses the libint2 library for the computation of 2-el integrals
 For citations please refer to: http://libint.valeyev.net

 Your ORCA version has been built with support for libXC version: 4.2.3
 For citations please refer to: https://tddft.org/programs/libxc/

 This ORCA versions uses:
   CBLAS   interface :  Fast vector & matrix operations
   LAPACKE interface :  Fast linear algebra routines
   SCALAPACK package :  Parallel linear algebra routines


XCFun DFT library Copyright 2009-2010 Ulf Ekstrom and contributors.
See http://admol.org/xcfun for more information. This is free soft-
ware; see the source code for copying conditions. There is ABSOLUTELY
NO WARRANTY; not even for MERCHANTABILITY or FITNESS FOR A PARTICULAR
PURPOSE. For details see the documentation. Scientific users of this 
library should cite U. Ekstrom, L. Visscher, R. Bast, A. J. Thorvald-
sen and K. Ruud; J.Chem.Theor.Comp. 2010, DOI: 10.1021/ct100117s
XCFun Version 0.99 
----- Orbital basis set information -----
Your calculation utilizes the basis: def2-SVP
   F. Weigend and R. Ahlrichs, Phys. Chem. Chem. Phys. 7, 3297 (2005).

----- AuxJ basis set information -----
Your calculation utilizes the auxiliary basis: def2/J
   F. Weigend, Phys. Chem. Chem. Phys. 8, 1057 (2006).

================================================================================
                                        WARNINGS
                       Please study these warnings very carefully!
================================================================================

INFO   : Checking CIS options ...

WARNING: CIS/ROCIS methods need fully converged wavefunctions
  ===> : Setting SCFConvForced true
         You can overwrite this default with %scf ConvForced false 


INFO   : the flag for use of LIBINT has been found!

================================================================================
                                       INPUT FILE
================================================================================
NAME = xtbopt.inp
|  1> # ORCA input file
|  2> # SCF done       -190.036155089289          0.000794447852
|  3> ! CAM-B3LYP def2-SVP def2/J RIJCOSX Grid4 TightSCF
|  4> %maxcore 5000
|  5> %tddft
|  6>     Mode sTDDFT
|  7>     Ethresh 5.0
|  8>     maxcore 5000
|  9> end
| 10> 
| 11> %pal
| 12>   nprocs 6
| 13>   end
| 14> * xyz 0 1
| 15>    C       -1.20003        -9.43030         6.68719
| 16>    C       -0.28156        -8.89841         5.82236
| 17>    F        0.89925        -8.46563         6.29403
| 18>    C       -0.51197        -8.77788         4.43740
| 19>    F        0.47104        -8.23728         3.69145
| 20>    C       -1.68837        -9.18350         3.82496
| 21>    C       -2.64692        -9.73760         4.71007
| 22>    C       -2.40262        -9.85731         6.11319
| 23>    N       -3.49310       -10.41605         6.66119
| 24>    N       -4.29952       -10.60351         5.65577
| 25>    N       -3.87233       -10.23036         4.48236
| 26>    C       -5.58910       -11.20189         5.81245
| 27>    C       -1.95146        -9.06859         2.41995
| 28>    C       -3.13152        -9.42688         1.79429
| 29>    C       -3.08316        -9.19783         0.42223
| 30>    C       -1.85113        -8.66221        -0.00103
| 31>    S       -0.76336        -8.43794         1.29138
| 32>    C       -1.89945        -8.46909        -1.40440
| 33>    C       -3.16842        -8.88162        -1.86363
| 34>    C       -3.95079        -9.35156        -0.73164
| 35>    C       -5.22786        -9.83309        -0.74341
| 36>    C       -5.98440        -9.93603        -1.92971
| 37>    N       -6.61031       -10.02286        -2.88688
| 38>    C       -5.87784       -10.25940         0.43369
| 39>    N       -6.41326       -10.60649         1.38693
| 40>    C       -3.31878        -8.73273        -3.23515
| 41>    C       -2.17594        -8.21348        -3.83224
| 42>    S       -0.89730        -7.90596        -2.66779
| 43>    C       -1.98904        -7.93706        -5.21257
| 44>    C       -0.77095        -7.42569        -5.71014
| 45>    C       -0.56390        -7.14004        -7.10044
| 46>    N        0.62762        -6.65507        -7.50228
| 47>    C        1.56570        -6.45373        -6.63426
| 48>    C        1.36076        -6.73586        -5.25900
| 49>    N        0.23036        -7.20215        -4.83619
| 50>    F        2.32365        -6.52979        -4.36570
| 51>    F        2.72670        -5.97479        -7.07053
| 52>    C       -1.56409        -7.34447        -8.07543
| 53>    C       -2.78912        -7.85899        -7.58548
| 54>    C       -2.99663        -8.15029        -6.18454
| 55>    N       -4.22321        -8.62461        -5.96270
| 56>    S       -5.02836        -8.70021        -7.34594
| 57>    N       -3.87582        -8.13795        -8.30658
| 58>    C       -1.34364        -7.04805        -9.44662
| 59>    C       -2.25639        -7.18980       -10.48540
| 60>    C       -1.71974        -6.80690       -11.70652
| 61>    C       -0.38192        -6.36982       -11.60340
| 62>    S        0.20430        -6.42924       -10.00012
| 63>    C        0.06686        -6.00557       -12.89765
| 64>    C       -0.98437        -6.21037       -13.81252
| 65>    C       -2.14001        -6.71863       -13.09571
| 66>    C       -3.35843        -7.04011       -13.62012
| 67>    C       -3.64073        -6.90388       -14.99544
| 68>    N       -3.87848        -6.79562       -16.11246
| 69>    C       -4.41732        -7.52733       -12.82541
| 70>    N       -5.28637        -7.92677       -12.19260
| 71>    C       -0.63746        -5.87993       -15.11928
| 72>    C        0.66604        -5.42697       -15.20920
| 73>    S        1.47443        -5.40899       -13.65058
| 74>    C        1.31942        -5.01272       -16.41661
| 75>    C        2.63051        -4.56547       -16.48423
| 76>    F        3.36767        -4.50190       -15.35839
| 77>    C        3.24875        -4.16641       -17.68601
| 78>    F        4.52496        -3.75308       -17.61876
| 79>    C        2.60797        -4.18486       -18.89574
| 80>    C        1.28102        -4.62863       -18.87659
| 81>    C        0.64489        -5.03554       -17.66312
| 82>    N       -0.60548        -5.39987       -17.97958
| 83>    N       -0.68451        -5.21841       -19.26777
| 84>    N        0.38241        -4.76805       -19.86380
| 85>    C       -1.89399        -5.50259       -19.97633
| 86>    H       -1.00463        -9.51410         7.74173
| 87>    H       -6.10667       -10.73606         6.64997
| 88>    H       -5.48299       -12.26900         6.01511
| 89>    H       -6.14247       -11.05728         4.88677
| 90>    H       -3.96438        -9.83268         2.33732
| 91>    H       -4.19641        -8.97884        -3.80364
| 92>    H       -3.25274        -7.55650       -10.32171
| 93>    H       -1.27594        -5.95399       -15.97954
| 94>    H        3.09799        -3.87630       -19.80233
| 95>    H       -2.61377        -5.89908       -19.26342
| 96>    H       -1.69783        -6.23033       -20.76357
| 97>    H       -2.27920        -4.59025       -20.43237
| 98> *
| 99> 
|100>                          ****END OF INPUT****
================================================================================

                       ****************************
                       * Single Point Calculation *
                       ****************************

---------------------------------
CARTESIAN COORDINATES (ANGSTROEM)
---------------------------------
  C     -1.200030   -9.430300    6.687190
  C     -0.281560   -8.898410    5.822360
  F      0.899250   -8.465630    6.294030
  C     -0.511970   -8.777880    4.437400
  F      0.471040   -8.237280    3.691450
  C     -1.688370   -9.183500    3.824960
  C     -2.646920   -9.737600    4.710070
  C     -2.402620   -9.857310    6.113190
  N     -3.493100  -10.416050    6.661190
  N     -4.299520  -10.603510    5.655770
  N     -3.872330  -10.230360    4.482360
  C     -5.589100  -11.201890    5.812450
  C     -1.951460   -9.068590    2.419950
  C     -3.131520   -9.426880    1.794290
  C     -3.083160   -9.197830    0.422230
  C     -1.851130   -8.662210   -0.001030
  S     -0.763360   -8.437940    1.291380
  C     -1.899450   -8.469090   -1.404400
  C     -3.168420   -8.881620   -1.863630
  C     -3.950790   -9.351560   -0.731640
  C     -5.227860   -9.833090   -0.743410
  C     -5.984400   -9.936030   -1.929710
  N     -6.610310  -10.022860   -2.886880
  C     -5.877840  -10.259400    0.433690
  N     -6.413260  -10.606490    1.386930
  C     -3.318780   -8.732730   -3.235150
  C     -2.175940   -8.213480   -3.832240
  S     -0.897300   -7.905960   -2.667790
  C     -1.989040   -7.937060   -5.212570
  C     -0.770950   -7.425690   -5.710140
  C     -0.563900   -7.140040   -7.100440
  N      0.627620   -6.655070   -7.502280
  C      1.565700   -6.453730   -6.634260
  C      1.360760   -6.735860   -5.259000
  N      0.230360   -7.202150   -4.836190
  F      2.323650   -6.529790   -4.365700
  F      2.726700   -5.974790   -7.070530
  C     -1.564090   -7.344470   -8.075430
  C     -2.789120   -7.858990   -7.585480
  C     -2.996630   -8.150290   -6.184540
  N     -4.223210   -8.624610   -5.962700
  S     -5.028360   -8.700210   -7.345940
  N     -3.875820   -8.137950   -8.306580
  C     -1.343640   -7.048050   -9.446620
  C     -2.256390   -7.189800  -10.485400
  C     -1.719740   -6.806900  -11.706520
  C     -0.381920   -6.369820  -11.603400
  S      0.204300   -6.429240  -10.000120
  C      0.066860   -6.005570  -12.897650
  C     -0.984370   -6.210370  -13.812520
  C     -2.140010   -6.718630  -13.095710
  C     -3.358430   -7.040110  -13.620120
  C     -3.640730   -6.903880  -14.995440
  N     -3.878480   -6.795620  -16.112460
  C     -4.417320   -7.527330  -12.825410
  N     -5.286370   -7.926770  -12.192600
  C     -0.637460   -5.879930  -15.119280
  C      0.666040   -5.426970  -15.209200
  S      1.474430   -5.408990  -13.650580
  C      1.319420   -5.012720  -16.416610
  C      2.630510   -4.565470  -16.484230
  F      3.367670   -4.501900  -15.358390
  C      3.248750   -4.166410  -17.686010
  F      4.524960   -3.753080  -17.618760
  C      2.607970   -4.184860  -18.895740
  C      1.281020   -4.628630  -18.876590
  C      0.644890   -5.035540  -17.663120
  N     -0.605480   -5.399870  -17.979580
  N     -0.684510   -5.218410  -19.267770
  N      0.382410   -4.768050  -19.863800
  C     -1.893990   -5.502590  -19.976330
  H     -1.004630   -9.514100    7.741730
  H     -6.106670  -10.736060    6.649970
  H     -5.482990  -12.269000    6.015110
  H     -6.142470  -11.057280    4.886770
  H     -3.964380   -9.832680    2.337320
  H     -4.196410   -8.978840   -3.803640
  H     -3.252740   -7.556500  -10.321710
  H     -1.275940   -5.953990  -15.979540
  H      3.097990   -3.876300  -19.802330
  H     -2.613770   -5.899080  -19.263420
  H     -1.697830   -6.230330  -20.763570
  H     -2.279200   -4.590250  -20.432370

----------------------------
CARTESIAN COORDINATES (A.U.)
----------------------------
  NO LB      ZA    FRAG     MASS         X           Y           Z
   0 C     6.0000    0    12.011   -2.267728  -17.820684   12.636958
   1 C     6.0000    0    12.011   -0.532071  -16.815558   11.002666
   2 F     9.0000    0    18.998    1.699336  -15.997722   11.893993
   3 C     6.0000    0    12.011   -0.967483  -16.587789    8.385471
   4 F     9.0000    0    18.998    0.890137  -15.566203    6.975830
   5 C     6.0000    0    12.011   -3.190557  -17.354300    7.228127
   6 C     6.0000    0    12.011   -5.001954  -18.401397    8.900742
   7 C     6.0000    0    12.011   -4.540294  -18.627616   11.552255
   8 N     7.0000    0    14.007   -6.601002  -19.683482   12.587825
   9 N     7.0000    0    14.007   -8.124915  -20.037730   10.687856
  10 N     7.0000    0    14.007   -7.317643  -19.332579    8.470433
  11 C     6.0000    0    12.011  -10.561868  -21.168504   10.983939
  12 C     6.0000    0    12.011   -3.687725  -17.137152    4.573043
  13 C     6.0000    0    12.011   -5.917715  -17.814221    3.390717
  14 C     6.0000    0    12.011   -5.826328  -17.381380    0.797899
  15 C     6.0000    0    12.011   -3.498129  -16.369205   -0.001946
  16 S    16.0000    0    32.060   -1.442541  -15.945396    2.440355
  17 C     6.0000    0    12.011   -3.589440  -16.004261   -2.653931
  18 C     6.0000    0    12.011   -5.987446  -16.783829   -3.521750
  19 C     6.0000    0    12.011   -7.465911  -17.671887   -1.382599
  20 C     6.0000    0    12.011   -9.879224  -18.581847   -1.404841
  21 C     6.0000    0    12.011  -11.308877  -18.776376   -3.646623
  22 N     7.0000    0    14.007  -12.491676  -18.940460   -5.455413
  23 C     6.0000    0    12.011  -11.107508  -19.387456    0.819555
  24 N     7.0000    0    14.007  -12.119305  -20.043361    2.620918
  25 C     6.0000    0    12.011   -6.271585  -16.502468   -6.113548
  26 C     6.0000    0    12.011   -4.111931  -15.521228   -7.241884
  27 S    16.0000    0    32.060   -1.695651  -14.940099   -5.041392
  28 C     6.0000    0    12.011   -3.758741  -14.998870   -9.850330
  29 C     6.0000    0    12.011   -1.456884  -14.032520  -10.790601
  30 C     6.0000    0    12.011   -1.065617  -13.492720  -13.417887
  31 N     7.0000    0    14.007    1.186030  -12.576260  -14.177255
  32 C     6.0000    0    12.011    2.958744  -12.195782  -12.536935
  33 C     6.0000    0    12.011    2.571464  -12.728931   -9.938070
  34 N     7.0000    0    14.007    0.435317  -13.610091   -9.139075
  35 F     9.0000    0    18.998    4.391062  -12.339515   -8.249977
  36 F     9.0000    0    18.998    5.152716  -11.290717  -13.361365
  37 C     6.0000    0    12.011   -2.955702  -13.879037  -15.260351
  38 C     6.0000    0    12.011   -5.270673  -14.851339  -14.334480
  39 C     6.0000    0    12.011   -5.662810  -15.401816  -11.687087
  40 N     7.0000    0    14.007   -7.980710  -16.298151  -11.267870
  41 S    16.0000    0    32.060   -9.502223  -16.441014  -13.881815
  42 N     7.0000    0    14.007   -7.324238  -15.378497  -15.697161
  43 C     6.0000    0    12.011   -2.539112  -13.318884  -17.851525
  44 C     6.0000    0    12.011   -4.263959  -13.586753  -19.814534
  45 C     6.0000    0    12.011   -3.249838  -12.863177  -22.122117
  46 C     6.0000    0    12.011   -0.721724  -12.037215  -21.927248
  47 S    16.0000    0    32.060    0.386071  -12.149503  -18.897488
  48 C     6.0000    0    12.011    0.126347  -11.348883  -24.373026
  49 C     6.0000    0    12.011   -1.860190  -11.735898  -26.101880
  50 C     6.0000    0    12.011   -4.044033  -12.696371  -24.747305
  51 C     6.0000    0    12.011   -6.346513  -13.303880  -25.738297
  52 C     6.0000    0    12.011   -6.879983  -13.046442  -28.337275
  53 N     7.0000    0    14.007   -7.329265  -12.841861  -30.448137
  54 C     6.0000    0    12.011   -8.347525  -14.224592  -24.236512
  55 N     7.0000    0    14.007   -9.989792  -14.979424  -23.040675
  56 C     6.0000    0    12.011   -1.204625  -11.111457  -28.571299
  57 C     6.0000    0    12.011    1.258633  -10.255487  -28.741223
  58 S    16.0000    0    32.060    2.786269  -10.221510  -25.795858
  59 C     6.0000    0    12.011    2.493342   -9.472668  -31.022897
  60 C     6.0000    0    12.011    4.970943   -8.627488  -31.150680
  61 F     9.0000    0    18.998    6.363974   -8.507358  -29.023151
  62 C     6.0000    0    12.011    6.139248   -7.873374  -33.421715
  63 F     9.0000    0    18.998    8.550935   -7.092293  -33.294631
  64 C     6.0000    0    12.011    4.928349   -7.908239  -35.707774
  65 C     6.0000    0    12.011    2.420777   -8.746843  -35.671585
  66 C     6.0000    0    12.011    1.218665   -9.515792  -33.378459
  67 N     7.0000    0    14.007   -1.144191  -10.204275  -33.976482
  68 N     7.0000    0    14.007   -1.293536   -9.861366  -36.410809
  69 N     7.0000    0    14.007    0.722650   -9.010309  -37.537142
  70 C     6.0000    0    12.011   -3.579122  -10.398388  -37.749793
  71 H     1.0000    0     1.008   -1.898476  -17.979043   14.629750
  72 H     1.0000    0     1.008  -11.539934  -20.288213   12.566622
  73 H     1.0000    0     1.008  -10.361349  -23.185050   11.366911
  74 H     1.0000    0     1.008  -11.607586  -20.895231    9.234657
  75 H     1.0000    0     1.008   -7.491592  -18.581072    4.416895
  76 H     1.0000    0     1.008   -7.930066  -16.967549   -7.187838
  77 H     1.0000    0     1.008   -6.146788  -14.279716  -19.505205
  78 H     1.0000    0     1.008   -2.411177  -11.251411  -30.196954
  79 H     1.0000    0     1.008    5.854353   -7.325145  -37.420981
  80 H     1.0000    0     1.008   -4.939309  -11.147646  -36.402588
  81 H     1.0000    0     1.008   -3.208434  -11.773617  -39.237461
  82 H     1.0000    0     1.008   -4.307064   -8.674315  -38.611584

--------------------------------
INTERNAL COORDINATES (ANGSTROEM)
--------------------------------
 C      0   0   0     0.000000000000     0.00000000     0.00000000
 C      1   0   0     1.369096432652     0.00000000     0.00000000
 F      2   1   0     1.343161707837   119.54615638     0.00000000
 C      2   1   3     1.409159483735   122.98160207   180.00057776
 F      4   2   1     1.347218773103   117.33575663   180.00801869
 C      4   2   1     1.386912866045   123.20779432     0.13171930
 C      6   4   2     1.417485317243   114.34182183   359.80671602
 C      1   2   3     1.399298484313   115.84811359   180.04510232
 N      8   1   2     1.342252218475   131.13021305   179.85397057
 N      9   8   1     1.302429976774   104.34583510   180.03046342
 N     10   9   8     1.303312413315   116.79894500   359.96191555
 C     10   9   8     1.430253062643   122.27061274   179.30053971
 C      6   4   2     1.434041058094   124.39009853   179.77228588
 C     13   6   4     1.382882411234   125.38479789   182.16020434
 C     14  13   6     1.391887651968   111.94414615   180.03146091
 C     15  14  13     1.408522535460   112.90391336     0.14479518
 S     16  15  14     1.704072831161   112.36408181   359.76227562
 C     16  15  14     1.417419314705   108.63348955   179.85004248
 C     18  16  15     1.411154865598   108.24181934     0.16442574
 C     15  14  13     1.451837011066   138.18107379   180.17945899
 C     20  15  14     1.364887342860   127.11151434     0.17720292
 C     21  20  15     1.410764723545   122.32717663   179.82910626
 N     22  21  20     1.146942538186   179.32866270   188.28250740
 C     21  20  15     1.410595132028   122.04356472   359.90326655
 N     24  21  20     1.147088724598   179.60353564   169.44237871
 C     19  18  16     1.387747625507   112.81084520   180.02878541
 C     26  19  18     1.390043271341   112.05663266     0.16613434
 S     18  16  15     1.708090838187   139.22119539   180.52948495
 C     27  26  19     1.420088213915   126.75818341   179.97058131
 C     29  27  26     1.411672210501   121.78106640   180.94455790
 C     30  29  27     1.434363871199   122.57041557   180.02238876
 N     31  30  29     1.347735581225   119.22755530   180.10568453
 C     32  31  30     1.293827887472   119.79952530     0.00000000
 C     33  32  31     1.418780394600   120.97325561     0.00000000
 N     34  33  32     1.293831063238   120.97292505     0.00000000
 F     34  33  32     1.329513778417   121.05445888   179.98867032
 F     33  32  31     1.329524740838   117.97268285   179.98076710
 C     31  30  29     1.411657593434   122.57058913     0.21950667
 C     38  31  30     1.416149827455   115.24962615   359.71838268
 C     29  27  26     1.416132169644   122.96918954     0.93255550
 N     40  29  27     1.333675726854   126.42412569   359.92584708
 S     41  40  29     1.602290479314   109.59268588   179.92629738
 N     39  38  31     1.333686912885   126.42552425   180.18911063
 C     38  31  30     1.420079235465   121.78108003   179.60332704
 C     44  38  31     1.390060974706   126.75147338   181.01484971
 C     45  44  38     1.387710231605   112.05622815   179.85551282
 C     46  45  44     1.411182133249   112.81589392     0.11517574
 S     47  46  45     1.708125107596   112.53001979   359.82233351
 C     47  46  45     1.417450039120   108.24139943   179.96607198
 C     49  47  46     1.408550556352   108.62673462     0.08384165
 C     50  49  47     1.451774298333   108.92278198     0.00000000
 C     51  50  49     1.364881875805   127.11055403   179.80372754
 C     52  51  50     1.410587468149   122.04038402   359.96700981
 N     53  52  51     1.147161266126   179.56669028   182.86101632
 C     52  51  50     1.410742834325   122.34071691   180.07132453
 N     55  52  51     1.146842932663   179.20305840   189.45521099
 C     50  49  47     1.391818536771   112.90959494   180.06078090
 C     57  50  49     1.382884889642   111.94743712     0.04361051
 S     49  47  46     1.704131622323   139.01648994   180.20948044
 C     58  57  50     1.433996999648   125.36968822   179.86356987
 C     60  58  57     1.386925381915   124.39739972   180.21914245
 F     61  60  58     1.347205149968   119.45439701   359.91476624
 C     61  60  58     1.409164557318   123.20530206   179.88242293
 F     63  61  60     1.343159043263   117.47138454   180.02790824
 C     63  61  60     1.369082204910   122.98439839     0.00000000
 C     65  63  61     1.399319419539   115.84969762     0.02975081
 C     60  58  57     1.417497320421   121.26211542     0.14715869
 N     67  60  58     1.340264308784   130.99208341     0.09594726
 N     68  67  60     1.303306160731   104.60195379   180.01297501
 N     69  68  67     1.302456976986   116.79390468     0.00000000
 C     69  68  67     1.430264806391   120.88207175   180.14638676
 H      1   2   3     1.075759365100   121.84537349   359.96491825
 H     12  10   9     1.089181364236   109.49692583    47.43705456
 H     12  10   9     1.091354277858   109.98395002   287.97981132
 H     12  10   9     1.088124014715   108.04362078   168.24331718
 H     14  13   6     1.073876622569   122.06884600   359.91998083
 H     26  19  18     1.074237138206   125.94110856   180.09318253
 H     45  44  38     1.074233042035   122.00265367   359.86884320
 H     57  50  49     1.073866314585   125.98418200   180.03438801
 H     65  63  61     1.075748252195   121.84336324   180.02012785
 H     71  69  68     1.087900839507   107.89426735   357.68057396
 H     71  69  68     1.089876631000   109.77404429   237.29106639
 H     71  69  68     1.090285972257   109.86013390   117.84207938

---------------------------
INTERNAL COORDINATES (A.U.)
---------------------------
 C      0   0   0     0.000000000000     0.00000000     0.00000000
 C      1   0   0     2.587217308641     0.00000000     0.00000000
 F      2   1   0     2.538207781382   119.54615638     0.00000000
 C      2   1   3     2.662925503277   122.98160207   180.00057776
 F      4   2   1     2.545874523641   117.33575663   180.00801869
 C      4   2   1     2.620885488436   123.20779432     0.13171930
 C      6   4   2     2.678659048444   114.34182183   359.80671602
 C      1   2   3     2.644290914962   115.84811359   180.04510232
 N      8   1   2     2.536489095565   131.13021305   179.85397057
 N      9   8   1     2.461235964713   104.34583510   180.03046342
 N     10   9   8     2.462903528105   116.79894500   359.96191555
 C     10   9   8     2.702786590598   122.27061274   179.30053971
 C      6   4   2     2.709944864597   124.39009853   179.77228588
 C     13   6   4     2.613269032649   125.38479789   182.16020434
 C     14  13   6     2.630286471406   111.94414615   180.03146091
 C     15  14  13     2.661721845477   112.90391336     0.14479518
 S     16  15  14     3.220230963150   112.36408181   359.76227562
 C     16  15  14     2.678534321724   108.63348955   179.85004248
 C     18  16  15     2.666696228530   108.24181934     0.16442574
 C     15  14  13     2.743574342005   138.18107379   180.17945899
 C     20  15  14     2.579263281661   127.11151434     0.17720292
 C     21  20  15     2.665958966898   122.32717663   179.82910626
 N     22  21  20     2.167407288516   179.32866270   188.28250740
 C     21  20  15     2.665638485375   122.04356472   359.90326655
 N     24  21  20     2.167683540799   179.60353564   169.44237871
 C     19  18  16     2.622462955208   112.81084520   180.02878541
 C     26  19  18     2.626801097134   112.05663266     0.16613434
 S     18  16  15     3.227823896034   139.22119539   180.52948495
 C     27  26  19     2.683577810309   126.75818341   179.97058131
 C     29  27  26     2.667673868714   121.78106640   180.94455790
 C     30  29  27     2.710554892957   122.57041557   180.02238876
 N     31  30  29     2.546851149457   119.22755530   180.10568453
 C     32  31  30     2.444980371752   119.79952530     0.00000000
 C     33  32  31     2.681106389970   120.97325561     0.00000000
 N     34  33  32     2.444986373080   120.97292505     0.00000000
 F     34  33  32     2.512416932483   121.05445888   179.98867032
 F     33  32  31     2.512437648456   117.97268285   179.98076710
 C     31  30  29     2.667646246461   122.57058913     0.21950667
 C     38  31  30     2.676135338489   115.24962615   359.71838268
 C     29  27  26     2.676101970062   122.96918954     0.93255550
 N     40  29  27     2.520281875213   126.42412569   359.92584708
 S     41  40  29     3.027890192893   109.59268588   179.92629738
 N     39  38  31     2.520303013747   126.42552425   180.18911063
 C     38  31  30     2.683560843498   121.78108003   179.60332704
 C     44  38  31     2.626834551646   126.75147338   181.01484971
 C     45  44  38     2.622392290973   112.05622815   179.85551282
 C     46  45  44     2.666747756923   112.81589392     0.11517574
 S     47  46  45     3.227888655831   112.53001979   359.82233351
 C     47  46  45     2.678592382452   108.24139943   179.96607198
 C     49  47  46     2.661774797288   108.62673462     0.08384165
 C     50  49  47     2.743455832115   108.92278198     0.00000000
 C     51  50  49     2.579252950423   127.11055403   179.80372754
 C     52  51  50     2.665624002744   122.04038402   359.96700981
 N     53  52  51     2.167820624421   179.56669028   182.86101632
 C     52  51  50     2.665917602267   122.34071691   180.07132453
 N     55  52  51     2.167219061357   179.20305840   189.45521099
 C     50  49  47     2.630155862613   112.90959494   180.06078090
 C     57  50  49     2.613273716161   111.94743712     0.04361051
 S     49  47  46     3.220342062345   139.01648994   180.20948044
 C     58  57  50     2.709861606200   125.36968822   179.86356987
 C     60  58  57     2.620909140003   124.39739972   180.21914245
 F     61  60  58     2.545848779648   119.45439701   359.91476624
 C     61  60  58     2.662935090959   123.20530206   179.88242293
 F     63  61  60     2.538202746067   117.47138454   180.02790824
 C     63  61  60     2.587190422104   122.98439839     0.00000000
 C     65  63  61     2.644330476807   115.84969762     0.02975081
 C     60  58  57     2.678681731162   121.26211542     0.14715869
 N     67  60  58     2.532732490671   130.99208341     0.09594726
 N     68  67  60     2.462891712434   104.60195379   180.01297501
 N     69  68  67     2.461286987719   116.79390468     0.00000000
 C     69  68  67     2.702808783064   120.88207175   180.14638676
 H      1   2   3     2.032890586040   121.84537349   359.96491825
 H     12  10   9     2.058254488578   109.49692583    47.43705456
 H     12  10   9     2.062360700236   109.98395002   287.97981132
 H     12  10   9     2.056256387555   108.04362078   168.24331718
 H     14  13   6     2.029332718276   122.06884600   359.91998083
 H     26  19  18     2.030013994096   125.94110856   180.09318253
 H     45  44  38     2.030006253455   122.00265367   359.86884320
 H     57  50  49     2.029313239009   125.98418200   180.03438801
 H     65  63  61     2.032869585692   121.84336324   180.02012785
 H     71  69  68     2.055834647531   107.89426735   357.68057396
 H     71  69  68     2.059568352351   109.77404429   237.29106639
 H     71  69  68     2.060341895221   109.86013390   117.84207938

---------------------
BASIS SET INFORMATION
---------------------
There are 5 groups of distinct atoms

 Group   1 Type C   : 7s4p1d contracted to 3s2p1d pattern {511/31/1}
 Group   2 Type F   : 7s4p1d contracted to 3s2p1d pattern {511/31/1}
 Group   3 Type N   : 7s4p1d contracted to 3s2p1d pattern {511/31/1}
 Group   4 Type S   : 10s7p1d contracted to 4s3p1d pattern {5311/511/1}
 Group   5 Type H   : 4s1p contracted to 2s1p pattern {31/1}

Atom   0C    basis set group =>   1
Atom   1C    basis set group =>   1
Atom   2F    basis set group =>   2
Atom   3C    basis set group =>   1
Atom   4F    basis set group =>   2
Atom   5C    basis set group =>   1
Atom   6C    basis set group =>   1
Atom   7C    basis set group =>   1
Atom   8N    basis set group =>   3
Atom   9N    basis set group =>   3
Atom  10N    basis set group =>   3
Atom  11C    basis set group =>   1
Atom  12C    basis set group =>   1
Atom  13C    basis set group =>   1
Atom  14C    basis set group =>   1
Atom  15C    basis set group =>   1
Atom  16S    basis set group =>   4
Atom  17C    basis set group =>   1
Atom  18C    basis set group =>   1
Atom  19C    basis set group =>   1
Atom  20C    basis set group =>   1
Atom  21C    basis set group =>   1
Atom  22N    basis set group =>   3
Atom  23C    basis set group =>   1
Atom  24N    basis set group =>   3
Atom  25C    basis set group =>   1
Atom  26C    basis set group =>   1
Atom  27S    basis set group =>   4
Atom  28C    basis set group =>   1
Atom  29C    basis set group =>   1
Atom  30C    basis set group =>   1
Atom  31N    basis set group =>   3
Atom  32C    basis set group =>   1
Atom  33C    basis set group =>   1
Atom  34N    basis set group =>   3
Atom  35F    basis set group =>   2
Atom  36F    basis set group =>   2
Atom  37C    basis set group =>   1
Atom  38C    basis set group =>   1
Atom  39C    basis set group =>   1
Atom  40N    basis set group =>   3
Atom  41S    basis set group =>   4
Atom  42N    basis set group =>   3
Atom  43C    basis set group =>   1
Atom  44C    basis set group =>   1
Atom  45C    basis set group =>   1
Atom  46C    basis set group =>   1
Atom  47S    basis set group =>   4
Atom  48C    basis set group =>   1
Atom  49C    basis set group =>   1
Atom  50C    basis set group =>   1
Atom  51C    basis set group =>   1
Atom  52C    basis set group =>   1
Atom  53N    basis set group =>   3
Atom  54C    basis set group =>   1
Atom  55N    basis set group =>   3
Atom  56C    basis set group =>   1
Atom  57C    basis set group =>   1
Atom  58S    basis set group =>   4
Atom  59C    basis set group =>   1
Atom  60C    basis set group =>   1
Atom  61F    basis set group =>   2
Atom  62C    basis set group =>   1
Atom  63F    basis set group =>   2
Atom  64C    basis set group =>   1
Atom  65C    basis set group =>   1
Atom  66C    basis set group =>   1
Atom  67N    basis set group =>   3
Atom  68N    basis set group =>   3
Atom  69N    basis set group =>   3
Atom  70C    basis set group =>   1
Atom  71H    basis set group =>   5
Atom  72H    basis set group =>   5
Atom  73H    basis set group =>   5
Atom  74H    basis set group =>   5
Atom  75H    basis set group =>   5
Atom  76H    basis set group =>   5
Atom  77H    basis set group =>   5
Atom  78H    basis set group =>   5
Atom  79H    basis set group =>   5
Atom  80H    basis set group =>   5
Atom  81H    basis set group =>   5
Atom  82H    basis set group =>   5
---------------------------------
AUXILIARY/J BASIS SET INFORMATION
---------------------------------
There are 5 groups of distinct atoms

 Group   1 Type C   : 12s5p4d2f1g contracted to 6s4p3d1f1g pattern {711111/2111/211/2/1}
 Group   2 Type F   : 12s5p4d2f1g contracted to 6s4p3d1f1g pattern {711111/2111/211/2/1}
 Group   3 Type N   : 12s5p4d2f1g contracted to 6s4p3d1f1g pattern {711111/2111/211/2/1}
 Group   4 Type S   : 14s5p5d2f1g contracted to 8s4p3d1f1g pattern {71111111/2111/311/2/1}
 Group   5 Type H   : 5s2p1d contracted to 3s1p1d pattern {311/2/1}

Atom   0C    basis set group =>   1
Atom   1C    basis set group =>   1
Atom   2F    basis set group =>   2
Atom   3C    basis set group =>   1
Atom   4F    basis set group =>   2
Atom   5C    basis set group =>   1
Atom   6C    basis set group =>   1
Atom   7C    basis set group =>   1
Atom   8N    basis set group =>   3
Atom   9N    basis set group =>   3
Atom  10N    basis set group =>   3
Atom  11C    basis set group =>   1
Atom  12C    basis set group =>   1
Atom  13C    basis set group =>   1
Atom  14C    basis set group =>   1
Atom  15C    basis set group =>   1
Atom  16S    basis set group =>   4
Atom  17C    basis set group =>   1
Atom  18C    basis set group =>   1
Atom  19C    basis set group =>   1
Atom  20C    basis set group =>   1
Atom  21C    basis set group =>   1
Atom  22N    basis set group =>   3
Atom  23C    basis set group =>   1
Atom  24N    basis set group =>   3
Atom  25C    basis set group =>   1
Atom  26C    basis set group =>   1
Atom  27S    basis set group =>   4
Atom  28C    basis set group =>   1
Atom  29C    basis set group =>   1
Atom  30C    basis set group =>   1
Atom  31N    basis set group =>   3
Atom  32C    basis set group =>   1
Atom  33C    basis set group =>   1
Atom  34N    basis set group =>   3
Atom  35F    basis set group =>   2
Atom  36F    basis set group =>   2
Atom  37C    basis set group =>   1
Atom  38C    basis set group =>   1
Atom  39C    basis set group =>   1
Atom  40N    basis set group =>   3
Atom  41S    basis set group =>   4
Atom  42N    basis set group =>   3
Atom  43C    basis set group =>   1
Atom  44C    basis set group =>   1
Atom  45C    basis set group =>   1
Atom  46C    basis set group =>   1
Atom  47S    basis set group =>   4
Atom  48C    basis set group =>   1
Atom  49C    basis set group =>   1
Atom  50C    basis set group =>   1
Atom  51C    basis set group =>   1
Atom  52C    basis set group =>   1
Atom  53N    basis set group =>   3
Atom  54C    basis set group =>   1
Atom  55N    basis set group =>   3
Atom  56C    basis set group =>   1
Atom  57C    basis set group =>   1
Atom  58S    basis set group =>   4
Atom  59C    basis set group =>   1
Atom  60C    basis set group =>   1
Atom  61F    basis set group =>   2
Atom  62C    basis set group =>   1
Atom  63F    basis set group =>   2
Atom  64C    basis set group =>   1
Atom  65C    basis set group =>   1
Atom  66C    basis set group =>   1
Atom  67N    basis set group =>   3
Atom  68N    basis set group =>   3
Atom  69N    basis set group =>   3
Atom  70C    basis set group =>   1
Atom  71H    basis set group =>   5
Atom  72H    basis set group =>   5
Atom  73H    basis set group =>   5
Atom  74H    basis set group =>   5
Atom  75H    basis set group =>   5
Atom  76H    basis set group =>   5
Atom  77H    basis set group =>   5
Atom  78H    basis set group =>   5
Atom  79H    basis set group =>   5
Atom  80H    basis set group =>   5
Atom  81H    basis set group =>   5
Atom  82H    basis set group =>   5


           ************************************************************
           *        Program running with 6 parallel MPI-processes     *
           *              working on a common directory               *
           ************************************************************
------------------------------------------------------------------------------
                           ORCA GTO INTEGRAL CALCULATION
                           -- RI-GTO INTEGRALS CHOSEN --
------------------------------------------------------------------------------

                         BASIS SET STATISTICS AND STARTUP INFO

Gaussian basis set:
 # of primitive gaussian shells          ...  942
 # of primitive gaussian functions       ... 1848
 # of contracted shells                  ...  472
 # of contracted basis functions         ... 1074
 Highest angular momentum                ...    2
 Maximum contraction depth               ...    5
Auxiliary gaussian basis set:
 # of primitive gaussian shells          ... 1815
 # of primitive gaussian functions       ... 5197
 # of contracted shells                  ... 1135
 # of contracted aux-basis functions     ... 3621
 Highest angular momentum                ...    4
 Maximum contraction depth               ...    7
Ratio of auxiliary to basis functions    ...  3.37
Integral package used                  ... LIBINT
 One Electron integrals                  ... done
 Ordering auxiliary basis shells         ... done
 Integral threshhold             Thresh  ...  2.500e-11
 Primitive cut-off               TCut    ...  2.500e-12
 Pre-screening matrix                    ... done
 Shell pair data                         ... 
 Ordering of the shell pairs             ... done (   0.008 sec) 36046 of 111628 pairs
 Determination of significant pairs      ... done (   0.000 sec)
 Creation of shell pair data             ... done (   0.005 sec)
 Storage of shell pair data              ... done (   0.007 sec)
 Shell pair data done in (   0.020 sec)
 Computing two index integrals           ... done
 Cholesky decomposition of the V-matrix  ... done


Timings:
 Total evaluation time                   ...   1.855 sec (  0.031 min)
 One electron matrix time                ...   0.400 sec (  0.007 min) = 21.6%
 Schwartz matrix evaluation time         ...   0.621 sec (  0.010 min) = 33.5%
 Two index repulsion integral time       ...   0.293 sec (  0.005 min) = 15.8%
 Cholesky decomposition of V             ...   0.505 sec (  0.008 min) = 27.2%
 Three index repulsion integral time     ...   0.000 sec (  0.000 min) =  0.0%



           ************************************************************
           *        Program running with 6 parallel MPI-processes     *
           *              working on a common directory               *
           ************************************************************
-------------------------------------------------------------------------------
                                 ORCA SCF
-------------------------------------------------------------------------------

------------
SCF SETTINGS
------------
Hamiltonian:
 Density Functional     Method          .... DFT(GTOs)
 Exchange Functional    Exchange        .... WB88
 Correlation Functional Correlation     .... LYP
 LDA part of GGA corr.  LDAOpt          .... VWN-5
 Gradients option       PostSCFGGA      .... off
 Hybrid DFT is turned on
   Fraction HF Exchange ScalHFX         ....  0.190000
   Scaling of DF-GGA-X  ScalDFX         ....  0.350000
   Scaling of DF-GGA-C  ScalDFC         ....  0.810000
   Scaling of DF-LDA-C  ScalLDAC        ....  1.000000
   Perturbative correction              ....  0.000000
   Density functional embedding theory  .... OFF
 Long-range corrected/Screened/Range-Separated Hybrid DFT is turned on
   Amount of maximum screened exact exchange              ....  0.460000
   Range separation parameter mu (erf(mu*r12)/r12)        ....  0.330000
 RI-approximation to the Coulomb term is turned on
   Number of auxiliary basis functions  .... 3621
   RIJ-COSX (HFX calculated with COS-X)).... on


General Settings:
 Integral files         IntName         .... xtbopt
 Hartree-Fock type      HFTyp           .... RHF
 Total Charge           Charge          ....    0
 Multiplicity           Mult            ....    1
 Number of Electrons    NEL             ....  520
 Basis Dimension        Dim             .... 1074
 Nuclear Repulsion      ENuc            ....  10672.9894228109 Eh

Convergence Acceleration:
 DIIS                   CNVDIIS         .... on
   Start iteration      DIISMaxIt       ....    12
   Startup error        DIISStart       ....  0.200000
   # of expansion vecs  DIISMaxEq       ....     5
   Bias factor          DIISBfac        ....   1.050
   Max. coefficient     DIISMaxC        ....  10.000
 Newton-Raphson         CNVNR           .... off
 SOSCF                  CNVSOSCF        .... on
   Start iteration      SOSCFMaxIt      ....   150
   Startup grad/error   SOSCFStart      ....  0.003300
 Level Shifting         CNVShift        .... on
   Level shift para.    LevelShift      ....    0.2500
   Turn off err/grad.   ShiftErr        ....    0.0010
 Zerner damping         CNVZerner       .... off
 Static damping         CNVDamp         .... on
   Fraction old density DampFac         ....    0.7000
   Max. Damping (<1)    DampMax         ....    0.9800
   Min. Damping (>=0)   DampMin         ....    0.0000
   Turn off err/grad.   DampErr         ....    0.1000
 Fernandez-Rico         CNVRico         .... off

SCF Procedure:
 Maximum # iterations   MaxIter         ....   125
 SCF integral mode      SCFMode         .... Direct
   Integral package                     .... LIBINT
 Reset frequency        DirectResetFreq ....    20
 Integral Threshold     Thresh          ....  2.500e-11 Eh
 Primitive CutOff       TCut            ....  2.500e-12 Eh

Convergence Tolerance:
 Convergence Check Mode ConvCheckMode   .... Total+1el-Energy
 Convergence forced     ConvForced      .... 1
 Energy Change          TolE            ....  1.000e-08 Eh
 1-El. energy change                    ....  1.000e-05 Eh
 Orbital Gradient       TolG            ....  1.000e-05
 Orbital Rotation angle TolX            ....  1.000e-05
 DIIS Error             TolErr          ....  5.000e-07


Diagonalization of the overlap matrix:
Smallest eigenvalue                        ... 1.107e-04
Time for diagonalization                   ...    0.171 sec
Threshold for overlap eigenvalues          ... 1.000e-08
Number of eigenvalues below threshold      ... 0
Time for construction of square roots      ...    0.121 sec
Total time needed                          ...    0.294 sec

-------------------
DFT GRID GENERATION
-------------------

General Integration Accuracy     IntAcc      ...  4.670
Radial Grid Type                 RadialGrid  ... Gauss-Chebyshev
Angular Grid (max. acc.)         AngularGrid ... Lebedev-302
Angular grid pruning method      GridPruning ... 3 (G Style)
Weight generation scheme         WeightScheme... Becke
Basis function cutoff            BFCut       ...    1.0000e-11
Integration weight cutoff        WCut        ...    1.0000e-14
Grids for H and He will be reduced by one unit

# of grid points (after initial pruning)     ... 485310 (   0.0 sec)
# of grid points (after weights+screening)   ... 421300 (   4.2 sec)
nearest neighbour list constructed           ...    0.0 sec
Grid point re-assignment to atoms done       ...    0.1 sec
Grid point division into batches done        ...    1.6 sec
Reduced shell lists constructed in    2.3 sec

Total number of grid points                  ...   421300
Total number of batches                      ...     6624
Average number of points per batch           ...       63
Average number of grid points per atom       ...     5076
Average number of shells per batch           ...    80.46 (17.05%)
Average number of basis functions per batch  ...   175.47 (16.34%)
Average number of large shells per batch     ...    53.11 (66.00%)
Average number of large basis fcns per batch ...   117.12 (66.74%)
Maximum spatial batch extension              ...  16.54, 21.57, 14.23 au
Average spatial batch extension              ...   0.31,  0.35,  0.29 au

Time for grid setup =    6.928 sec

------------------------------
INITIAL GUESS: MODEL POTENTIAL
------------------------------
Loading Hartree-Fock densities                     ... done
Calculating cut-offs                               ... done
Setting up the integral package                    ... done
Initializing the effective Hamiltonian             ... done
Starting the Coulomb interaction                   ... done (   1.0 sec)
Reading the grid                                   ... done
Mapping shells                                     ... done
Starting the XC term evaluation                    ... done (   1.1 sec)
  promolecular density results
     # of electrons  =    519.993762110
     EX              =   -515.255232111
     EC              =    -18.302963424
     EX+EC           =   -533.558195535
Transforming the Hamiltonian                       ... done (   0.1 sec)
Diagonalizing the Hamiltonian                      ... done (   0.2 sec)
Back transforming the eigenvectors                 ... done (   0.0 sec)
Now organizing SCF variables                       ... done
                      ------------------
                      INITIAL GUESS DONE (   9.4 sec)
                      ------------------
--------------------
COSX GRID GENERATION
--------------------

General Integration Accuracy     IntAcc      ...  3.340
Radial Grid Type                 RadialGrid  ... Gauss-Chebyshev
Angular Grid (max. acc.)         AngularGrid ... Lebedev-50
Angular grid pruning method      GridPruning ... 3 (G Style)
Weight generation scheme         WeightScheme... Becke
Basis function cutoff            BFCut       ...    1.0000e-11
Integration weight cutoff        WCut        ...    1.0000e-14
Grids for H and He will be reduced by one unit

# of grid points (after initial pruning)     ...  45454 (   0.0 sec)
# of grid points (after weights+screening)   ...  41255 (   0.4 sec)
nearest neighbour list constructed           ...    0.0 sec
Grid point re-assignment to atoms done       ...    0.0 sec
Grid point division into batches done        ...    0.0 sec
Reduced shell lists constructed in    0.1 sec

Total number of grid points                  ...    41255
Total number of batches                      ...      684
Average number of points per batch           ...       60
Average number of grid points per atom       ...      497
Average number of shells per batch           ...    94.04 (19.92%)
Average number of basis functions per batch  ...   206.81 (19.26%)
Average number of large shells per batch     ...    62.51 (66.47%)
Average number of large basis fcns per batch ...   139.83 (67.62%)
Maximum spatial batch extension              ...  16.70, 19.83, 15.28 au
Average spatial batch extension              ...   0.66,  0.88,  0.55 au

Overlap Fitting                  UseSFitting ... on
Constructing numerical overlap ... done (      0.1 sec)
Inverting numerical overlap    ... done (      0.0 sec)
Obtaining analytic overlap     ... done (      0.0 sec)
Final contraction and storage  ... done (      0.0 sec)


General Integration Accuracy     IntAcc      ...  3.670
Radial Grid Type                 RadialGrid  ... Gauss-Chebyshev
Angular Grid (max. acc.)         AngularGrid ... Lebedev-50
Angular grid pruning method      GridPruning ... 3 (G Style)
Weight generation scheme         WeightScheme... Becke
Basis function cutoff            BFCut       ...    1.0000e-11
Integration weight cutoff        WCut        ...    1.0000e-14
Grids for H and He will be reduced by one unit

# of grid points (after initial pruning)     ...  56178 (   0.0 sec)
# of grid points (after weights+screening)   ...  50858 (   0.5 sec)
nearest neighbour list constructed           ...    0.0 sec
Grid point re-assignment to atoms done       ...    0.0 sec
Grid point division into batches done        ...    0.0 sec
Reduced shell lists constructed in    0.1 sec

Total number of grid points                  ...    50858
Total number of batches                      ...      842
Average number of points per batch           ...       60
Average number of grid points per atom       ...      613
Average number of shells per batch           ...    94.09 (19.93%)
Average number of basis functions per batch  ...   206.84 (19.26%)
Average number of large shells per batch     ...    62.11 (66.01%)
Average number of large basis fcns per batch ...   138.71 (67.06%)
Maximum spatial batch extension              ...  17.89, 21.91, 16.25 au
Average spatial batch extension              ...   0.62,  0.82,  0.50 au

Overlap Fitting                  UseSFitting ... on
Constructing numerical overlap ... done (      0.1 sec)
Inverting numerical overlap    ... done (      0.0 sec)
Obtaining analytic overlap     ... done (      0.0 sec)
Final contraction and storage  ... done (      0.0 sec)


General Integration Accuracy     IntAcc      ...  4.010
Radial Grid Type                 RadialGrid  ... Gauss-Chebyshev
Angular Grid (max. acc.)         AngularGrid ... Lebedev-110
Angular grid pruning method      GridPruning ... 3 (G Style)
Weight generation scheme         WeightScheme... Becke
Basis function cutoff            BFCut       ...    1.0000e-11
Integration weight cutoff        WCut        ...    1.0000e-14
Grids for H and He will be reduced by one unit

# of grid points (after initial pruning)     ... 112932 (   0.0 sec)
# of grid points (after weights+screening)   ... 100810 (   1.0 sec)
nearest neighbour list constructed           ...    0.0 sec
Grid point re-assignment to atoms done       ...    0.0 sec
Grid point division into batches done        ...    0.1 sec
Reduced shell lists constructed in    0.3 sec

Total number of grid points                  ...   100810
Total number of batches                      ...     1621
Average number of points per batch           ...       62
Average number of grid points per atom       ...     1215
Average number of shells per batch           ...    89.00 (18.86%)
Average number of basis functions per batch  ...   195.64 (18.22%)
Average number of large shells per batch     ...    59.33 (66.67%)
Average number of large basis fcns per batch ...   131.72 (67.33%)
Maximum spatial batch extension              ...  21.39, 26.70, 13.51 au
Average spatial batch extension              ...   0.52,  0.69,  0.44 au

Overlap Fitting                  UseSFitting ... on
Constructing numerical overlap ... done (      0.1 sec)
Inverting numerical overlap    ... done (      0.0 sec)
Obtaining analytic overlap     ... done (      0.0 sec)
Final contraction and storage  ... done (      0.0 sec)

Time for X-Grid setup             =    3.198 sec
--------------
SCF ITERATIONS
--------------
ITER       Energy         Delta-E        Max-DP      RMS-DP      [F,P]     Damp
               ***  Starting incremental Fock matrix formation  ***
  0  -5110.8004823398   0.000000000000 0.08394215  0.00102465  0.2103852 0.7000
  1  -5111.4007803554  -0.600298015665 0.04516004  0.00069497  0.0953950 0.7000
                               ***Turning on DIIS***
  2  -5111.6417683191  -0.240987963669 0.09592778  0.00122767  0.0364228 0.0000
  3  -5112.0147757259  -0.373007406810 0.06385667  0.00056394  0.0487418 0.0000
  4  -5112.1086125020  -0.093836776105 0.01562931  0.00018523  0.0137822 0.0000
  5  -5112.1132759706  -0.004663468624 0.00653390  0.00006487  0.0106890 0.0000
                      *** Initiating the SOSCF procedure ***
                           *** Shutting down DIIS ***
                      *** Re-Reading the Fockian *** 
                      *** Removing any level shift *** 
ITER      Energy       Delta-E        Grad      Rot      Max-DP    RMS-DP
  6  -5112.11429881  -0.0010228352  0.001563  0.001563  0.002904  0.000032
               *** Restarting incremental Fock matrix formation ***
  7  -5112.11454990  -0.0002510987  0.000994  0.003880  0.003066  0.000027
  8  -5112.11467447  -0.0001245663  0.000449  0.004313  0.002861  0.000028
  9  -5112.11467705  -0.0000025762  0.000787  0.001609  0.001061  0.000011
 10  -5112.11470710  -0.0000300567  0.000162  0.000825  0.000775  0.000006
 11  -5112.11470645   0.0000006540  0.000166  0.000507  0.000411  0.000003
 12  -5112.11470917  -0.0000027167  0.000026  0.000152  0.000092  0.000001
 13  -5112.11470915   0.0000000182  0.000046  0.000096  0.000047  0.000001
 14  -5112.11470925  -0.0000001022  0.000008  0.000075  0.000031  0.000000
 15  -5112.11470928  -0.0000000285  0.000006  0.000051  0.000020  0.000000
                  ***Gradient check signals convergence***
              ***Rediagonalizing the Fockian in SOSCF/NRSCF***

               *****************************************************
               *                     SUCCESS                       *
               *           SCF CONVERGED AFTER  16 CYCLES          *
               *****************************************************

Setting up the final grid:

General Integration Accuracy     IntAcc      ...  5.010
Radial Grid Type                 RadialGrid  ... Gauss-Chebyshev
Angular Grid (max. acc.)         AngularGrid ... Lebedev-434
Angular grid pruning method      GridPruning ... 3 (G Style)
Weight generation scheme         WeightScheme... Becke
Basis function cutoff            BFCut       ...    1.0000e-11
Integration weight cutoff        WCut        ...    1.0000e-14
Grids for H and He will be reduced by one unit

# of grid points (after initial pruning)     ... 844280 (   0.0 sec)
# of grid points (after weights+screening)   ... 730340 (   7.3 sec)
nearest neighbour list constructed           ...    0.0 sec
Grid point re-assignment to atoms done       ...    0.1 sec
Grid point division into batches done        ...    5.1 sec
Reduced shell lists constructed in    6.3 sec

Total number of grid points                  ...   730340
Total number of batches                      ...    11453
Average number of points per batch           ...       63
Average number of grid points per atom       ...     8799
Average number of shells per batch           ...    78.53 (16.64%)
Average number of basis functions per batch  ...   170.91 (15.91%)
Average number of large shells per batch     ...    51.58 (65.68%)
Average number of large basis fcns per batch ...   113.56 (66.44%)
Maximum spatial batch extension              ...  16.29, 22.65, 18.91 au
Average spatial batch extension              ...   0.26,  0.29,  0.24 au

Final grid set up in   14.2 sec
Final integration                            ... done (   2.5 sec)
Change in XC energy                          ...     0.000024696
Integrated number of electrons               ...   519.999974555
Previous integrated no of electrons          ...   519.999760091
Old exchange energy                            =   -139.939937920 Eh
New exchange energy                            =   -139.937058130 Eh
Exchange energy change after final integration =      0.002879790 Eh
Total energy after final integration           =  -5112.111804775 Eh
Final COS-X integration done in                =    48.056 sec

----------------
TOTAL SCF ENERGY
----------------

Total Energy       :        -5112.11180478 Eh         -139107.63430 eV

Components:
Nuclear Repulsion  :        10672.98942281 Eh          290426.80721 eV
Electronic Energy  :       -15785.10122759 Eh         -429534.44151 eV
One Electron Energy:       -28272.20109444 Eh         -769325.70354 eV
Two Electron Energy:        12487.09986685 Eh          339791.26203 eV

Virial components:
Potential Energy   :       -10193.62380288 Eh         -277382.60554 eV
Kinetic Energy     :         5081.51199811 Eh          138274.97123 eV
Virial Ratio       :            2.00602179


DFT components:
N(Alpha)           :      259.999987277331 electrons
N(Beta)            :      259.999987277331 electrons
N(Total)           :      519.999974554662 electrons
E(XC)              :     -400.783328249464 Eh       
DFET-embed. en.    :        0.000000000000 Eh       

---------------
SCF CONVERGENCE
---------------

  Last Energy change         ...    1.7535e-08  Tolerance :   1.0000e-08
  Last MAX-Density change    ...    9.3259e-15  Tolerance :   1.0000e-07
  Last RMS-Density change    ...    4.0313e-17  Tolerance :   5.0000e-09
  Last Orbital Gradient      ...    2.2045e-06  Tolerance :   1.0000e-05
  Last Orbital Rotation      ...    1.8892e-05  Tolerance :   1.0000e-05

             **** THE GBW FILE WAS UPDATED (xtbopt.gbw) ****
             **** DENSITY FILE WAS UPDATED (xtbopt.scfp) ****
             **** ENERGY FILE WAS UPDATED (xtbopt.en.tmp) ****
             **** THE GBW FILE WAS UPDATED (xtbopt.gbw) ****
             **** DENSITY FILE WAS UPDATED (xtbopt.scfp) ****
----------------
ORBITAL ENERGIES
----------------

  NO   OCC          E(Eh)            E(eV) 
   0   2.0000     -89.041588     -2422.9448 
   1   2.0000     -88.980894     -2421.2932 
   2   2.0000     -88.980809     -2421.2909 
   3   2.0000     -88.977456     -2421.1997 
   4   2.0000     -88.977323     -2421.1961 
   5   2.0000     -24.823293      -675.4762 
   6   2.0000     -24.823139      -675.4720 
   7   2.0000     -24.802679      -674.9152 
   8   2.0000     -24.802619      -674.9136 
   9   2.0000     -24.788551      -674.5308 
  10   2.0000     -24.788405      -674.5268 
  11   2.0000     -14.546745      -395.8371 
  12   2.0000     -14.546719      -395.8363 
  13   2.0000     -14.464713      -393.6049 
  14   2.0000     -14.464562      -393.6007 
  15   2.0000     -14.450459      -393.2170 
  16   2.0000     -14.450387      -393.2150 
  17   2.0000     -14.448463      -393.1627 
  18   2.0000     -14.448339      -393.1593 
  19   2.0000     -14.445709      -393.0877 
  20   2.0000     -14.445526      -393.0827 
  21   2.0000     -14.423583      -392.4856 
  22   2.0000     -14.423488      -392.4831 
  23   2.0000     -14.421658      -392.4333 
  24   2.0000     -14.421646      -392.4329 
  25   2.0000     -10.439537      -284.0742 
  26   2.0000     -10.439243      -284.0662 
  27   2.0000     -10.375422      -282.3296 
  28   2.0000     -10.375420      -282.3295 
  29   2.0000     -10.373742      -282.2839 
  30   2.0000     -10.373675      -282.2820 
  31   2.0000     -10.354643      -281.7642 
  32   2.0000     -10.354602      -281.7630 
  33   2.0000     -10.348657      -281.6013 
  34   2.0000     -10.348389      -281.5940 
  35   2.0000     -10.342869      -281.4438 
  36   2.0000     -10.342835      -281.4428 
  37   2.0000     -10.341598      -281.4092 
  38   2.0000     -10.341361      -281.4027 
  39   2.0000     -10.324346      -280.9397 
  40   2.0000     -10.324230      -280.9366 
  41   2.0000     -10.322410      -280.8871 
  42   2.0000     -10.322401      -280.8868 
  43   2.0000     -10.321444      -280.8608 
  44   2.0000     -10.321373      -280.8588 
  45   2.0000     -10.321356      -280.8584 
  46   2.0000     -10.321263      -280.8559 
  47   2.0000     -10.318951      -280.7929 
  48   2.0000     -10.318910      -280.7918 
  49   2.0000     -10.318345      -280.7764 
  50   2.0000     -10.318170      -280.7717 
  51   2.0000     -10.317946      -280.7656 
  52   2.0000     -10.317902      -280.7644 
  53   2.0000     -10.316671      -280.7309 
  54   2.0000     -10.316555      -280.7277 
  55   2.0000     -10.315678      -280.7039 
  56   2.0000     -10.315632      -280.7026 
  57   2.0000     -10.313763      -280.6518 
  58   2.0000     -10.313592      -280.6471 
  59   2.0000     -10.312849      -280.6269 
  60   2.0000     -10.312831      -280.6264 
  61   2.0000     -10.293015      -280.0872 
  62   2.0000     -10.293007      -280.0870 
  63   2.0000     -10.292618      -280.0764 
  64   2.0000     -10.292581      -280.0754 
  65   2.0000     -10.290865      -280.0287 
  66   2.0000     -10.290844      -280.0281 
  67   2.0000     -10.288528      -279.9651 
  68   2.0000     -10.288498      -279.9643 
  69   2.0000     -10.286672      -279.9146 
  70   2.0000     -10.286641      -279.9137 
  71   2.0000      -8.132744      -221.3032 
  72   2.0000      -8.074995      -219.7318 
  73   2.0000      -8.074932      -219.7301 
  74   2.0000      -8.070313      -219.6044 
  75   2.0000      -8.070237      -219.6023 
  76   2.0000      -6.103837      -166.0939 
  77   2.0000      -6.095923      -165.8785 
  78   2.0000      -6.095586      -165.8693 
  79   2.0000      -6.044221      -164.4716 
  80   2.0000      -6.044182      -164.4705 
  81   2.0000      -6.039901      -164.3541 
  82   2.0000      -6.039830      -164.3521 
  83   2.0000      -6.039786      -164.3509 
  84   2.0000      -6.039713      -164.3489 
  85   2.0000      -6.037524      -164.2894 
  86   2.0000      -6.037448      -164.2873 
  87   2.0000      -6.035064      -164.2224 
  88   2.0000      -6.034989      -164.2204 
  89   2.0000      -6.032825      -164.1615 
  90   2.0000      -6.032725      -164.1588 
  91   2.0000      -1.351635       -36.7799 
  92   2.0000      -1.337628       -36.3987 
  93   2.0000      -1.320091       -35.9215 
  94   2.0000      -1.320041       -35.9201 
  95   2.0000      -1.299613       -35.3643 
  96   2.0000      -1.299453       -35.3599 
  97   2.0000      -1.225056       -33.3355 
  98   2.0000      -1.225021       -33.3345 
  99   2.0000      -1.139827       -31.0163 
 100   2.0000      -1.122956       -30.5572 
 101   2.0000      -1.050432       -28.5837 
 102   2.0000      -1.034319       -28.1452 
 103   2.0000      -1.033720       -28.1289 
 104   2.0000      -1.013826       -27.5876 
 105   2.0000      -1.013697       -27.5841 
 106   2.0000      -1.001556       -27.2537 
 107   2.0000      -1.001398       -27.2494 
 108   2.0000      -0.999539       -27.1988 
 109   2.0000      -0.999500       -27.1978 
 110   2.0000      -0.996146       -27.1065 
 111   2.0000      -0.994053       -27.0495 
 112   2.0000      -0.991665       -26.9846 
 113   2.0000      -0.987363       -26.8675 
 114   2.0000      -0.979096       -26.6426 
 115   2.0000      -0.969218       -26.3738 
 116   2.0000      -0.949845       -25.8466 
 117   2.0000      -0.945722       -25.7344 
 118   2.0000      -0.928872       -25.2759 
 119   2.0000      -0.928841       -25.2751 
 120   2.0000      -0.911764       -24.8104 
 121   2.0000      -0.903605       -24.5883 
 122   2.0000      -0.889540       -24.2056 
 123   2.0000      -0.885832       -24.1047 
 124   2.0000      -0.873587       -23.7715 
 125   2.0000      -0.869700       -23.6657 
 126   2.0000      -0.855098       -23.2684 
 127   2.0000      -0.849109       -23.1054 
 128   2.0000      -0.844223       -22.9725 
 129   2.0000      -0.843516       -22.9532 
 130   2.0000      -0.822826       -22.3902 
 131   2.0000      -0.819034       -22.2870 
 132   2.0000      -0.818380       -22.2692 
 133   2.0000      -0.803601       -21.8671 
 134   2.0000      -0.789083       -21.4721 
 135   2.0000      -0.774354       -21.0712 
 136   2.0000      -0.770282       -20.9604 
 137   2.0000      -0.768006       -20.8985 
 138   2.0000      -0.759990       -20.6804 
 139   2.0000      -0.747250       -20.3337 
 140   2.0000      -0.740567       -20.1519 
 141   2.0000      -0.738070       -20.0839 
 142   2.0000      -0.736742       -20.0478 
 143   2.0000      -0.725123       -19.7316 
 144   2.0000      -0.707398       -19.2493 
 145   2.0000      -0.700926       -19.0732 
 146   2.0000      -0.697535       -18.9809 
 147   2.0000      -0.686292       -18.6750 
 148   2.0000      -0.685322       -18.6485 
 149   2.0000      -0.680300       -18.5119 
 150   2.0000      -0.676899       -18.4193 
 151   2.0000      -0.671423       -18.2704 
 152   2.0000      -0.670049       -18.2329 
 153   2.0000      -0.663297       -18.0492 
 154   2.0000      -0.659202       -17.9378 
 155   2.0000      -0.654214       -17.8021 
 156   2.0000      -0.646334       -17.5877 
 157   2.0000      -0.642111       -17.4727 
 158   2.0000      -0.634328       -17.2609 
 159   2.0000      -0.634223       -17.2581 
 160   2.0000      -0.628659       -17.1067 
 161   2.0000      -0.628014       -17.0891 
 162   2.0000      -0.626749       -17.0547 
 163   2.0000      -0.622641       -16.9429 
 164   2.0000      -0.620369       -16.8811 
 165   2.0000      -0.617453       -16.8018 
 166   2.0000      -0.611007       -16.6264 
 167   2.0000      -0.609255       -16.5787 
 168   2.0000      -0.609219       -16.5777 
 169   2.0000      -0.604323       -16.4445 
 170   2.0000      -0.599375       -16.3098 
 171   2.0000      -0.591769       -16.1029 
 172   2.0000      -0.582240       -15.8435 
 173   2.0000      -0.582206       -15.8426 
 174   2.0000      -0.578650       -15.7459 
 175   2.0000      -0.576196       -15.6791 
 176   2.0000      -0.573589       -15.6081 
 177   2.0000      -0.567283       -15.4366 
 178   2.0000      -0.566325       -15.4105 
 179   2.0000      -0.564479       -15.3602 
 180   2.0000      -0.563405       -15.3310 
 181   2.0000      -0.553992       -15.0749 
 182   2.0000      -0.550336       -14.9754 
 183   2.0000      -0.543722       -14.7954 
 184   2.0000      -0.543628       -14.7929 
 185   2.0000      -0.539764       -14.6877 
 186   2.0000      -0.539609       -14.6835 
 187   2.0000      -0.537073       -14.6145 
 188   2.0000      -0.536589       -14.6013 
 189   2.0000      -0.526474       -14.3261 
 190   2.0000      -0.525794       -14.3076 
 191   2.0000      -0.525062       -14.2877 
 192   2.0000      -0.520460       -14.1624 
 193   2.0000      -0.519218       -14.1286 
 194   2.0000      -0.514146       -13.9906 
 195   2.0000      -0.513513       -13.9734 
 196   2.0000      -0.507853       -13.8194 
 197   2.0000      -0.507776       -13.8173 
 198   2.0000      -0.505175       -13.7465 
 199   2.0000      -0.504303       -13.7228 
 200   2.0000      -0.498441       -13.5633 
 201   2.0000      -0.495900       -13.4941 
 202   2.0000      -0.495881       -13.4936 
 203   2.0000      -0.494964       -13.4687 
 204   2.0000      -0.487318       -13.2606 
 205   2.0000      -0.486818       -13.2470 
 206   2.0000      -0.486176       -13.2295 
 207   2.0000      -0.484184       -13.1753 
 208   2.0000      -0.483502       -13.1568 
 209   2.0000      -0.481743       -13.1089 
 210   2.0000      -0.475318       -12.9341 
 211   2.0000      -0.469413       -12.7734 
 212   2.0000      -0.469372       -12.7722 
 213   2.0000      -0.466266       -12.6878 
 214   2.0000      -0.465030       -12.6541 
 215   2.0000      -0.457472       -12.4485 
 216   2.0000      -0.456704       -12.4275 
 217   2.0000      -0.455811       -12.4032 
 218   2.0000      -0.454669       -12.3722 
 219   2.0000      -0.453866       -12.3503 
 220   2.0000      -0.449364       -12.2278 
 221   2.0000      -0.448483       -12.2038 
 222   2.0000      -0.442307       -12.0358 
 223   2.0000      -0.434816       -11.8319 
 224   2.0000      -0.433303       -11.7908 
 225   2.0000      -0.432559       -11.7705 
 226   2.0000      -0.430781       -11.7221 
 227   2.0000      -0.430629       -11.7180 
 228   2.0000      -0.430526       -11.7152 
 229   2.0000      -0.429651       -11.6914 
 230   2.0000      -0.426774       -11.6131 
 231   2.0000      -0.422472       -11.4961 
 232   2.0000      -0.419399       -11.4124 
 233   2.0000      -0.419204       -11.4071 
 234   2.0000      -0.409002       -11.1295 
 235   2.0000      -0.408819       -11.1245 
 236   2.0000      -0.406307       -11.0562 
 237   2.0000      -0.398118       -10.8333 
 238   2.0000      -0.397960       -10.8291 
 239   2.0000      -0.396708       -10.7950 
 240   2.0000      -0.396543       -10.7905 
 241   2.0000      -0.389093       -10.5878 
 242   2.0000      -0.377623       -10.2757 
 243   2.0000      -0.377368       -10.2687 
 244   2.0000      -0.375600       -10.2206 
 245   2.0000      -0.369244       -10.0476 
 246   2.0000      -0.365246        -9.9389 
 247   2.0000      -0.360471        -9.8089 
 248   2.0000      -0.346178        -9.4200 
 249   2.0000      -0.337331        -9.1793 
 250   2.0000      -0.337184        -9.1752 
 251   2.0000      -0.333653        -9.0792 
 252   2.0000      -0.322759        -8.7827 
 253   2.0000      -0.321499        -8.7484 
 254   2.0000      -0.316217        -8.6047 
 255   2.0000      -0.312925        -8.5151 
 256   2.0000      -0.311495        -8.4762 
 257   2.0000      -0.290515        -7.9053 
 258   2.0000      -0.262548        -7.1443 
 259   2.0000      -0.230695        -6.2775 
 260   0.0000      -0.119566        -3.2536 
 261   0.0000      -0.094068        -2.5597 
 262   0.0000      -0.089158        -2.4261 
 263   0.0000      -0.046510        -1.2656 
 264   0.0000      -0.045332        -1.2335 
 265   0.0000      -0.028909        -0.7867 
 266   0.0000      -0.007329        -0.1994 
 267   0.0000      -0.004919        -0.1338 
 268   0.0000       0.018184         0.4948 
 269   0.0000       0.031554         0.8586 
 270   0.0000       0.040947         1.1142 
 271   0.0000       0.041096         1.1183 
 272   0.0000       0.042877         1.1667 
 273   0.0000       0.053372         1.4523 
 274   0.0000       0.053588         1.4582 
 275   0.0000       0.056766         1.5447 
 276   0.0000       0.070128         1.9083 
 277   0.0000       0.071092         1.9345 
 278   0.0000       0.081706         2.2233 
 279   0.0000       0.081829         2.2267 
 280   0.0000       0.085727         2.3328 
 281   0.0000       0.089858         2.4452 
 282   0.0000       0.091032         2.4771 
 283   0.0000       0.092269         2.5108 
 284   0.0000       0.097418         2.6509 
 285   0.0000       0.101956         2.7744 
 286   0.0000       0.102350         2.7851 
 287   0.0000       0.108493         2.9523 
 288   0.0000       0.110244         2.9999 
 289   0.0000       0.112727         3.0675 
 290   0.0000       0.112886         3.0718 
 291   0.0000       0.117710         3.2030 
 292   0.0000       0.122954         3.3458 
 293   0.0000       0.124790         3.3957 
 294   0.0000       0.124979         3.4008 
 295   0.0000       0.131645         3.5822 
 296   0.0000       0.132391         3.6025 
 297   0.0000       0.133885         3.6432 
 298   0.0000       0.134490         3.6597 
 299   0.0000       0.140832         3.8322 
 300   0.0000       0.142239         3.8705 
 301   0.0000       0.144104         3.9213 
 302   0.0000       0.151120         4.1122 
 303   0.0000       0.151527         4.1233 
 304   0.0000       0.159050         4.3280 
 305   0.0000       0.159854         4.3498 
 306   0.0000       0.162769         4.4292 
 307   0.0000       0.164450         4.4749 
 308   0.0000       0.169155         4.6029 
 309   0.0000       0.169466         4.6114 
 310   0.0000       0.187348         5.0980 
 311   0.0000       0.192324         5.2334 
 312   0.0000       0.192777         5.2457 
 313   0.0000       0.204906         5.5758 
 314   0.0000       0.210763         5.7352 
 315   0.0000       0.211871         5.7653 
 316   0.0000       0.214547         5.8381 
 317   0.0000       0.219423         5.9708 
 318   0.0000       0.222372         6.0510 
 319   0.0000       0.225903         6.1471 
 320   0.0000       0.226943         6.1754 
 321   0.0000       0.227125         6.1804 
 322   0.0000       0.231145         6.2898 
 323   0.0000       0.231889         6.3100 
 324   0.0000       0.233725         6.3600 
 325   0.0000       0.233776         6.3614 
 326   0.0000       0.235907         6.4194 
 327   0.0000       0.237769         6.4700 
 328   0.0000       0.240062         6.5324 
 329   0.0000       0.246352         6.7036 
 330   0.0000       0.249060         6.7773 
 331   0.0000       0.257562         7.0086 
 332   0.0000       0.257886         7.0174 
 333   0.0000       0.262947         7.1551 
 334   0.0000       0.266247         7.2450 
 335   0.0000       0.270942         7.3727 
 336   0.0000       0.274312         7.4644 
 337   0.0000       0.281572         7.6620 
 338   0.0000       0.281924         7.6715 
 339   0.0000       0.284910         7.7528 
 340   0.0000       0.285955         7.7812 
 341   0.0000       0.293776         7.9940 
 342   0.0000       0.299732         8.1561 
 343   0.0000       0.301202         8.1961 
 344   0.0000       0.305498         8.3130 
 345   0.0000       0.306848         8.3498 
 346   0.0000       0.307621         8.3708 
 347   0.0000       0.309036         8.4093 
 348   0.0000       0.309514         8.4223 
 349   0.0000       0.314509         8.5582 
 350   0.0000       0.318991         8.6802 
 351   0.0000       0.320190         8.7128 
 352   0.0000       0.333173         9.0661 
 353   0.0000       0.334066         9.0904 
 354   0.0000       0.335799         9.1375 
 355   0.0000       0.335918         9.1408 
 356   0.0000       0.340584         9.2678 
 357   0.0000       0.347257         9.4494 
 358   0.0000       0.350871         9.5477 
 359   0.0000       0.352488         9.5917 
 360   0.0000       0.357724         9.7342 
 361   0.0000       0.359005         9.7690 
 362   0.0000       0.362535         9.8651 
 363   0.0000       0.363849         9.9008 
 364   0.0000       0.372367        10.1326 
 365   0.0000       0.373464        10.1625 
 366   0.0000       0.377207        10.2643 
 367   0.0000       0.379328        10.3220 
 368   0.0000       0.382314        10.4033 
 369   0.0000       0.384281        10.4568 
 370   0.0000       0.391495        10.6531 
 371   0.0000       0.392419        10.6783 
 372   0.0000       0.398043        10.8313 
 373   0.0000       0.403274        10.9736 
 374   0.0000       0.410909        11.1814 
 375   0.0000       0.412050        11.2125 
 376   0.0000       0.417147        11.3511 
 377   0.0000       0.417474        11.3600 
 378   0.0000       0.424531        11.5521 
 379   0.0000       0.427324        11.6281 
 380   0.0000       0.430384        11.7113 
 381   0.0000       0.431837        11.7509 
 382   0.0000       0.434806        11.8317 
 383   0.0000       0.437597        11.9076 
 384   0.0000       0.444437        12.0938 
 385   0.0000       0.446519        12.1504 
 386   0.0000       0.448446        12.2028 
 387   0.0000       0.448962        12.2169 
 388   0.0000       0.451433        12.2841 
 389   0.0000       0.457997        12.4627 
 390   0.0000       0.458868        12.4864 
 391   0.0000       0.463563        12.6142 
 392   0.0000       0.464012        12.6264 
 393   0.0000       0.464200        12.6315 
 394   0.0000       0.469233        12.7685 
 395   0.0000       0.473755        12.8915 
 396   0.0000       0.474285        12.9060 
 397   0.0000       0.479208        13.0399 
 398   0.0000       0.482050        13.1173 
 399   0.0000       0.482213        13.1217 
 400   0.0000       0.484182        13.1753 
 401   0.0000       0.484991        13.1973 
 402   0.0000       0.486102        13.2275 
 403   0.0000       0.491128        13.3643 
 404   0.0000       0.501354        13.6425 
 405   0.0000       0.503536        13.7019 
 406   0.0000       0.504730        13.7344 
 407   0.0000       0.506892        13.7932 
 408   0.0000       0.507564        13.8115 
 409   0.0000       0.512511        13.9461 
 410   0.0000       0.515619        14.0307 
 411   0.0000       0.520222        14.1559 
 412   0.0000       0.521913        14.2020 
 413   0.0000       0.521948        14.2029 
 414   0.0000       0.523464        14.2442 
 415   0.0000       0.528521        14.3818 
 416   0.0000       0.529967        14.4211 
[...]
  22      4.31     287.6    73 ->  89      gap,J,K:    6.967     2.656     0.000
  23      4.32     287.1    77 ->  89      gap,J,K:    6.166     2.619     0.385
  24      4.34     285.8    88 ->  96      gap,J,K:    6.144     2.216     0.205

average / max PT2 energy lowering (eV):       0.029       0.053

CSF included by PT:                   390 
total number of CSF included:         432 
 
sTD-DFT procedure...
setting up A+B and A-B matrices...  done
estimated time (min):    0.003
calculating (A-B)^0.5 ... done
calculating (A+B)*(A-B)^0.5 ... done
calculating (A-B)^0.5 *(A+B)*(A-B)^0.5 ... done
diagonalizing ...using LAPACKE_ssyevr ...done

   43 roots found, lowest/highest eigenvalue :     1.137     4.998

excitation energies, transition moments and amplitudes

molecular weight: 1034.988
state   eV        nm        fL         fV        Rl        RV
   0   1.137    1090.4   0.798789   1.650896  -3.106720  -3.185579     0.95 (  88->  89)    0.03 (  87->  90)    0.01 (  86->  89)
   1   1.575     787.2   0.003012   0.004484   1.426068   1.668633     0.79 (  88->  90)    0.12 (  87->  91)    0.06 (  87->  89)
   2   1.677     739.4   0.005877   0.018358  -0.478239  -0.546504     0.82 (  88->  91)    0.14 (  87->  90)    0.01 (  88->  89)
   3   2.178     569.3   0.001134   0.001350   0.062751   0.028148     0.87 (  87->  89)    0.05 (  88->  90)    0.02 (  86->  90)
   4   2.766     448.2   0.003850   0.006030   0.025515  -0.117261     0.43 (  87->  90)    0.27 (  86->  89)    0.11 (  88->  91)
   5   2.920     424.6   0.000179   0.000003  -0.026544   0.000016     0.62 (  87->  91)    0.17 (  86->  90)    0.11 (  88->  90)
   6   3.028     409.5   0.788335   0.726355  -1.893186  -1.018614     0.41 (  86->  89)    0.15 (  88->  92)    0.14 (  88->  94)
   7   3.158     392.6   0.159213   0.169958   0.264030  -0.046390     0.47 (  88->  94)    0.21 (  86->  89)    0.17 (  88->  92)
   8   3.276     378.4   0.470873   0.440332   9.232999   7.303074     0.42 (  84->  89)    0.22 (  88->  92)    0.16 (  88->  94)
   9   3.292     376.6   0.068117   0.057139  -7.520216  -6.869867     0.72 (  85->  89)    0.09 (  79->  89)    0.08 (  83->  89)
  10   3.357     369.3   0.607683   0.573330   2.158598   2.006270     0.37 (  84->  89)    0.25 (  88->  92)    0.14 (  88->  94)
  11   3.399     364.7   0.080596   0.075757   0.809647   1.027139     0.71 (  88->  93)    0.14 (  87->  92)    0.04 (  87->  91)
  12   3.573     347.0   0.048240   0.045626  -3.690375  -3.526723     0.32 (  83->  89)    0.21 (  86->  90)    0.08 (  83->  91)
  13   3.692     335.8   0.184660   0.171739   0.639357   0.458381     0.30 (  86->  91)    0.21 (  80->  89)    0.18 (  83->  90)
  14   3.754     330.2   0.013730   0.007914   0.532650   0.387194     0.51 (  77->  89)    0.28 (  88->  96)    0.03 (  88->  97)
  15   3.839     323.0   0.027121   0.022513  -4.333505  -3.825337     0.27 (  86->  90)    0.26 (  83->  89)    0.13 (  79->  89)
  16   3.842     322.7   0.000412   0.000364  -2.837901  -2.634168     0.87 (  75->  89)    0.05 (  75->  91)    0.03 (  75->  94)
  17   3.884     319.2   0.001535   0.001619  45.358790  44.729935     0.25 (  78->  89)    0.18 (  85->  90)    0.12 (  84->  91)
  18   3.890     318.7   0.287534   0.261246  -4.243413  -4.556954     0.51 (  79->  89)    0.10 (  86->  90)    0.07 (  83->  89)
  19   3.968     312.5   0.002335   0.002134  -2.979622  -3.332394     0.81 (  73->  89)    0.11 (  73->  91)    0.05 (  73->  94)
  20   3.969     312.4   0.351952   0.321957   8.101217   7.474453     0.20 (  86->  91)    0.13 (  84->  91)    0.11 (  88->  95)
  21   4.023     308.2   0.607393   0.555238  -34.128164  -32.098674     0.37 (  84->  90)    0.31 (  85->  91)    0.09 (  80->  90)
  22   4.040     306.9   0.000436   0.000754  17.055945  16.445384     0.58 (  82->  89)    0.17 (  81->  90)    0.09 (  82->  91)
  23   4.047     306.3   0.134369   0.127045  -34.230537  -33.780735     0.56 (  81->  89)    0.22 (  82->  90)    0.08 (  81->  91)
  24   4.106     301.9   0.019928   0.017173  35.406399  33.928425     0.30 (  78->  89)    0.19 (  80->  89)    0.11 (  86->  91)
  25   4.149     298.8   0.009802   0.012242   5.173962   4.945019     0.46 (  88->  95)    0.10 (  85->  90)    0.09 (  84->  91)
  26   4.236     292.7   0.010298   0.008207  -4.126189  -3.761942     0.16 (  80->  90)    0.15 (  79->  91)    0.13 (  79->  89)
  27   4.289     289.1   0.248802   0.233924   7.307687   6.406370     0.27 (  80->  89)    0.18 (  79->  90)    0.14 (  80->  91)
  28   4.331     286.3   0.476705   0.433325   0.979625   1.472706     0.42 (  87->  92)    0.17 (  88->  96)    0.14 (  77->  89)
  29   4.365     284.1   0.283163   0.246764  -5.313252  -4.743947     0.29 (  87->  94)    0.24 (  88->  96)    0.18 (  77->  89)
  30   4.427     280.1   0.052900   0.035545   3.536829   0.623640     0.24 (  78->  91)    0.16 (  79->  90)    0.13 (  83->  90)
  31   4.429     280.0   0.006468   0.005013  -2.679104  -0.041801     0.28 (  78->  90)    0.18 (  79->  91)    0.11 (  83->  91)
  32   4.498     275.6   0.300796   0.267266   0.223014   0.091213     0.47 (  87->  93)    0.15 (  86->  92)    0.11 (  88->  92)
  33   4.538     273.2   0.105535   0.098092  -1.742051  -1.165040     0.54 (  87->  94)    0.12 (  87->  92)    0.07 (  88->  96)
  34   4.600     269.5   0.000011   0.000011   0.770686   0.729113     0.87 (  70->  89)    0.04 (  75->  90)    0.02 (  72->  89)
  35   4.612     268.8   0.000077   0.000030   0.207680   0.130355     0.31 (  82->  90)    0.28 (  81->  91)    0.26 (  81->  89)
  36   4.617     268.5   0.000187   0.000102   0.615888   0.644861     0.31 (  82->  91)    0.30 (  82->  89)    0.28 (  81->  90)
  37   4.734     261.9   0.023591   0.018689  -2.649393  -2.488811     0.44 (  76->  89)    0.18 (  85->  91)    0.08 (  74->  90)
  38   4.772     259.8   0.002835   0.003430   0.993273   0.996162     0.32 (  85->  90)    0.25 (  84->  91)    0.16 (  74->  89)
  39   4.799     258.4   0.004112   0.003599  -0.010504   0.053648     0.35 (  84->  90)    0.26 (  85->  91)    0.11 (  83->  91)
  40   4.828     256.8   0.025155   0.023597   3.126416   2.982475     0.35 (  74->  89)    0.19 (  84->  91)    0.09 (  76->  90)
  41   4.914     252.3   0.086770   0.079185   3.197541   2.874079     0.58 (  88->  97)    0.17 (  87->  95)    0.03 (  88-> 101)
  42   4.998     248.0   0.000025   0.000034   0.009235   0.012651     0.93 (  77->  90)    0.02 (  79->  90)    0.01 (  84->  91)

-----------------------------------------------------------------------------
         ABSORPTION SPECTRUM VIA TRANSITION ELECTRIC DIPOLE MOMENTS
-----------------------------------------------------------------------------
State   Energy  Wavelength   fosc         T2         TX        TY        TZ  
        (cm-1)    (nm)                  (au**2)     (au)      (au)      (au) 
-----------------------------------------------------------------------------
   0    9171.3   1090.4   0.798789264  28.67321   0.76845   1.07872  -5.18836
   1   12703.9    787.2   0.003011528   0.07804  -0.25819  -0.08851  -0.05952
   2   13525.1    739.4   0.005877077   0.14305  -0.05372  -0.07984   0.36578
   3   17566.9    569.3   0.001133552   0.02124  -0.13274  -0.05177  -0.03074
   4   22309.0    448.2   0.003849589   0.05681   0.03322   0.04937  -0.23080
   5   23553.5    424.6   0.000178926   0.00250   0.04447   0.02062   0.00990
   6   24421.5    409.5   0.788334553  10.62708   0.46816   0.65585  -3.15876
   7   25470.0    392.6   0.159212869   2.05790   0.20843   0.28446  -1.39052
   8   26425.4    378.4   0.470873414   5.86621   0.36035   0.47351  -2.34780
   9   26551.4    376.6   0.068117363   0.84459   0.85374   0.27284   0.20316
  10   27075.7    369.3   0.607682615   7.38878   0.38825   0.55756  -2.63195
  11   27416.8    364.7   0.080596461   0.96778  -0.91425  -0.29606  -0.21038
  12   28817.9    347.0   0.048240144   0.55109   0.69281   0.22361   0.14525
  13   29778.0    335.8   0.184659923   2.04152  -0.20403  -0.29006   1.38411
  14   30280.8    330.2   0.013730070   0.14927   0.35892   0.12012   0.07761
  15   30962.0    323.0   0.027120608   0.28837   0.50180   0.15853   0.10692
  16   30991.2    322.7   0.000412450   0.00438   0.06399   0.00345  -0.01659
  17   31326.5    319.2   0.001534905   0.01613   0.10230  -0.02918   0.06938
  18   31376.4    318.7   0.287534093   3.01691  -1.61997  -0.52575  -0.34089
  19   32000.9    312.5   0.002335396   0.02403  -0.00486  -0.02767   0.15243
  20   32012.2    312.4   0.351952125   3.61946  -0.25085  -0.40230   1.84247
  21   32451.4    308.2   0.607392603   6.16186   2.31835   0.74259   0.48544
  22   32584.6    306.9   0.000435988   0.00440  -0.02442   0.01583   0.05965
  23   32644.7    306.3   0.134368549   1.35507   1.07921   0.36182   0.24383
  24   33119.4    301.9   0.019927959   0.19809   0.05880   0.13114  -0.42123
  25   33466.0    298.8   0.009801571   0.09642   0.04468   0.04400  -0.30412
  26   34169.0    292.7   0.010297578   0.09922  -0.29321  -0.09917  -0.05840
  27   34592.3    289.1   0.248802209   2.36783   0.22894   0.29966  -1.49185
  28   34928.9    286.3   0.476704635   4.49304   1.97667   0.63560   0.42642
  29   35203.1    284.1   0.283162987   2.64808  -1.51762  -0.48806  -0.32668
  30   35707.1    280.1   0.052900408   0.48773  -0.06378  -0.12347   0.68441
  31   35720.3    280.0   0.006468115   0.05961  -0.15744  -0.07832   0.16938
  32   36280.7    275.6   0.300796046   2.72943   0.22809   0.32884  -1.60290
  33   36600.8    273.2   0.105535017   0.94925  -0.90865  -0.29753  -0.18730
  34   37102.4    269.5   0.000010631   0.00009  -0.00937  -0.00242   0.00081
  35   37196.0    268.8   0.000077033   0.00068   0.02550   0.00561   0.00002
  36   37240.0    268.5   0.000187323   0.00166  -0.00869  -0.00292   0.03965
  37   38183.3    261.9   0.023591053   0.20340  -0.42087  -0.13356  -0.09182
  38   38488.8    259.8   0.002834984   0.02425   0.02054   0.02463  -0.15238
  39   38706.4    258.4   0.004111803   0.03497   0.17339   0.05691   0.04085
  40   38939.1    256.8   0.025155084   0.21267   0.06686   0.08134  -0.44899
  41   39633.3    252.3   0.086770153   0.72075   0.78964   0.26152   0.16977
  42   40314.6    248.0   0.000025130   0.00021  -0.00275   0.00202  -0.01391

-----------------------------------------------------------------------------
         ABSORPTION SPECTRUM VIA TRANSITION VELOCITY DIPOLE MOMENTS
-----------------------------------------------------------------------------
State   Energy  Wavelength   fosc         P2         PX        PY        PZ  
        (cm-1)    (nm)                  (au**2)     (au)      (au)      (au) 
-----------------------------------------------------------------------------
   0    9171.3   1090.4   1.650895548   0.10348   0.04619   0.06472  -0.31170
   1   12703.9    787.2   0.004484435   0.00039  -0.01824  -0.00628  -0.00416
   2   13525.1    739.4   0.018358354   0.00170  -0.00584  -0.00861   0.03986
   3   17566.9    569.3   0.001349974   0.00016  -0.01158  -0.00457  -0.00264
   4   22309.0    448.2   0.006030010   0.00092   0.00418   0.00636  -0.02935
   5   23553.5    424.6   0.000002805   0.00000  -0.00010   0.00065   0.00013
   6   24421.5    409.5   0.726355061   0.12124   0.05008   0.07009  -0.33736
   7   25470.0    392.6   0.169957975   0.02959   0.02499   0.03424  -0.16670
   8   26425.4    378.4   0.440331909   0.07953   0.04180   0.05513  -0.27338
   9   26551.4    376.6   0.057138555   0.01037   0.09461   0.03021   0.02250
  10   27075.7    369.3   0.573330432   0.10609   0.04651   0.06680  -0.31539
  11   27416.8    364.7   0.075756926   0.01420  -0.11075  -0.03578  -0.02549
  12   28817.9    347.0   0.045625650   0.00899   0.08847   0.02854   0.01857
  13   29778.0    335.8   0.171739438   0.03495  -0.02667  -0.03796   0.18111
  14   30280.8    330.2   0.007914204   0.00164   0.03754   0.01269   0.00821
  15   30962.0    323.0   0.022512681   0.00476   0.06454   0.02026   0.01372
  16   30991.2    322.7   0.000363907   0.00008   0.00824   0.00109  -0.00284
  17   31326.5    319.2   0.001619498   0.00035   0.01363  -0.00451   0.01186
  18   31376.4    318.7   0.261245712   0.05602  -0.22077  -0.07166  -0.04636
  19   32000.9    312.5   0.002134159   0.00047  -0.00040  -0.00382   0.02126
  20   32012.2    312.4   0.321957004   0.07044  -0.03495  -0.05624   0.25701
  21   32451.4    308.2   0.555238451   0.12315   0.32774   0.10495   0.06868
  22   32584.6    306.9   0.000753565   0.00017  -0.00399   0.00161   0.01222
  23   32644.7    306.3   0.127045452   0.02835   0.15608   0.05241   0.03519
  24   33119.4    301.9   0.017173433   0.00389   0.00824   0.01858  -0.05894
  25   33466.0    298.8   0.012242075   0.00280   0.00766   0.00791  -0.05176
  26   34169.0    292.7   0.008206997   0.00192  -0.04073  -0.01386  -0.00809
  27   34592.3    289.1   0.233924464   0.05530   0.03494   0.04587  -0.22799
  28   34928.9    286.3   0.433324768   0.10344   0.29995   0.09636   0.06472
  29   35203.1    284.1   0.246764413   0.05937  -0.22726  -0.07302  -0.04891
  30   35707.1    280.1   0.035544616   0.00867  -0.00737  -0.01605   0.09145
  31   35720.3    280.0   0.005013111   0.00122  -0.02473  -0.01167   0.02183
  32   36280.7    275.6   0.267266357   0.06627   0.03550   0.05119  -0.24978
  33   36600.8    273.2   0.098091513   0.02454  -0.14607  -0.04781  -0.03028
  34   37102.4    269.5   0.000010764   0.00000  -0.00155  -0.00045   0.00037
  35   37196.0    268.8   0.000030491   0.00001   0.00274   0.00045  -0.00018
  36   37240.0    268.5   0.000101557   0.00003  -0.00128  -0.00015   0.00492
  37   38183.3    261.9   0.018688897   0.00488  -0.06517  -0.02072  -0.01414
  38   38488.8    259.8   0.003430350   0.00090   0.00405   0.00491  -0.02936
  39   38706.4    258.4   0.003598653   0.00095   0.02860   0.00935   0.00683
  40   38939.1    256.8   0.023597349   0.00628   0.01149   0.01400  -0.07715
  41   39633.3    252.3   0.079184593   0.02145   0.13624   0.04511   0.02920
  42   40314.6    248.0   0.000034405   0.00001  -0.00031   0.00044  -0.00303

-------------------------------------------------------------------
                             CD SPECTRUM
-------------------------------------------------------------------
State   Energy Wavelength       R         MX        MY        MZ   
        (cm-1)   (nm)       (1e40*cgs)   (au)      (au)      (au)  
-------------------------------------------------------------------
   0    9171.3   1090.4     -3.10672  -5.17382   1.23374  -0.51232
   1   12703.9    787.2      1.42607   0.03713  -0.20752   0.24920
   2   13525.1    739.4     -0.47824   0.98782  -1.04699  -0.07791
   3   17566.9    569.3      0.06275   0.02021  -0.13618   0.15075
   4   22309.0    448.2      0.02551  -0.61184   0.44529   0.00765
   5   23553.5    424.6     -0.02654   0.00146  -0.00126   0.00746
   6   24421.5    409.5     -1.89319  -5.99598   2.46656  -0.37908
   7   25470.0    392.6      0.26403  -2.97847   1.28292  -0.18320
   8   26425.4    378.4      9.23300  -5.37226   3.53334  -0.09526
   9   26551.4    376.6     -7.52022  -0.01661   1.10262  -1.25398
  10   27075.7    369.3      2.15860  -5.17263   1.05611  -0.53582
  11   27416.8    364.7      0.80965   0.08639  -1.30155   1.47253
  12   28817.9    347.0     -3.69038  -0.07294   1.05666  -1.17102
  13   29778.0    335.8      0.63936   3.27060  -1.45059   0.17618
  14   30280.8    330.2      0.53265  -0.04627   0.44432  -0.50279
  15   30962.0    323.0     -4.33350  -0.03880   0.80565  -0.84045
  16   30991.2    322.7     -2.83790   0.12214  -0.30529  -0.31822
  17   31326.5    319.2     45.35879  -1.03752   3.75815   0.33720
  18   31376.4    318.7     -4.24341   0.15359  -2.42846   2.96265
  19   32000.9    312.5     -2.97962   1.02717   0.27112   0.16487
  20   32012.2    312.4      8.10122   3.91817  -0.05836   0.50206
  21   32451.4    308.2    -34.12816  -0.25850   3.85627  -4.36622
  22   32584.6    306.9     17.05594   0.94815  -2.14658  -0.25536
  23   32644.7    306.3    -34.23054  -0.05984   1.95403  -2.03919
  24   33119.4    301.9     35.40640   0.13760  -3.08369  -0.58423
  25   33466.0    298.8      5.17396  -1.27165   1.43973   0.09364
  26   34169.0    292.7     -4.12619   0.00506  -0.49952   0.52306
  27   34592.3    289.1      7.30769  -4.57739   3.20509  -0.03789
  28   34928.9    286.3      0.97963  -0.27842   3.54577  -4.00425
  29   35203.1    284.1     -5.31325   0.19573  -2.68565   3.03408
  30   35707.1    280.1      3.53683   1.60981  -0.64015   0.01262
  31   35720.3    280.0     -2.67910   0.48364  -0.45279   0.30726
  32   36280.7    275.6      0.22301  -4.37532   1.68446  -0.27644
  33   36600.8    273.2     -1.74205   0.15835  -1.73600   1.94999
  34   37102.4    269.5      0.77069   0.33348   0.09026   0.09094
  35   37196.0    268.8      0.20768  -0.04376   0.04204  -0.04032
  36   37240.0    268.5      0.61589   0.23294  -0.44653  -0.04772
  37   38183.3    261.9     -2.64939   0.03090  -0.77612   0.86490
  38   38488.8    259.8      0.99327  -0.72814   0.82636   0.06308
  39   38706.4    258.4     -0.01050  -0.01656   0.32554  -0.38215
  40   38939.1    256.8      3.12642  -1.66714   1.45736   0.04530
  41   39633.3    252.3      3.19754  -0.16121   1.61272  -1.81435
  42   40314.6    248.0      0.00924  -0.00544  -0.11049  -0.01219

sTD-DFT done

Total run time:        2.801 sec

           *** ORCA-CIS/TD-DFT FINISHED WITHOUT ERROR ***

-------------------------   --------------------
FINAL SINGLE POINT ENERGY     -5112.111804775407
-------------------------   --------------------


                            ***************************************
                            *     ORCA property calculations      *
                            ***************************************

                                    ---------------------
                                    Active property flags
                                    ---------------------
   (+) Dipole Moment


------------------------------------------------------------------------------
                       ORCA ELECTRIC PROPERTIES CALCULATION
------------------------------------------------------------------------------

Dipole Moment Calculation                       ... on
Quadrupole Moment Calculation                   ... off
Polarizability Calculation                      ... off
GBWName                                         ... xtbopt.gbw
Electron density file                           ... xtbopt.scfp
The origin for moment calculation is the CENTER OF MASS  = (-2.558018, -14.156175 -12.378483)

-------------
DIPOLE MOMENT
-------------
                                X             Y             Z
Electronic contribution:     39.18189      13.33296       8.57099
Nuclear contribution   :    -38.48547     -13.18643      -8.43043
                        -----------------------------------------
Total Dipole Moment    :      0.69643       0.14653       0.14056
                        -----------------------------------------
Magnitude (a.u.)       :      0.72542
Magnitude (Debye)      :      1.84388



--------------------
Rotational spectrum 
--------------------
 
Rotational constants in cm-1:     0.002592     0.000242     0.000221 
Rotational constants in MHz :    77.700522     7.254720     6.636598 

 Dipole components along the rotational axes: 
x,y,z [a.u.] :     0.006918     0.721139    -0.078417 
x,y,z [Debye]:     0.017585     1.832989    -0.199321 

 

Timings for individual modules:

Sum of individual times         ...      465.439 sec (=   7.757 min)
GTO integral calculation        ...        2.652 sec (=   0.044 min)   0.6 %
SCF iterations                  ...      459.201 sec (=   7.653 min)  98.7 %
CIS module                      ...        3.586 sec (=   0.060 min)   0.8 %
                             ****ORCA TERMINATED NORMALLY****
TOTAL RUN TIME: 0 days 0 hours 7 minutes 46 seconds 478 msec
