
                                 *****************
                                 * O   R   C   A *
                                 *****************

           --- An Ab Initio, DFT and Semiempirical electronic structure package ---

                  #######################################################
                  #                        -***-                        #
                  #          Department of theory and spectroscopy      #
                  #               Directorship: Frank Neese             #
                  #        Max Planck Institute fuer Kohlenforschung    #
                  #                Kaiser Wilhelm Platz 1               #
                  #                 D-45470 Muelheim/Ruhr               #
                  #                      Germany                        #
                  #                                                     #
                  #                  All rights reserved                #
                  #                        -***-                        #
                  #######################################################


                         Program Version 4.2.0 -  RELEASE  -


 With contributions from (in alphabetic order):
   Daniel Aravena         : Magnetic Suceptibility
   Michael Atanasov       : Ab Initio Ligand Field Theory (pilot matlab implementation)
   Alexander A. Auer      : GIAO ZORA, VPT2
   Ute Becker             : Parallelization
   Giovanni Bistoni       : ED, misc. LED, open-shell LED, HFLED
   Martin Brehm           : Molecular dynamics
   Dmytro Bykov           : SCF Hessian
   Vijay G. Chilkuri      : MRCI spin determinant printing, contributions to CSF-ICE
   Dipayan Datta          : RHF DLPNO-CCSD density
   Achintya Kumar Dutta   : EOM-CC, STEOM-CC
   Dmitry Ganyushin       : Spin-Orbit,Spin-Spin,Magnetic field MRCI
   Miquel Garcia          : C-PCM Hessian, Gaussian charge scheme
   Yang Guo               : DLPNO-NEVPT2, CIM, IAO-localization
   Andreas Hansen         : Spin unrestricted coupled pair/coupled cluster methods
   Benjamin Helmich-Paris : CASSCF linear response (MC-RPA)
   Lee Huntington         : MR-EOM, pCC
   Robert Izsak           : Overlap fitted RIJCOSX, COSX-SCS-MP3, EOM
   Christian Kollmar      : KDIIS, OOCD, Brueckner-CCSD(T), CCSD density
   Simone Kossmann        : Meta GGA functionals, TD-DFT gradient, OOMP2, MP2 Hessian
   Martin Krupicka        : AUTO-CI
   Lucas Lang             : DCDCAS
   Dagmar Lenk            : GEPOL surface, SMD
   Dimitrios Liakos       : Extrapolation schemes; Compound Job, initial MDCI parallelization
   Dimitrios Manganas     : Further ROCIS development; embedding schemes
   Dimitrios Pantazis     : SARC Basis sets
   Taras Petrenko         : DFT Hessian,TD-DFT gradient, ASA, ECA, R-Raman, ABS, FL, XAS/XES, NRVS
   Peter Pinski           : DLPNO-MP2, DLPNO-MP2 Gradient
   Christoph Reimann      : Effective Core Potentials
   Marius Retegan         : Local ZFS, SOC
   Christoph Riplinger    : Optimizer, TS searches, QM/MM, DLPNO-CCSD(T), (RO)-DLPNO pert. Triples
   Tobias Risthaus        : Range-separated hybrids, TD-DFT gradient, RPA, STAB
   Michael Roemelt        : Original ROCIS implementation
   Masaaki Saitow         : Open-shell DLPNO-CCSD energy and density
   Barbara Sandhoefer     : DKH picture change effects
   Avijit Sen             : IP-ROCIS
   Kantharuban Sivalingam : CASSCF convergence, NEVPT2, FIC-MRCI
   Bernardo de Souza      : ESD, SOC TD-DFT
   Georgi Stoychev        : AutoAux, RI-MP2 NMR
   Willem Van den Heuvel  : Paramagnetic NMR
   Boris Wezisla          : Elementary symmetry handling
   Frank Wennmohs         : Technical directorship


 We gratefully acknowledge several colleagues who have allowed us to
 interface, adapt or use parts of their codes:
   Stefan Grimme, W. Hujo, H. Kruse,             : VdW corrections, initial TS optimization,
                  C. Bannwarth                     DFT functionals, gCP, sTDA/sTD-DF
   Ed Valeev, F. Pavosevic, A. Kumar             : LibInt (2-el integral package), F12 methods
   Garnet Chan, S. Sharma, J. Yang, R. Olivares  : DMRG
   Ulf Ekstrom                                   : XCFun DFT Library
   Mihaly Kallay                                 : mrcc  (arbitrary order and MRCC methods)
   Andreas Klamt, Michael Diedenhofen            : otool_cosmo (COSMO solvation model)
   Jiri Pittner, Ondrej Demel                    : Mk-CCSD
   Frank Weinhold                                : gennbo (NPA and NBO analysis)
   Christopher J. Cramer and Donald G. Truhlar   : smd solvation model
   Lars Goerigk                                  : TD-DFT with DH, B97 family of functionals
   V. Asgeirsson, H. Jonsson                     : NEB implementation
   FAccTs GmbH                                   : IRC, NEB, NEB-TS, Multilevel, MM, QM/MM, CI optimization
   S Lehtola, MJT Oliveira, MAL Marques          : LibXC Library


 Your calculation uses the libint2 library for the computation of 2-el integrals
 For citations please refer to: http://libint.valeyev.net

 Your ORCA version has been built with support for libXC version: 4.2.3
 For citations please refer to: https://tddft.org/programs/libxc/

 This ORCA versions uses:
   CBLAS   interface :  Fast vector & matrix operations
   LAPACKE interface :  Fast linear algebra routines
   SCALAPACK package :  Parallel linear algebra routines


XCFun DFT library Copyright 2009-2010 Ulf Ekstrom and contributors.
See http://admol.org/xcfun for more information. This is free soft-
ware; see the source code for copying conditions. There is ABSOLUTELY
NO WARRANTY; not even for MERCHANTABILITY or FITNESS FOR A PARTICULAR
PURPOSE. For details see the documentation. Scientific users of this 
library should cite U. Ekstrom, L. Visscher, R. Bast, A. J. Thorvald-
sen and K. Ruud; J.Chem.Theor.Comp. 2010, DOI: 10.1021/ct100117s
XCFun Version 0.99 
----- Orbital basis set information -----
Your calculation utilizes the basis: def2-SVP
   F. Weigend and R. Ahlrichs, Phys. Chem. Chem. Phys. 7, 3297 (2005).

----- AuxJ basis set information -----
Your calculation utilizes the auxiliary basis: def2/J
   F. Weigend, Phys. Chem. Chem. Phys. 8, 1057 (2006).

================================================================================
                                        WARNINGS
                       Please study these warnings very carefully!
================================================================================

INFO   : Checking CIS options ...

WARNING: CIS/ROCIS methods need fully converged wavefunctions
  ===> : Setting SCFConvForced true
         You can overwrite this default with %scf ConvForced false 


INFO   : the flag for use of LIBINT has been found!

================================================================================
                                       INPUT FILE
================================================================================
NAME = xtbopt.inp
|  1> # ORCA input file
|  2> # SCF done       -204.502089194019          0.000644700930
|  3> ! CAM-B3LYP def2-SVP def2/J RIJCOSX Grid4 TightSCF
|  4> %maxcore 5000
|  5> %tddft
|  6>     Mode sTDDFT
|  7>     Ethresh 5.0
|  8>     maxcore 5000
|  9> end
| 10> 
| 11> %pal
| 12>   nprocs 6
| 13>   end
| 14> * xyz 0 1
| 15>    C       -7.56432        -5.97665         4.22426
| 16>    C       -6.68804        -7.00107         4.55134
| 17>    C       -6.92591        -8.30590         4.14399
| 18>    C       -8.05399        -8.62651         3.40364
| 19>    C       -8.93478        -7.61162         3.07101
| 20>    C       -8.69052        -6.27976         3.47565
| 21>    C       -9.76200        -5.42829         2.97103
| 22>    C       -9.93398        -4.09965         3.25835
| 23>    C       -9.08126        -3.35532         4.10025
| 24>    N       -8.42877        -2.69013         4.77083
| 25>    C      -10.99844        -3.29725         2.79803
| 26>    N      -11.83373        -2.58467         2.46047
| 27>    C      -10.58636        -6.26237         2.10737
| 28>    C      -10.19977        -7.64439         2.35458
| 29>    C      -11.01193        -8.73994         2.22382
| 30>    C      -12.36936        -8.65697         1.84800
| 31>    N      -13.49053        -8.61797         1.60514
| 32>    C      -10.61811       -10.05370         2.54518
| 33>    N      -10.34162       -11.14471         2.77152
| 34>    C      -11.45911        -5.78425         1.16567
| 35>    C      -11.95042        -6.42854         0.01340
| 36>    S      -11.20708        -7.82283        -0.73442
| 37>    C      -12.36424        -7.81395        -2.02497
| 38>    C      -13.26201        -6.76647        -1.87869
| 39>    C      -13.01623        -5.98692        -0.76032
| 40>    C      -12.33049        -8.80349        -3.03631
| 41>    C      -13.20764        -8.98023        -4.09178
| 42>    C      -12.90903       -10.08583        -4.88045
| 43>    C      -11.79126       -10.78119        -4.45422
| 44>    S      -11.10397       -10.03924        -3.04312
| 45>    C      -11.22362       -11.95621        -5.01369
| 46>    S       -9.71544       -12.58940        -4.42092
| 47>    C       -9.78161       -13.92677        -5.53225
| 48>    C      -10.92269       -13.85628        -6.30586
| 49>    C      -11.72646       -12.75327        -6.02294
| 50>    C       -8.76348       -14.92091        -5.57560
| 51>    C       -7.62338       -14.86667        -4.85656
| 52>    C       -6.60862       -15.87438        -4.89573
| 53>    C       -5.42688       -15.79247        -4.26410
| 54>    C       -5.00927       -14.60911        -3.44307
| 55>    C       -4.39408       -16.89520        -4.33067
| 56>    N       -4.75374       -18.05357        -5.09857
| 57>    C       -5.48957       -19.07076        -4.58807
| 58>    C       -5.99823       -20.08973        -5.31454
| 59>    C       -6.69240       -21.20049        -4.75768
| 60>    S       -7.12878       -22.53860        -5.77909
| 61>    C       -7.83499       -23.40528        -4.44021
| 62>    C       -7.73243       -22.66074        -3.28061
| 63>    C       -7.09659       -21.43526        -3.45680
| 64>    C       -8.38864       -24.69917        -4.59801
| 65>    C       -8.97809       -25.48976        -3.62437
| 66>    C       -9.39459       -26.72851        -4.09273
| 67>    C       -9.13797       -26.92749        -5.43914
| 68>    S       -8.36545       -25.52349        -6.12716
| 69>    C       -9.41013       -28.07959        -6.21170
| 70>    S       -9.01746       -28.17066        -7.89668
| 71>    C       -9.61769       -29.80899        -8.00591
| 72>    C      -10.09558       -30.22645        -6.76719
| 73>    C       -9.98314       -29.27076        -5.77522
| 74>    C       -9.54366       -30.50460        -9.22253
| 75>    C       -9.95541       -31.79683        -9.41474
| 76>    C       -9.83642       -32.43338       -10.65557
| 77>    C      -10.11314       -33.75527       -10.93136
| 78>    C      -10.39004       -34.28054       -12.25656
| 79>    C      -10.12367       -33.68539       -13.46416
| 80>    C       -9.48006       -32.44437       -13.64440
| 81>    N       -8.95846       -31.44726       -13.87696
| 82>    C      -10.42844       -34.26026       -14.71481
| 83>    N      -10.64735       -34.66443       -15.76739
| 84>    C      -11.02462       -35.58107       -12.07279
| 85>    C      -11.02371       -35.89672       -10.69575
| 86>    C      -11.59150       -37.07505       -10.24221
| 87>    C      -12.15994       -37.93718       -11.16863
| 88>    C      -12.15397       -37.63335       -12.52155
| 89>    C      -11.58699       -36.45602       -12.98779
| 90>    C      -10.33382       -34.82984        -9.98243
| 91>    C       -9.79735       -34.94108        -8.72315
| 92>    C      -10.04127       -36.02549        -7.85680
| 93>    N      -10.22108       -36.86153        -7.09001
| 94>    C       -8.84375       -34.05987        -8.17243
| 95>    N       -8.02497       -33.41986        -7.68359
| 96>    H       -7.36034        -4.96928         4.54763
| 97>    H       -5.80572        -6.77499         5.13046
| 98>    H       -6.22497        -9.08387         4.40566
| 99>    H       -8.22897        -9.64193         3.08650
|100>    H      -11.76724        -4.74984         1.25058
|101>    H      -14.06294        -6.58491        -2.57116
|102>    H      -13.60676        -5.13280        -0.48013
|103>    H      -14.04204        -8.32790        -4.27349
|104>    H      -13.48385       -10.37578        -5.74076
|105>    H      -11.15905       -14.58934        -7.05659
|106>    H      -12.65316       -12.54541        -6.52614
|107>    H       -8.94648       -15.75177        -6.24501
|108>    H       -7.46086       -14.01240        -4.21393
|109>    H       -6.84136       -16.75518        -5.48020
|110>    H       -5.72816       -14.41584        -2.64843
|111>    H       -4.94950       -13.71473        -4.06221
|112>    H       -4.03502       -14.77809        -2.99109
|113>    H       -4.17370       -17.22067        -3.30681
|114>    H       -3.46735       -16.47922        -4.74491
|115>    H       -4.72274       -17.96591        -6.10304
|116>    H       -5.60480       -19.04708        -3.51426
|117>    H       -5.85311       -20.10185        -6.38611
|118>    H       -8.10590       -23.00407        -2.33280
|119>    H       -6.93870       -20.73525        -2.65672
|120>    H       -9.09543       -25.16919        -2.60555
|121>    H       -9.86807       -27.46819        -3.47326
|122>    H      -10.49945       -31.20807        -6.59965
|123>    H      -10.29633       -29.42522        -4.75894
|124>    H       -9.09147       -29.98059       -10.05506
|125>    H      -10.40943       -32.32786        -8.59206
|126>    H       -9.57283       -31.79659       -11.48890
|127>    H      -11.60702       -37.32120        -9.19293
|128>    H      -12.61257       -38.85602       -10.82806
|129>    H      -12.59913       -38.31969       -13.22575
|130>    H      -11.59430       -36.23598       -14.04250
|131> *
|132> 
|133>                          ****END OF INPUT****
================================================================================

                       ****************************
                       * Single Point Calculation *
                       ****************************

---------------------------------
CARTESIAN COORDINATES (ANGSTROEM)
---------------------------------
  C     -7.564320   -5.976650    4.224260
  C     -6.688040   -7.001070    4.551340
  C     -6.925910   -8.305900    4.143990
  C     -8.053990   -8.626510    3.403640
  C     -8.934780   -7.611620    3.071010
  C     -8.690520   -6.279760    3.475650
  C     -9.762000   -5.428290    2.971030
  C     -9.933980   -4.099650    3.258350
  C     -9.081260   -3.355320    4.100250
  N     -8.428770   -2.690130    4.770830
  C    -10.998440   -3.297250    2.798030
  N    -11.833730   -2.584670    2.460470
  C    -10.586360   -6.262370    2.107370
  C    -10.199770   -7.644390    2.354580
  C    -11.011930   -8.739940    2.223820
  C    -12.369360   -8.656970    1.848000
  N    -13.490530   -8.617970    1.605140
  C    -10.618110  -10.053700    2.545180
  N    -10.341620  -11.144710    2.771520
  C    -11.459110   -5.784250    1.165670
  C    -11.950420   -6.428540    0.013400
  S    -11.207080   -7.822830   -0.734420
  C    -12.364240   -7.813950   -2.024970
  C    -13.262010   -6.766470   -1.878690
  C    -13.016230   -5.986920   -0.760320
  C    -12.330490   -8.803490   -3.036310
  C    -13.207640   -8.980230   -4.091780
  C    -12.909030  -10.085830   -4.880450
  C    -11.791260  -10.781190   -4.454220
  S    -11.103970  -10.039240   -3.043120
  C    -11.223620  -11.956210   -5.013690
  S     -9.715440  -12.589400   -4.420920
  C     -9.781610  -13.926770   -5.532250
  C    -10.922690  -13.856280   -6.305860
  C    -11.726460  -12.753270   -6.022940
  C     -8.763480  -14.920910   -5.575600
  C     -7.623380  -14.866670   -4.856560
  C     -6.608620  -15.874380   -4.895730
  C     -5.426880  -15.792470   -4.264100
  C     -5.009270  -14.609110   -3.443070
  C     -4.394080  -16.895200   -4.330670
  N     -4.753740  -18.053570   -5.098570
  C     -5.489570  -19.070760   -4.588070
  C     -5.998230  -20.089730   -5.314540
  C     -6.692400  -21.200490   -4.757680
  S     -7.128780  -22.538600   -5.779090
  C     -7.834990  -23.405280   -4.440210
  C     -7.732430  -22.660740   -3.280610
  C     -7.096590  -21.435260   -3.456800
  C     -8.388640  -24.699170   -4.598010
  C     -8.978090  -25.489760   -3.624370
  C     -9.394590  -26.728510   -4.092730
  C     -9.137970  -26.927490   -5.439140
  S     -8.365450  -25.523490   -6.127160
  C     -9.410130  -28.079590   -6.211700
  S     -9.017460  -28.170660   -7.896680
  C     -9.617690  -29.808990   -8.005910
  C    -10.095580  -30.226450   -6.767190
  C     -9.983140  -29.270760   -5.775220
  C     -9.543660  -30.504600   -9.222530
  C     -9.955410  -31.796830   -9.414740
  C     -9.836420  -32.433380  -10.655570
  C    -10.113140  -33.755270  -10.931360
  C    -10.390040  -34.280540  -12.256560
  C    -10.123670  -33.685390  -13.464160
  C     -9.480060  -32.444370  -13.644400
  N     -8.958460  -31.447260  -13.876960
  C    -10.428440  -34.260260  -14.714810
  N    -10.647350  -34.664430  -15.767390
  C    -11.024620  -35.581070  -12.072790
  C    -11.023710  -35.896720  -10.695750
  C    -11.591500  -37.075050  -10.242210
  C    -12.159940  -37.937180  -11.168630
  C    -12.153970  -37.633350  -12.521550
  C    -11.586990  -36.456020  -12.987790
  C    -10.333820  -34.829840   -9.982430
  C     -9.797350  -34.941080   -8.723150
  C    -10.041270  -36.025490   -7.856800
  N    -10.221080  -36.861530   -7.090010
  C     -8.843750  -34.059870   -8.172430
  N     -8.024970  -33.419860   -7.683590
  H     -7.360340   -4.969280    4.547630
  H     -5.805720   -6.774990    5.130460
  H     -6.224970   -9.083870    4.405660
  H     -8.228970   -9.641930    3.086500
  H    -11.767240   -4.749840    1.250580
  H    -14.062940   -6.584910   -2.571160
  H    -13.606760   -5.132800   -0.480130
  H    -14.042040   -8.327900   -4.273490
  H    -13.483850  -10.375780   -5.740760
  H    -11.159050  -14.589340   -7.056590
  H    -12.653160  -12.545410   -6.526140
  H     -8.946480  -15.751770   -6.245010
  H     -7.460860  -14.012400   -4.213930
  H     -6.841360  -16.755180   -5.480200
  H     -5.728160  -14.415840   -2.648430
  H     -4.949500  -13.714730   -4.062210
  H     -4.035020  -14.778090   -2.991090
  H     -4.173700  -17.220670   -3.306810
  H     -3.467350  -16.479220   -4.744910
  H     -4.722740  -17.965910   -6.103040
  H     -5.604800  -19.047080   -3.514260
  H     -5.853110  -20.101850   -6.386110
  H     -8.105900  -23.004070   -2.332800
  H     -6.938700  -20.735250   -2.656720
  H     -9.095430  -25.169190   -2.605550
  H     -9.868070  -27.468190   -3.473260
  H    -10.499450  -31.208070   -6.599650
  H    -10.296330  -29.425220   -4.758940
  H     -9.091470  -29.980590  -10.055060
  H    -10.409430  -32.327860   -8.592060
  H     -9.572830  -31.796590  -11.488900
  H    -11.607020  -37.321200   -9.192930
  H    -12.612570  -38.856020  -10.828060
  H    -12.599130  -38.319690  -13.225750
  H    -11.594300  -36.235980  -14.042500

----------------------------
CARTESIAN COORDINATES (A.U.)
----------------------------
  NO LB      ZA    FRAG     MASS         X           Y           Z
   0 C     6.0000    0    12.011  -14.294493  -11.294232    7.982695
   1 C     6.0000    0    12.011  -12.638564  -13.230105    8.600786
   2 C     6.0000    0    12.011  -13.088073  -15.695876    7.831006
   3 C     6.0000    0    12.011  -15.219835  -16.301741    6.431947
   4 C     6.0000    0    12.011  -16.884287  -14.383877    5.803368
   5 C     6.0000    0    12.011  -16.422703  -11.867027    6.568027
   6 C     6.0000    0    12.011  -18.447507  -10.257981    5.614433
   7 C     6.0000    0    12.011  -18.772502   -7.747216    6.157389
   8 C     6.0000    0    12.011  -17.161094   -6.340636    7.748350
   9 N     7.0000    0    14.007  -15.928067   -5.083609    9.015562
  10 C     6.0000    0    12.011  -20.784040   -6.230899    5.287510
  11 N     7.0000    0    14.007  -22.362509   -4.884318    4.649614
  12 C     6.0000    0    12.011  -20.005321  -11.834164    3.982352
  13 C     6.0000    0    12.011  -19.274772  -14.445804    4.449511
  14 C     6.0000    0    12.011  -20.809532  -16.516093    4.202411
  15 C     6.0000    0    12.011  -23.374703  -16.359302    3.492214
  16 N     7.0000    0    14.007  -25.493407  -16.285603    3.033275
  17 C     6.0000    0    12.011  -20.065320  -18.998740    4.809693
  18 N     7.0000    0    14.007  -19.542830  -21.060450    5.237414
  19 C     6.0000    0    12.011  -21.654580  -10.930648    2.202797
  20 C     6.0000    0    12.011  -22.583021  -12.148180    0.025322
  21 S    16.0000    0    32.060  -21.178312  -14.783006   -1.387853
  22 C     6.0000    0    12.011  -23.365027  -14.766226   -3.826639
  23 C     6.0000    0    12.011  -25.061567  -12.786775   -3.550210
  24 C     6.0000    0    12.011  -24.597110  -11.313639   -1.436797
  25 C     6.0000    0    12.011  -23.301249  -16.636185   -5.737794
  26 C     6.0000    0    12.011  -24.958822  -16.970175   -7.732344
  27 C     6.0000    0    12.011  -24.394531  -19.059457   -9.222714
  28 C     6.0000    0    12.011  -22.282252  -20.373496   -8.417256
  29 S    16.0000    0    32.060  -20.983462  -18.971414   -5.750663
  30 C     6.0000    0    12.011  -21.209568  -22.593962   -9.474501
  31 S    16.0000    0    32.060  -18.359521  -23.790518   -8.354328
  32 C     6.0000    0    12.011  -18.484564  -26.317781  -10.454437
  33 C     6.0000    0    12.011  -20.640893  -26.184574  -11.916348
  34 C     6.0000    0    12.011  -22.159798  -24.100188  -11.381707
  35 C     6.0000    0    12.011  -16.560577  -28.196434  -10.536357
  36 C     6.0000    0    12.011  -14.406100  -28.093935   -9.177568
  37 C     6.0000    0    12.011  -12.488482  -29.998231   -9.251589
  38 C     6.0000    0    12.011  -10.255317  -29.843443   -8.057981
  39 C     6.0000    0    12.011   -9.466148  -27.607217   -6.506459
  40 C     6.0000    0    12.011   -8.303608  -31.927301   -8.183780
  41 N     7.0000    0    14.007   -8.983267  -34.116303   -9.634901
  42 C     6.0000    0    12.011  -10.373784  -36.038514   -8.670196
  43 C     6.0000    0    12.011  -11.335012  -37.964088  -10.043025
  44 C     6.0000    0    12.011  -12.646803  -40.063120   -8.990712
  45 S    16.0000    0    32.060  -13.471442  -42.591781  -10.920897
  46 C     6.0000    0    12.011  -14.805985  -44.229569   -8.390781
  47 C     6.0000    0    12.011  -14.612175  -42.822593   -6.199454
  48 C     6.0000    0    12.011  -13.410612  -40.506771   -6.532405
  49 C     6.0000    0    12.011  -15.852232  -46.674667   -8.688980
  50 C     6.0000    0    12.011  -16.966131  -48.168666   -6.849067
  51 C     6.0000    0    12.011  -17.753202  -50.509564   -7.734139
  52 C     6.0000    0    12.011  -17.268261  -50.885582  -10.278485
  53 S    16.0000    0    32.060  -15.808409  -48.232406  -11.578654
  54 C     6.0000    0    12.011  -17.782569  -53.062735  -11.738412
  55 S    16.0000    0    32.060  -17.040530  -53.234832  -14.922563
  56 C     6.0000    0    12.011  -18.174800  -56.330827  -15.128977
  57 C     6.0000    0    12.011  -19.077881  -57.119713  -12.788136
  58 C     6.0000    0    12.011  -18.865401  -55.313720  -10.913584
  59 C     6.0000    0    12.011  -18.034904  -57.645340  -17.428056
  60 C     6.0000    0    12.011  -18.812998  -60.087301  -17.791280
  61 C     6.0000    0    12.011  -18.588140  -61.290206  -20.136109
  62 C     6.0000    0    12.011  -19.111065  -63.788216  -20.657277
  63 C     6.0000    0    12.011  -19.634330  -64.780832  -23.161542
  64 C     6.0000    0    12.011  -19.130964  -63.656162  -25.443575
  65 C     6.0000    0    12.011  -17.914717  -61.310974  -25.784179
  66 N     7.0000    0    14.007  -16.929036  -59.426709  -26.223654
  67 C     6.0000    0    12.011  -19.706896  -64.742509  -27.806961
  68 N     7.0000    0    14.007  -20.120576  -65.506279  -29.796049
  69 C     6.0000    0    12.011  -20.833513  -67.238478  -22.814267
  70 C     6.0000    0    12.011  -20.831793  -67.834970  -20.212038
  71 C     6.0000    0    12.011  -21.904760  -70.061691  -19.354972
  72 C     6.0000    0    12.011  -22.978956  -71.690880  -21.105652
  73 C     6.0000    0    12.011  -22.967675  -71.116725  -23.662300
  74 C     6.0000    0    12.011  -21.896238  -68.891894  -24.543366
  75 C     6.0000    0    12.011  -19.528090  -65.818859  -18.864059
  76 C     6.0000    0    12.011  -18.514308  -66.029072  -16.484365
  77 C     6.0000    0    12.011  -18.975250  -68.078310  -14.847200
  78 N     7.0000    0    14.007  -19.315042  -69.658197  -13.398177
  79 C     6.0000    0    12.011  -16.712265  -64.363826  -15.443655
  80 N     7.0000    0    14.007  -15.164996  -63.154383  -14.519881
  81 H     1.0000    0     1.008  -13.909027   -9.390578    8.593775
  82 H     1.0000    0     1.008  -10.971221  -12.802876    9.695164
  83 H     1.0000    0     1.008  -11.763488  -17.166027    8.325491
  84 H     1.0000    0     1.008  -15.550500  -18.220607    5.832640
  85 H     1.0000    0     1.008  -22.236861   -8.975897    2.363254
  86 H     1.0000    0     1.008  -26.575105  -12.443677   -4.858788
  87 H     1.0000    0     1.008  -25.713050   -9.699586   -0.907314
  88 H     1.0000    0     1.008  -26.535610  -15.737450   -8.075726
  89 H     1.0000    0     1.008  -25.480784  -19.607383  -10.848464
  90 H     1.0000    0     1.008  -21.087548  -27.569857  -13.335023
  91 H     1.0000    0     1.008  -23.911007  -23.707389  -12.332617
  92 H     1.0000    0     1.008  -16.906397  -29.766531  -11.801359
  93 H     1.0000    0     1.008  -14.098982  -26.479598   -7.963174
  94 H     1.0000    0     1.008  -12.928297  -31.662702  -10.356077
  95 H     1.0000    0     1.008  -10.824654  -27.241990   -5.004807
  96 H     1.0000    0     1.008   -9.353199  -25.917084   -7.676464
  97 H     1.0000    0     1.008   -7.625083  -27.926543   -5.652341
  98 H     1.0000    0     1.008   -7.887150  -32.542350   -6.248965
  99 H     1.0000    0     1.008   -6.552342  -31.141213   -8.966580
 100 H     1.0000    0     1.008   -8.924685  -33.950650  -11.533074
 101 H     1.0000    0     1.008  -10.591537  -35.993765   -6.640989
 102 H     1.0000    0     1.008  -11.060775  -37.986991  -12.067999
 103 H     1.0000    0     1.008  -15.317931  -43.471392   -4.408353
 104 H     1.0000    0     1.008  -13.112243  -39.183944   -5.020473
 105 H     1.0000    0     1.008  -17.187872  -47.562876   -4.923776
 106 H     1.0000    0     1.008  -18.647950  -51.907356   -6.563510
 107 H     1.0000    0     1.008  -19.841085  -58.974705  -12.471531
 108 H     1.0000    0     1.008  -19.457244  -55.605607   -8.993093
 109 H     1.0000    0     1.008  -17.180388  -56.655104  -19.001310
 110 H     1.0000    0     1.008  -19.670972  -61.090802  -16.236640
 111 H     1.0000    0     1.008  -18.090027  -60.086847  -21.710875
 112 H     1.0000    0     1.008  -21.934089  -70.526847  -17.372120
 113 H     1.0000    0     1.008  -23.834303  -73.427236  -20.462068
 114 H     1.0000    0     1.008  -23.808905  -72.413720  -24.993045
 115 H     1.0000    0     1.008  -21.910052  -68.476078  -26.536479

--------------------------------
INTERNAL COORDINATES (ANGSTROEM)
--------------------------------
 C      0   0   0     0.000000000000     0.00000000     0.00000000
 C      1   0   0     1.387185748629     0.00000000     0.00000000
 C      2   1   0     1.387478824451   121.12956299     0.00000000
 C      3   2   1     1.386893428134   120.90206972   359.56840993
 C      4   3   2     1.384353803440   118.44428354     0.45743758
 C      1   2   3     1.385864006387   118.63219891   359.90963159
 C      6   1   2     1.458667849683   131.00533065   181.02382408
 C      7   6   1     1.370187634012   125.85154819   353.42140191
 C      8   7   6     1.410657349359   124.11972343   359.96415500
 N      9   8   7     1.147997592593   176.30972750   178.04744111
 C      8   7   6     1.410253648816   125.31112321   182.13708802
 N     11   8   7     1.148662872256   176.17235510   180.82271149
 C      7   6   1     1.456422827204   106.65585135   172.92690834
 C      5   4   3     1.454147694665   130.94556049   182.22289150
 C     14   5   4     1.370011622469   125.50282090    22.83280115
 C     15  14   5     1.410936177933   123.27993872   162.24614616
 N     16  15  14     1.147834547529   176.45206201   241.87589249
 C     15  14   5     1.408663117853   123.93720969   347.26846965
 N     18  15  14     1.148032811291   176.98247542   200.73046473
 C     13   7   6     1.370069409519   124.63150121   198.73642781
 C     20  13   7     1.408623893415   128.66850545   156.54673038
 S     21  20  13     1.748094308697   124.50238196   341.19796706
 C     22  21  20     1.733383230131    91.75036345   183.44800276
 C     23  22  21     1.387300674584   110.93895468     0.80078676
 C     24  23  22     1.385228308908   113.27965927     0.42227335
 C     23  22  21     1.415322249419   120.83129835   181.86184177
 C     26  23  22     1.383707364655   128.26110233   176.63558367
 C     27  26  23     1.390510575652   113.45709498   182.11544323
 C     28  27  26     1.383693360322   113.47413014   359.67999568
 S     29  28  27     1.736104995846   110.81816380     0.03098518
 C     29  28  27     1.419821767300   128.13197363   179.08798210
 S     31  29  28     1.739802506436   120.89791085   173.82058634
 C     32  31  29     1.740112454613    91.67040347   178.78805793
 C     33  32  31     1.380400245798   110.49373133     0.00000000
 C     31  29  28     1.380846939997   128.32467892   352.73953299
 C     33  32  31     1.423651031328   121.93358009   180.22645697
 C     36  33  32     1.348995370340   124.06293630   354.41462723
 C     37  36  33     1.430647262815   123.81749536   179.45539250
 C     38  37  36     1.342451165816   124.64763749   174.92174937
 C     39  38  37     1.499609703423   123.42798624   359.07984997
 C     39  38  37     1.512323000486   122.40944946   179.46118424
 N     41  39  38     1.435564969794   116.15605530   359.22969338
 C     42  41  39     1.355260688945   122.69459376   275.94280016
 C     43  42  41     1.350849183810   124.61250687   170.87438170
 C     44  43  42     1.423289438624   124.18905775   175.55296115
 S     45  44  43     1.739035440869   119.54352223   187.37101778
 C     46  45  44     1.744266734447    91.89570405   178.59048778
 C     47  46  45     1.381857635648   110.26527094     0.58736120
 C     45  44  43     1.382307955341   130.04265866     6.32593148
 C     47  46  45     1.416185190785   121.78411220   181.85031144
 C     50  47  46     1.385806155348   127.53369280   180.12734997
 C     51  50  47     1.388284877862   113.55471235   181.56563963
 C     52  51  50     1.385015073167   113.61364266     0.00000000
 S     50  47  46     1.737337319291   121.75952865     1.52821434
 C     53  52  51     1.413596275179   127.78534523   178.65004662
 S     55  53  52     1.732524480116   122.05465911   180.27125399
 C     56  55  53     1.748236950387    91.84583670   178.84324602
 C     57  56  55     1.391789834027   110.08220835     0.14136514
 C     58  57  56     1.382024099139   113.79552724     0.00000000
 C     57  56  55     1.403395146564   120.03672010   181.36793460
 C     60  57  56     1.369796013828   124.98651965   178.53087285
 C     61  60  57     1.399647674059   121.86255469   180.76498500
 C     62  61  60     1.378414761456   126.61616693   174.23177995
 C     63  62  61     1.452149173777   124.59365515   159.44833674
 C     64  63  62     1.372389980800   127.52643894    16.91230372
 C     65  64  63     1.409556997819   125.65810562     2.13063153
 N     66  65  64     1.149077484637   175.66524851   175.44345970
 C     65  64  63     1.409782143560   124.18091509   180.23064202
 N     68  65  64     1.148564161638   176.09792683   179.18726165
 C     64  63  62     1.458712264362   106.88664303   197.26628510
 C     70  64  63     1.412754370795   108.76674630   354.78860825
 C     71  70  64     1.384393587315   120.61288567   178.88051238
 C     72  71  70     1.387316181301   118.56901944     0.00000000
 C     73  72  71     1.386629307421   120.90492035     0.41785925
 C     70  64  63     1.385287883221   131.03365383   174.07370599
 C     63  62  61     1.450471817100   127.59745702   347.09645663
 C     76  63  62     1.373302776849   126.90418298   330.34163200
 C     77  76  63     1.409256661152   123.94734483   180.87331365
 N     78  77  76     1.148591059429   176.03121744   202.93513844
 C     77  76  63     1.410381700994   124.85976274   354.85667080
 N     80  77  76     1.148467689620   175.15320380   218.65617804
 H      1   2   3     1.077483324326   120.00547846   180.18056544
 H      2   1   3     1.079342727404   119.22322604   179.83101872
 H      3   2   1     1.079363420447   119.69114074   179.57258408
 H      4   3   2     1.078087916823   120.44984694   179.67670774
 H     20  13   7     1.082662391099   117.43951485   341.98680376
 H     24  23  22     1.074228839401   122.82931606   180.24992251
 H     25  24  23     1.075524565689   124.04328934   180.16019417
 H     27  26  23     1.074605189360   122.93319945     1.58628787
 H     28  27  26     1.074533541124   123.62635133   179.89466342
 H     34  33  32     1.075564291942   122.54901053   180.16808962
 H     35  31  29     1.074797148117   122.99282912     0.69514420
 H     36  33  32     1.082555812741   115.71422859   175.00501527
 H     37  36  33     1.081278548849   118.39718464   359.25994523
 H     38  37  36     1.082396289951   115.81406336   354.61964873
 H     40  39  38     1.088856673121   110.84038044    57.16048121
 H     40  39  38     1.089413776717   110.60747277   297.68176201
 H     40  39  38     1.087199716381   110.76331047   177.54043279
 H     41  39  38     1.096716629262   108.21164170   237.53062433
 H     41  39  38     1.097024444076   108.48409025   121.56943288
 H     42  41  39     1.008764222452   117.05310057    75.58246233
 H     43  42  41     1.080234516853   114.57623450   347.55755485
 H     44  43  42     1.081419887786   119.39402008   357.71248864
 H     48  47  46     1.075034476610   122.81940056   179.85374275
 H     49  45  44     1.074742415000   123.16200926     1.61780124
 H     51  50  47     1.074489642993   122.84892110     1.38661835
 H     52  51  50     1.074733871105   123.49252942   179.77796420
 H     58  57  56     1.074596879253   122.80646376   180.89503848
 H     59  58  57     1.074602673596   123.75909815   180.39075375
 H     60  57  56     1.082667297511   116.66378469     0.87786659
 H     61  60  57     1.079318953646   118.92306628     2.51088769
 H     62  61  60     1.081397281807   115.85390525   349.23209904
 H     72  71  70     1.077877178207   121.27837950   180.72359969
 H     73  72  71     1.079411315208   119.34822440   180.44351768
 H     74  73  72     1.079410793535   119.69840736   179.81144070
 H     75  70  64     1.077443372897   121.35519985     1.03820836

---------------------------
INTERNAL COORDINATES (A.U.)
---------------------------
 C      0   0   0     0.000000000000     0.00000000     0.00000000
 C      1   0   0     2.621401161788     0.00000000     0.00000000
 C      2   1   0     2.621954994827   121.12956299     0.00000000
 C      3   2   1     2.620848756108   120.90206972   359.56840993
 C      4   3   2     2.616049560955   118.44428354     0.45743758
 C      1   2   3     2.618903430931   118.63219891   359.90963159
 C      6   1   2     2.756482756257   131.00533065   181.02382408
 C      7   6   1     2.589279380369   125.85154819   353.42140191
 C      8   7   6     2.665756059091   124.11972343   359.96415500
 N      9   8   7     2.169401052402   176.30972750   178.04744111
 C      8   7   6     2.664993175626   125.31112321   182.13708802
 N     11   8   7     2.170658248768   176.17235510   180.82271149
 C      7   6   1     2.752240278606   106.65585135   172.92690834
 C      5   4   3     2.747940901190   130.94556049   182.22289150
 C     14   5   4     2.588946766755   125.50282090    22.83280115
 C     15  14   5     2.666282968735   123.27993872   162.24614616
 N     16  15  14     2.169092941882   176.45206201   241.87589249
 C     15  14   5     2.661987507698   123.93720969   347.26846965
 N     18  15  14     2.169467606095   176.98247542   200.73046473
 C     13   7   6     2.589055968454   124.63150121   198.73642781
 C     20  13   7     2.661913384252   128.66850545   156.54673038
 S     21  20  13     3.303419499704   124.50238196   341.19796706
 C     22  21  20     3.275619590080    91.75036345   183.44800276
 C     23  22  21     2.621618340367   110.93895468     0.80078676
 C     24  23  22     2.617702136791   113.27965927     0.42227335
 C     23  22  21     2.674571442647   120.83129835   181.86184177
 C     26  23  22     2.614827968688   128.26110233   176.63558367
 C     27  26  23     2.627684174303   113.45709498   182.11544323
 C     28  27  26     2.614801504334   113.47413014   359.67999568
 S     29  28  27     3.280762981881   110.81816380     0.03098518
 C     29  28  27     2.683074299178   128.13197363   179.08798210
 S     31  29  28     3.287750264273   120.89791085   173.82058634
 C     32  31  29     3.288335981444    91.67040347   178.78805793
 C     33  32  31     2.608578419756   110.49373133     0.00000000
 C     31  29  28     2.609422549458   128.32467892   352.73953299
 C     33  32  31     2.690310559484   121.93358009   180.22645697
 C     36  33  32     2.549231805871   124.06293630   354.41462723
 C     37  36  33     2.703531520964   123.81749536   179.45539250
 C     38  37  36     2.536865051555   124.64763749   174.92174937
 C     39  38  37     2.833851647240   123.42798624   359.07984997
 C     39  38  37     2.857876296949   122.40944946   179.46118424
 N     41  39  38     2.712824640362   116.15605530   359.22969338
 C     42  41  39     2.561071542176   122.69459376   275.94280016
 C     43  42  41     2.552735005632   124.61250687   170.87438170
 C     44  43  42     2.689627248303   124.18905775   175.55296115
 S     45  44  43     3.286300720426   119.54352223   187.37101778
 C     46  45  44     3.296186432615    91.89570405   178.59048778
 C     47  46  45     2.611332487444   110.26527094     0.58736120
 C     45  44  43     2.612183468336   130.04265866     6.32593148
 C     47  46  45     2.676202165499   121.78411220   181.85031144
 C     50  47  46     2.618794108310   127.53369280   180.12734997
 C     51  50  47     2.623478215023   113.55471235   181.56563963
 C     52  51  50     2.617299179639   113.61364266     0.00000000
 S     50  47  46     3.283091735700   121.75952865     1.52821434
 C     53  52  51     2.671309824020   127.78534523   178.65004662
 S     55  53  52     3.273996787733   122.05465911   180.27125399
 C     56  55  53     3.303689053434    91.84583670   178.84324602
 C     57  56  55     2.630101622286   110.08220835     0.14136514
 C     58  57  56     2.611647057851   113.79552724     0.00000000
 C     57  56  55     2.652032484681   120.03672010   181.36793460
 C     60  57  56     2.588539325473   124.98651965   178.53087285
 C     61  60  57     2.644950787952   121.86255469   180.76498500
 C     62  61  60     2.604826398106   126.61616693   174.23177995
 C     63  62  61     2.744164244038   124.59365515   159.44833674
 C     64  63  62     2.593441212649   127.52643894    16.91230372
 C     65  64  63     2.663676696030   125.65810562     2.13063153
 N     66  65  64     2.171441752619   175.66524851   175.44345970
 C     65  64  63     2.664102159820   124.18091509   180.23064202
 N     68  65  64     2.170471712733   176.09792683   179.18726165
 C     64  63  62     2.756566687836   106.88664303   197.26628510
 C     70  64  63     2.669718855303   108.76674630   354.78860825
 C     71  70  64     2.616124741583   120.61288567   178.88051238
 C     72  71  70     2.621647643817   118.56901944     0.00000000
 C     73  72  71     2.620349640295   120.90492035     0.41785925
 C     70  64  63     2.617814715928   131.03365383   174.07370599
 C     63  62  61     2.740994499289   127.59745702   347.09645663
 C     76  63  62     2.595166147197   126.90418298   330.34163200
 C     77  76  63     2.663109141981   123.94734483   180.87331365
 N     78  77  76     2.170522542191   176.03121744   202.93513844
 C     77  76  63     2.665235159174   124.85976274   354.85667080
 N     80  77  76     2.170289407038   175.15320380   218.65617804
 H      1   2   3     2.036148396843   120.00547846   180.18056544
 H      2   1   3     2.039662159433   119.22322604   179.83101872
 H      3   2   1     2.039701263618   119.69114074   179.57258408
 H      4   3   2     2.037290911085   120.44984694   179.67670774
 H     20  13   7     2.045935414673   117.43951485   341.98680376
 H     24  23  22     2.029998311627   122.82931606   180.24992251
 H     25  24  23     2.032446879456   124.04328934   180.16019417
 H     27  26  23     2.030709509981   122.93319945     1.58628787
 H     28  27  26     2.030574114437   123.62635133   179.89466342
 H     34  33  32     2.032521951195   122.54901053   180.16808962
 H     35  31  29     2.031072259460   122.99282912     0.69514420
 H     36  33  32     2.045734010766   115.71422859   175.00501527
 H     37  36  33     2.043320331808   118.39718464   359.25994523
 H     38  37  36     2.045432556380   115.81406336   354.61964873
 H     40  39  38     2.057640911291   110.84038044    57.16048121
 H     40  39  38     2.058693684515   110.60747277   297.68176201
 H     40  39  38     2.054509716838   110.76331047   177.54043279
 H     41  39  38     2.072494075823   108.21164170   237.53062433
 H     41  39  38     2.073075761521   108.48409025   121.56943288
 H     42  41  39     1.906288114133   117.05310057    75.58246233
 H     43  42  41     2.041347397260   114.57623450   347.55755485
 H     44  43  42     2.043587423692   119.39402008   357.71248864
 H     48  47  46     2.031520745316   122.81940056   179.85374275
 H     49  45  44     2.030968828859   123.16200926     1.61780124
 H     51  50  47     2.030491158992   122.84892110     1.38661835
 H     52  51  50     2.030952683237   123.49252942   179.77796420
 H     58  57  56     2.030693806154   122.80646376   180.89503848
 H     59  58  57     2.030704755876   123.75909815   180.39075375
 H     60  57  56     2.045944686449   116.66378469     0.87786659
 H     61  60  57     2.039617233542   118.92306628     2.51088769
 H     62  61  60     2.043544704582   115.85390525   349.23209904
 H     72  71  70     2.036892672816   121.27837950   180.72359969
 H     73  72  71     2.039791771600   119.34822440   180.44351768
 H     74  73  72     2.039790785780   119.69840736   179.81144070
 H     75  70  64     2.036072899584   121.35519985     1.03820836

---------------------
BASIS SET INFORMATION
---------------------
There are 4 groups of distinct atoms

 Group   1 Type C   : 7s4p1d contracted to 3s2p1d pattern {511/31/1}
 Group   2 Type N   : 7s4p1d contracted to 3s2p1d pattern {511/31/1}
 Group   3 Type S   : 10s7p1d contracted to 4s3p1d pattern {5311/511/1}
 Group   4 Type H   : 4s1p contracted to 2s1p pattern {31/1}

Atom   0C    basis set group =>   1
Atom   1C    basis set group =>   1
Atom   2C    basis set group =>   1
Atom   3C    basis set group =>   1
Atom   4C    basis set group =>   1
Atom   5C    basis set group =>   1
Atom   6C    basis set group =>   1
Atom   7C    basis set group =>   1
Atom   8C    basis set group =>   1
Atom   9N    basis set group =>   2
Atom  10C    basis set group =>   1
Atom  11N    basis set group =>   2
Atom  12C    basis set group =>   1
Atom  13C    basis set group =>   1
Atom  14C    basis set group =>   1
Atom  15C    basis set group =>   1
Atom  16N    basis set group =>   2
Atom  17C    basis set group =>   1
Atom  18N    basis set group =>   2
Atom  19C    basis set group =>   1
Atom  20C    basis set group =>   1
Atom  21S    basis set group =>   3
Atom  22C    basis set group =>   1
Atom  23C    basis set group =>   1
Atom  24C    basis set group =>   1
Atom  25C    basis set group =>   1
Atom  26C    basis set group =>   1
Atom  27C    basis set group =>   1
Atom  28C    basis set group =>   1
Atom  29S    basis set group =>   3
Atom  30C    basis set group =>   1
Atom  31S    basis set group =>   3
Atom  32C    basis set group =>   1
Atom  33C    basis set group =>   1
Atom  34C    basis set group =>   1
Atom  35C    basis set group =>   1
Atom  36C    basis set group =>   1
Atom  37C    basis set group =>   1
Atom  38C    basis set group =>   1
Atom  39C    basis set group =>   1
Atom  40C    basis set group =>   1
Atom  41N    basis set group =>   2
Atom  42C    basis set group =>   1
Atom  43C    basis set group =>   1
Atom  44C    basis set group =>   1
Atom  45S    basis set group =>   3
Atom  46C    basis set group =>   1
Atom  47C    basis set group =>   1
Atom  48C    basis set group =>   1
Atom  49C    basis set group =>   1
Atom  50C    basis set group =>   1
Atom  51C    basis set group =>   1
Atom  52C    basis set group =>   1
Atom  53S    basis set group =>   3
Atom  54C    basis set group =>   1
Atom  55S    basis set group =>   3
Atom  56C    basis set group =>   1
Atom  57C    basis set group =>   1
Atom  58C    basis set group =>   1
Atom  59C    basis set group =>   1
Atom  60C    basis set group =>   1
Atom  61C    basis set group =>   1
Atom  62C    basis set group =>   1
Atom  63C    basis set group =>   1
Atom  64C    basis set group =>   1
Atom  65C    basis set group =>   1
Atom  66N    basis set group =>   2
Atom  67C    basis set group =>   1
Atom  68N    basis set group =>   2
Atom  69C    basis set group =>   1
Atom  70C    basis set group =>   1
Atom  71C    basis set group =>   1
Atom  72C    basis set group =>   1
Atom  73C    basis set group =>   1
Atom  74C    basis set group =>   1
Atom  75C    basis set group =>   1
Atom  76C    basis set group =>   1
Atom  77C    basis set group =>   1
Atom  78N    basis set group =>   2
Atom  79C    basis set group =>   1
Atom  80N    basis set group =>   2
Atom  81H    basis set group =>   4
Atom  82H    basis set group =>   4
Atom  83H    basis set group =>   4
Atom  84H    basis set group =>   4
Atom  85H    basis set group =>   4
Atom  86H    basis set group =>   4
Atom  87H    basis set group =>   4
Atom  88H    basis set group =>   4
Atom  89H    basis set group =>   4
Atom  90H    basis set group =>   4
Atom  91H    basis set group =>   4
Atom  92H    basis set group =>   4
Atom  93H    basis set group =>   4
Atom  94H    basis set group =>   4
Atom  95H    basis set group =>   4
Atom  96H    basis set group =>   4
Atom  97H    basis set group =>   4
Atom  98H    basis set group =>   4
Atom  99H    basis set group =>   4
Atom 100H    basis set group =>   4
Atom 101H    basis set group =>   4
Atom 102H    basis set group =>   4
Atom 103H    basis set group =>   4
Atom 104H    basis set group =>   4
Atom 105H    basis set group =>   4
Atom 106H    basis set group =>   4
Atom 107H    basis set group =>   4
Atom 108H    basis set group =>   4
Atom 109H    basis set group =>   4
Atom 110H    basis set group =>   4
Atom 111H    basis set group =>   4
Atom 112H    basis set group =>   4
Atom 113H    basis set group =>   4
Atom 114H    basis set group =>   4
Atom 115H    basis set group =>   4
---------------------------------
AUXILIARY/J BASIS SET INFORMATION
---------------------------------
There are 4 groups of distinct atoms

 Group   1 Type C   : 12s5p4d2f1g contracted to 6s4p3d1f1g pattern {711111/2111/211/2/1}
 Group   2 Type N   : 12s5p4d2f1g contracted to 6s4p3d1f1g pattern {711111/2111/211/2/1}
 Group   3 Type S   : 14s5p5d2f1g contracted to 8s4p3d1f1g pattern {71111111/2111/311/2/1}
 Group   4 Type H   : 5s2p1d contracted to 3s1p1d pattern {311/2/1}

Atom   0C    basis set group =>   1
Atom   1C    basis set group =>   1
Atom   2C    basis set group =>   1
Atom   3C    basis set group =>   1
Atom   4C    basis set group =>   1
Atom   5C    basis set group =>   1
Atom   6C    basis set group =>   1
Atom   7C    basis set group =>   1
Atom   8C    basis set group =>   1
Atom   9N    basis set group =>   2
Atom  10C    basis set group =>   1
Atom  11N    basis set group =>   2
Atom  12C    basis set group =>   1
Atom  13C    basis set group =>   1
Atom  14C    basis set group =>   1
Atom  15C    basis set group =>   1
Atom  16N    basis set group =>   2
Atom  17C    basis set group =>   1
Atom  18N    basis set group =>   2
Atom  19C    basis set group =>   1
Atom  20C    basis set group =>   1
Atom  21S    basis set group =>   3
Atom  22C    basis set group =>   1
Atom  23C    basis set group =>   1
Atom  24C    basis set group =>   1
Atom  25C    basis set group =>   1
Atom  26C    basis set group =>   1
Atom  27C    basis set group =>   1
Atom  28C    basis set group =>   1
Atom  29S    basis set group =>   3
Atom  30C    basis set group =>   1
Atom  31S    basis set group =>   3
Atom  32C    basis set group =>   1
Atom  33C    basis set group =>   1
Atom  34C    basis set group =>   1
Atom  35C    basis set group =>   1
Atom  36C    basis set group =>   1
Atom  37C    basis set group =>   1
Atom  38C    basis set group =>   1
Atom  39C    basis set group =>   1
Atom  40C    basis set group =>   1
Atom  41N    basis set group =>   2
Atom  42C    basis set group =>   1
Atom  43C    basis set group =>   1
Atom  44C    basis set group =>   1
Atom  45S    basis set group =>   3
Atom  46C    basis set group =>   1
Atom  47C    basis set group =>   1
Atom  48C    basis set group =>   1
Atom  49C    basis set group =>   1
Atom  50C    basis set group =>   1
Atom  51C    basis set group =>   1
Atom  52C    basis set group =>   1
Atom  53S    basis set group =>   3
Atom  54C    basis set group =>   1
Atom  55S    basis set group =>   3
Atom  56C    basis set group =>   1
Atom  57C    basis set group =>   1
Atom  58C    basis set group =>   1
Atom  59C    basis set group =>   1
Atom  60C    basis set group =>   1
Atom  61C    basis set group =>   1
Atom  62C    basis set group =>   1
Atom  63C    basis set group =>   1
Atom  64C    basis set group =>   1
Atom  65C    basis set group =>   1
Atom  66N    basis set group =>   2
Atom  67C    basis set group =>   1
Atom  68N    basis set group =>   2
Atom  69C    basis set group =>   1
Atom  70C    basis set group =>   1
Atom  71C    basis set group =>   1
Atom  72C    basis set group =>   1
Atom  73C    basis set group =>   1
Atom  74C    basis set group =>   1
Atom  75C    basis set group =>   1
Atom  76C    basis set group =>   1
Atom  77C    basis set group =>   1
Atom  78N    basis set group =>   2
Atom  79C    basis set group =>   1
Atom  80N    basis set group =>   2
Atom  81H    basis set group =>   4
Atom  82H    basis set group =>   4
Atom  83H    basis set group =>   4
Atom  84H    basis set group =>   4
Atom  85H    basis set group =>   4
Atom  86H    basis set group =>   4
Atom  87H    basis set group =>   4
Atom  88H    basis set group =>   4
Atom  89H    basis set group =>   4
Atom  90H    basis set group =>   4
Atom  91H    basis set group =>   4
Atom  92H    basis set group =>   4
Atom  93H    basis set group =>   4
Atom  94H    basis set group =>   4
Atom  95H    basis set group =>   4
Atom  96H    basis set group =>   4
Atom  97H    basis set group =>   4
Atom  98H    basis set group =>   4
Atom  99H    basis set group =>   4
Atom 100H    basis set group =>   4
Atom 101H    basis set group =>   4
Atom 102H    basis set group =>   4
Atom 103H    basis set group =>   4
Atom 104H    basis set group =>   4
Atom 105H    basis set group =>   4
Atom 106H    basis set group =>   4
Atom 107H    basis set group =>   4
Atom 108H    basis set group =>   4
Atom 109H    basis set group =>   4
Atom 110H    basis set group =>   4
Atom 111H    basis set group =>   4
Atom 112H    basis set group =>   4
Atom 113H    basis set group =>   4
Atom 114H    basis set group =>   4
Atom 115H    basis set group =>   4


           ************************************************************
           *        Program running with 6 parallel MPI-processes     *
           *              working on a common directory               *
           ************************************************************
------------------------------------------------------------------------------
                           ORCA GTO INTEGRAL CALCULATION
                           -- RI-GTO INTEGRALS CHOSEN --
------------------------------------------------------------------------------

                         BASIS SET STATISTICS AND STARTUP INFO

Gaussian basis set:
 # of primitive gaussian shells          ... 1183
 # of primitive gaussian functions       ... 2261
 # of contracted shells                  ...  603
 # of contracted basis functions         ... 1333
 Highest angular momentum                ...    2
 Maximum contraction depth               ...    5
Auxiliary gaussian basis set:
 # of primitive gaussian shells          ... 2242
 # of primitive gaussian functions       ... 6272
 # of contracted shells                  ... 1402
 # of contracted aux-basis functions     ... 4366
 Highest angular momentum                ...    4
 Maximum contraction depth               ...    7
Ratio of auxiliary to basis functions    ...  3.28
Integral package used                  ... LIBINT
 One Electron integrals                  ... done
 Ordering auxiliary basis shells         ... done
 Integral threshhold             Thresh  ...  2.500e-11
 Primitive cut-off               TCut    ...  2.500e-12
 Pre-screening matrix                    ... done
 Shell pair data                         ... 
 Ordering of the shell pairs             ... done (   0.010 sec) 43859 of 182106 pairs
 Determination of significant pairs      ... done (   0.000 sec)
 Creation of shell pair data             ... done (   0.006 sec)
 Storage of shell pair data              ... done (   0.034 sec)
 Shell pair data done in (   0.049 sec)
 Computing two index integrals           ... done
 Cholesky decomposition of the V-matrix  ... done


Timings:
 Total evaluation time                   ...   2.841 sec (  0.047 min)
 One electron matrix time                ...   0.683 sec (  0.011 min) = 24.1%
 Schwartz matrix evaluation time         ...   0.842 sec (  0.014 min) = 29.6%
 Two index repulsion integral time       ...   0.470 sec (  0.008 min) = 16.5%
 Cholesky decomposition of V             ...   0.779 sec (  0.013 min) = 27.4%
 Three index repulsion integral time     ...   0.000 sec (  0.000 min) =  0.0%



           ************************************************************
           *        Program running with 6 parallel MPI-processes     *
           *              working on a common directory               *
           ************************************************************
-------------------------------------------------------------------------------
                                 ORCA SCF
-------------------------------------------------------------------------------

------------
SCF SETTINGS
------------
Hamiltonian:
 Density Functional     Method          .... DFT(GTOs)
 Exchange Functional    Exchange        .... WB88
 Correlation Functional Correlation     .... LYP
 LDA part of GGA corr.  LDAOpt          .... VWN-5
 Gradients option       PostSCFGGA      .... off
 Hybrid DFT is turned on
   Fraction HF Exchange ScalHFX         ....  0.190000
   Scaling of DF-GGA-X  ScalDFX         ....  0.350000
   Scaling of DF-GGA-C  ScalDFC         ....  0.810000
   Scaling of DF-LDA-C  ScalLDAC        ....  1.000000
   Perturbative correction              ....  0.000000
   Density functional embedding theory  .... OFF
 Long-range corrected/Screened/Range-Separated Hybrid DFT is turned on
   Amount of maximum screened exact exchange              ....  0.460000
   Range separation parameter mu (erf(mu*r12)/r12)        ....  0.330000
 RI-approximation to the Coulomb term is turned on
   Number of auxiliary basis functions  .... 4366
   RIJ-COSX (HFX calculated with COS-X)).... on


General Settings:
 Integral files         IntName         .... xtbopt
 Hartree-Fock type      HFTyp           .... RHF
 Total Charge           Charge          ....    0
 Multiplicity           Mult            ....    1
 Number of Electrons    NEL             ....  590
 Basis Dimension        Dim             .... 1333
 Nuclear Repulsion      ENuc            ....  11081.2572489499 Eh

Convergence Acceleration:
 DIIS                   CNVDIIS         .... on
   Start iteration      DIISMaxIt       ....    12
   Startup error        DIISStart       ....  0.200000
   # of expansion vecs  DIISMaxEq       ....     5
   Bias factor          DIISBfac        ....   1.050
   Max. coefficient     DIISMaxC        ....  10.000
 Newton-Raphson         CNVNR           .... off
 SOSCF                  CNVSOSCF        .... on
   Start iteration      SOSCFMaxIt      ....   150
   Startup grad/error   SOSCFStart      ....  0.003300
 Level Shifting         CNVShift        .... on
   Level shift para.    LevelShift      ....    0.2500
   Turn off err/grad.   ShiftErr        ....    0.0010
 Zerner damping         CNVZerner       .... off
 Static damping         CNVDamp         .... on
   Fraction old density DampFac         ....    0.7000
   Max. Damping (<1)    DampMax         ....    0.9800
   Min. Damping (>=0)   DampMin         ....    0.0000
   Turn off err/grad.   DampErr         ....    0.1000
 Fernandez-Rico         CNVRico         .... off

SCF Procedure:
 Maximum # iterations   MaxIter         ....   125
 SCF integral mode      SCFMode         .... Direct
   Integral package                     .... LIBINT
 Reset frequency        DirectResetFreq ....    20
 Integral Threshold     Thresh          ....  2.500e-11 Eh
 Primitive CutOff       TCut            ....  2.500e-12 Eh

Convergence Tolerance:
 Convergence Check Mode ConvCheckMode   .... Total+1el-Energy
 Convergence forced     ConvForced      .... 1
 Energy Change          TolE            ....  1.000e-08 Eh
 1-El. energy change                    ....  1.000e-05 Eh
 Orbital Gradient       TolG            ....  1.000e-05
 Orbital Rotation angle TolX            ....  1.000e-05
 DIIS Error             TolErr          ....  5.000e-07


Diagonalization of the overlap matrix:
Smallest eigenvalue                        ... 1.649e-04
Time for diagonalization                   ...    0.289 sec
Threshold for overlap eigenvalues          ... 1.000e-08
Number of eigenvalues below threshold      ... 0
Time for construction of square roots      ...    0.210 sec
Total time needed                          ...    0.503 sec

-------------------
DFT GRID GENERATION
-------------------

General Integration Accuracy     IntAcc      ...  4.670
Radial Grid Type                 RadialGrid  ... Gauss-Chebyshev
Angular Grid (max. acc.)         AngularGrid ... Lebedev-302
Angular grid pruning method      GridPruning ... 3 (G Style)
Weight generation scheme         WeightScheme... Becke
Basis function cutoff            BFCut       ...    1.0000e-11
Integration weight cutoff        WCut        ...    1.0000e-14
Grids for H and He will be reduced by one unit

# of grid points (after initial pruning)     ... 625766 (   0.0 sec)
# of grid points (after weights+screening)   ... 543701 (  11.0 sec)
nearest neighbour list constructed           ...    0.0 sec
Grid point re-assignment to atoms done       ...    0.1 sec
Grid point division into batches done        ...    1.9 sec
Reduced shell lists constructed in    3.0 sec

Total number of grid points                  ...   543701
Total number of batches                      ...     8546
Average number of points per batch           ...       63
Average number of grid points per atom       ...     4687
Average number of shells per batch           ...    87.09 (14.44%)
Average number of basis functions per batch  ...   186.84 (14.02%)
Average number of large shells per batch     ...    55.41 (63.62%)
Average number of large basis fcns per batch ...   119.98 (64.21%)
Maximum spatial batch extension              ...  17.62, 16.75, 20.81 au
Average spatial batch extension              ...   0.36,  0.35,  0.37 au

Time for grid setup =   14.319 sec

------------------------------
INITIAL GUESS: MODEL POTENTIAL
------------------------------
Loading Hartree-Fock densities                     ... done
Calculating cut-offs                               ... done
Setting up the integral package                    ... done
Initializing the effective Hamiltonian             ... done
Starting the Coulomb interaction                   ... done (   1.5 sec)
Reading the grid                                   ... done
Mapping shells                                     ... done
Starting the XC term evaluation                    ... done (   1.6 sec)
  promolecular density results
     # of electrons  =    589.982599976
     EX              =   -556.119989221
     EC              =    -20.358119664
     EX+EC           =   -576.478108885
Transforming the Hamiltonian                       ... done (   0.1 sec)
Diagonalizing the Hamiltonian                      ... done (   0.3 sec)
Back transforming the eigenvectors                 ... done (   0.1 sec)
Now organizing SCF variables                       ... done
                      ------------------
                      INITIAL GUESS DONE (  18.1 sec)
                      ------------------
--------------------
COSX GRID GENERATION
--------------------

General Integration Accuracy     IntAcc      ...  3.340
Radial Grid Type                 RadialGrid  ... Gauss-Chebyshev
Angular Grid (max. acc.)         AngularGrid ... Lebedev-50
Angular grid pruning method      GridPruning ... 3 (G Style)
Weight generation scheme         WeightScheme... Becke
Basis function cutoff            BFCut       ...    1.0000e-11
Integration weight cutoff        WCut        ...    1.0000e-14
Grids for H and He will be reduced by one unit

# of grid points (after initial pruning)     ...  58810 (   0.0 sec)
# of grid points (after weights+screening)   ...  53166 (   1.0 sec)
nearest neighbour list constructed           ...    0.0 sec
Grid point re-assignment to atoms done       ...    0.0 sec
Grid point division into batches done        ...    0.0 sec
Reduced shell lists constructed in    0.2 sec

Total number of grid points                  ...    53166
Total number of batches                      ...      890
Average number of points per batch           ...       59
Average number of grid points per atom       ...      458
Average number of shells per batch           ...   104.69 (17.36%)
Average number of basis functions per batch  ...   226.55 (17.00%)
Average number of large shells per batch     ...    66.67 (63.68%)
Average number of large basis fcns per batch ...   146.23 (64.55%)
Maximum spatial batch extension              ...  15.17, 16.92, 22.09 au
Average spatial batch extension              ...   0.75,  0.67,  0.86 au

Overlap Fitting                  UseSFitting ... on
Constructing numerical overlap ... done (      0.1 sec)
Inverting numerical overlap    ... done (      0.1 sec)
Obtaining analytic overlap     ... done (      0.0 sec)
Final contraction and storage  ... done (      0.1 sec)


General Integration Accuracy     IntAcc      ...  3.670
Radial Grid Type                 RadialGrid  ... Gauss-Chebyshev
Angular Grid (max. acc.)         AngularGrid ... Lebedev-50
Angular grid pruning method      GridPruning ... 3 (G Style)
Weight generation scheme         WeightScheme... Becke
Basis function cutoff            BFCut       ...    1.0000e-11
Integration weight cutoff        WCut        ...    1.0000e-14
Grids for H and He will be reduced by one unit

# of grid points (after initial pruning)     ...  73430 (   0.0 sec)
# of grid points (after weights+screening)   ...  66130 (   1.2 sec)
nearest neighbour list constructed           ...    0.0 sec
Grid point re-assignment to atoms done       ...    0.0 sec
Grid point division into batches done        ...    0.0 sec
Reduced shell lists constructed in    0.2 sec

Total number of grid points                  ...    66130
Total number of batches                      ...     1092
Average number of points per batch           ...       60
Average number of grid points per atom       ...      570
Average number of shells per batch           ...   102.32 (16.97%)
Average number of basis functions per batch  ...   221.46 (16.61%)
Average number of large shells per batch     ...    65.34 (63.86%)
Average number of large basis fcns per batch ...   142.98 (64.56%)
Maximum spatial batch extension              ...  17.81, 17.70, 27.46 au
Average spatial batch extension              ...   0.72,  0.60,  0.83 au

Overlap Fitting                  UseSFitting ... on
Constructing numerical overlap ... done (      0.1 sec)
Inverting numerical overlap    ... done (      0.1 sec)
Obtaining analytic overlap     ... done (      0.0 sec)
Final contraction and storage  ... done (      0.1 sec)


General Integration Accuracy     IntAcc      ...  4.010
Radial Grid Type                 RadialGrid  ... Gauss-Chebyshev
Angular Grid (max. acc.)         AngularGrid ... Lebedev-110
Angular grid pruning method      GridPruning ... 3 (G Style)
Weight generation scheme         WeightScheme... Becke
Basis function cutoff            BFCut       ...    1.0000e-11
Integration weight cutoff        WCut        ...    1.0000e-14
Grids for H and He will be reduced by one unit

# of grid points (after initial pruning)     ... 143272 (   0.0 sec)
# of grid points (after weights+screening)   ... 127942 (   2.6 sec)
nearest neighbour list constructed           ...    0.0 sec
Grid point re-assignment to atoms done       ...    0.0 sec
Grid point division into batches done        ...    0.1 sec
Reduced shell lists constructed in    0.4 sec

Total number of grid points                  ...   127942
Total number of batches                      ...     2059
Average number of points per batch           ...       62
Average number of grid points per atom       ...     1103
Average number of shells per batch           ...    97.66 (16.19%)
Average number of basis functions per batch  ...   211.48 (15.86%)
Average number of large shells per batch     ...    62.71 (64.21%)
Average number of large basis fcns per batch ...   136.85 (64.71%)
Maximum spatial batch extension              ...  19.09, 18.46, 24.58 au
Average spatial batch extension              ...   0.57,  0.51,  0.64 au

Overlap Fitting                  UseSFitting ... on
Constructing numerical overlap ... done (      0.2 sec)
Inverting numerical overlap    ... done (      0.1 sec)
Obtaining analytic overlap     ... done (      0.0 sec)
Final contraction and storage  ... done (      0.1 sec)

Time for X-Grid setup             =    6.749 sec
--------------
SCF ITERATIONS
--------------
ITER       Energy         Delta-E        Max-DP      RMS-DP      [F,P]     Damp
               ***  Starting incremental Fock matrix formation  ***
  0  -5411.3701428129   0.000000000000 0.07815690  0.00092627  0.2553566 0.7000
  1  -5412.1667250212  -0.796582208326 0.04398699  0.00063682  0.0963173 0.7000
                               ***Turning on DIIS***
  2  -5412.4804364936  -0.313711472418 0.09304719  0.00115290  0.0420373 0.0000
  3  -5413.0066130686  -0.526176575009 0.04480666  0.00050600  0.0493741 0.0000
  4  -5413.1086505743  -0.102037505632 0.01738530  0.00015425  0.0296902 0.0000
  5  -5413.1179238461  -0.009273271849 0.00731569  0.00006094  0.0070205 0.0000
  6  -5413.1193554552  -0.001431609095 0.00292796  0.00003459  0.0017388 0.0000
                      *** Initiating the SOSCF procedure ***
                           *** Shutting down DIIS ***
                      *** Re-Reading the Fockian *** 
                      *** Removing any level shift *** 
ITER      Energy       Delta-E        Grad      Rot      Max-DP    RMS-DP
  7  -5413.11995690  -0.0006014480  0.003146  0.003146  0.003329  0.000052
               *** Restarting incremental Fock matrix formation ***
  8  -5413.12040252  -0.0004456162  0.000880  0.005837  0.001949  0.000024
  9  -5413.12048272  -0.0000801981  0.000663  0.008343  0.001669  0.000023
 10  -5413.12053748  -0.0000547613  0.000160  0.000937  0.000874  0.000007
 11  -5413.12054075  -0.0000032758  0.000143  0.000900  0.000395  0.000003
 12  -5413.12054429  -0.0000035313  0.000071  0.000221  0.000187  0.000002
 13  -5413.12054418   0.0000001027  0.000073  0.000259  0.000093  0.000001
 14  -5413.12054476  -0.0000005736  0.000012  0.000046  0.000065  0.000001
 15  -5413.12054479  -0.0000000293  0.000008  0.000017  0.000032  0.000000
 16  -5413.12054484  -0.0000000570  0.000004  0.000014  0.000016  0.000000
 17  -5413.12054482   0.0000000205  0.000006  0.000008  0.000009  0.000000
                  ***Gradient check signals convergence***
              ***Rediagonalizing the Fockian in SOSCF/NRSCF***

               *****************************************************
               *                     SUCCESS                       *
               *           SCF CONVERGED AFTER  18 CYCLES          *
               *****************************************************

Setting up the final grid:

General Integration Accuracy     IntAcc      ...  5.010
Radial Grid Type                 RadialGrid  ... Gauss-Chebyshev
Angular Grid (max. acc.)         AngularGrid ... Lebedev-434
Angular grid pruning method      GridPruning ... 3 (G Style)
Weight generation scheme         WeightScheme... Becke
Basis function cutoff            BFCut       ...    1.0000e-11
Integration weight cutoff        WCut        ...    1.0000e-14
Grids for H and He will be reduced by one unit

# of grid points (after initial pruning)     ... 1106038 (   0.1 sec)
# of grid points (after weights+screening)   ... 957847 (  18.9 sec)
nearest neighbour list constructed           ...    0.0 sec
Grid point re-assignment to atoms done       ...    0.1 sec
Grid point division into batches done        ...    6.3 sec
Reduced shell lists constructed in    8.1 sec

Total number of grid points                  ...   957847
Total number of batches                      ...    15027
Average number of points per batch           ...       63
Average number of grid points per atom       ...     8257
Average number of shells per batch           ...    83.98 (13.93%)
Average number of basis functions per batch  ...   179.46 (13.46%)
Average number of large shells per batch     ...    53.02 (63.13%)
Average number of large basis fcns per batch ...   114.55 (63.83%)
Maximum spatial batch extension              ...  20.04, 17.77, 20.81 au
Average spatial batch extension              ...   0.30,  0.29,  0.31 au

Final grid set up in   27.5 sec
Final integration                            ... done (   3.5 sec)
Change in XC energy                          ...    -0.000036389
Integrated number of electrons               ...   590.000051092
Previous integrated no of electrons          ...   589.999729846
Old exchange energy                            =   -153.353456143 Eh
New exchange energy                            =   -153.351297456 Eh
Exchange energy change after final integration =      0.002158687 Eh
Total energy after final integration           =  -5413.118422547 Eh
Final COS-X integration done in                =    65.834 sec

----------------
TOTAL SCF ENERGY
----------------

Total Energy       :        -5413.11842255 Eh         -147298.44079 eV

Components:
Nuclear Repulsion  :        11081.25724895 Eh          301536.33956 eV
Electronic Energy  :       -16494.37567150 Eh         -448834.78034 eV
One Electron Energy:       -29462.03328339 Eh         -801702.68342 eV
Two Electron Energy:        12967.65761189 Eh          352867.90308 eV

Virial components:
Potential Energy   :       -10792.06952595 Eh         -293667.14155 eV
Kinetic Energy     :         5378.95110341 Eh          146368.70076 eV
Virial Ratio       :            2.00635204


DFT components:
N(Alpha)           :      295.000025545803 electrons
N(Beta)            :      295.000025545803 electrons
N(Total)           :      590.000051091605 electrons
E(XC)              :     -432.265837713431 Eh       
DFET-embed. en.    :        0.000000000000 Eh       

---------------
SCF CONVERGENCE
---------------

  Last Energy change         ...   -2.2781e-08  Tolerance :   1.0000e-08
  Last MAX-Density change    ...    7.9936e-15  Tolerance :   1.0000e-07
  Last RMS-Density change    ...    3.4935e-17  Tolerance :   5.0000e-09
  Last Orbital Gradient      ...    9.8803e-07  Tolerance :   1.0000e-05
  Last Orbital Rotation      ...    6.6050e-06  Tolerance :   1.0000e-05

             **** THE GBW FILE WAS UPDATED (xtbopt.gbw) ****
             **** DENSITY FILE WAS UPDATED (xtbopt.scfp) ****
             **** ENERGY FILE WAS UPDATED (xtbopt.en.tmp) ****
             **** THE GBW FILE WAS UPDATED (xtbopt.gbw) ****
             **** DENSITY FILE WAS UPDATED (xtbopt.scfp) ****
----------------
ORBITAL ENERGIES
----------------

  NO   OCC          E(Eh)            E(eV) 
   0   2.0000     -88.978046     -2421.2157 
   1   2.0000     -88.976033     -2421.1609 
   2   2.0000     -88.968096     -2420.9450 
   3   2.0000     -88.966679     -2420.9064 
   4   2.0000     -88.962889     -2420.8033 
   5   2.0000     -88.952821     -2420.5293 
   6   2.0000     -14.443239      -393.0205 
   7   2.0000     -14.421673      -392.4337 
   8   2.0000     -14.421157      -392.4196 
   9   2.0000     -14.417804      -392.3284 
  10   2.0000     -14.417128      -392.3100 
  11   2.0000     -14.412092      -392.1730 
  12   2.0000     -14.411412      -392.1545 
  13   2.0000     -14.409289      -392.0967 
  14   2.0000     -14.408664      -392.0797 
  15   2.0000     -10.349949      -281.6364 
  16   2.0000     -10.347639      -281.5736 
  17   2.0000     -10.347080      -281.5584 
  18   2.0000     -10.345635      -281.5190 
  19   2.0000     -10.339379      -281.3488 
  20   2.0000     -10.338851      -281.3344 
  21   2.0000     -10.336815      -281.2790 
  22   2.0000     -10.336027      -281.2576 
  23   2.0000     -10.335887      -281.2538 
  24   2.0000     -10.329401      -281.0773 
  25   2.0000     -10.328648      -281.0568 
  26   2.0000     -10.327257      -281.0189 
  27   2.0000     -10.326517      -280.9988 
  28   2.0000     -10.324084      -280.9326 
  29   2.0000     -10.323805      -280.9250 
  30   2.0000     -10.323730      -280.9230 
  31   2.0000     -10.323365      -280.9131 
  32   2.0000     -10.322380      -280.8862 
  33   2.0000     -10.320799      -280.8432 
  34   2.0000     -10.319115      -280.7974 
  35   2.0000     -10.319060      -280.7959 
  36   2.0000     -10.316463      -280.7252 
  37   2.0000     -10.315093      -280.6880 
  38   2.0000     -10.314916      -280.6831 
  39   2.0000     -10.314436      -280.6701 
  40   2.0000     -10.312933      -280.6292 
  41   2.0000     -10.312901      -280.6283 
  42   2.0000     -10.312322      -280.6126 
  43   2.0000     -10.312283      -280.6115 
  44   2.0000     -10.312224      -280.6099 
  45   2.0000     -10.312108      -280.6067 
  46   2.0000     -10.312012      -280.6041 
  47   2.0000     -10.309664      -280.5402 
  48   2.0000     -10.309631      -280.5393 
  49   2.0000     -10.306174      -280.4453 
  50   2.0000     -10.305454      -280.4257 
  51   2.0000     -10.302085      -280.3340 
  52   2.0000     -10.301766      -280.3253 
  53   2.0000     -10.300973      -280.3037 
  54   2.0000     -10.300483      -280.2904 
  55   2.0000     -10.300456      -280.2897 
  56   2.0000     -10.300035      -280.2782 
  57   2.0000     -10.299302      -280.2583 
  58   2.0000     -10.298809      -280.2448 
  59   2.0000     -10.298408      -280.2339 
  60   2.0000     -10.294342      -280.1233 
  61   2.0000     -10.293212      -280.0925 
  62   2.0000     -10.291797      -280.0540 
  63   2.0000     -10.291607      -280.0489 
  64   2.0000     -10.291190      -280.0375 
  65   2.0000     -10.290860      -280.0285 
  66   2.0000     -10.290496      -280.0186 
  67   2.0000     -10.290158      -280.0094 
  68   2.0000     -10.289591      -279.9940 
  69   2.0000     -10.288708      -279.9700 
  70   2.0000     -10.286524      -279.9105 
  71   2.0000     -10.286026      -279.8970 
  72   2.0000     -10.285208      -279.8747 
  73   2.0000     -10.285109      -279.8720 
  74   2.0000     -10.284950      -279.8677 
  75   2.0000     -10.280272      -279.7404 
  76   2.0000     -10.276936      -279.6497 
  77   2.0000     -10.276836      -279.6469 
  78   2.0000     -10.275215      -279.6028 
  79   2.0000     -10.266107      -279.3550 
  80   2.0000     -10.265827      -279.3473 
  81   2.0000      -8.073262      -219.6846 
  82   2.0000      -8.071873      -219.6468 
  83   2.0000      -8.064011      -219.4329 
  84   2.0000      -8.062443      -219.3902 
  85   2.0000      -8.058718      -219.2889 
  86   2.0000      -8.048813      -219.0193 
  87   2.0000      -6.042631      -164.4283 
  88   2.0000      -6.041201      -164.3894 
  89   2.0000      -6.038502      -164.3160 
  90   2.0000      -6.037030      -164.2759 
  91   2.0000      -6.035185      -164.2257 
  92   2.0000      -6.033888      -164.1904 
  93   2.0000      -6.033247      -164.1730 
  94   2.0000      -6.031664      -164.1299 
  95   2.0000      -6.029187      -164.0625 
  96   2.0000      -6.028092      -164.0327 
  97   2.0000      -6.027708      -164.0223 
  98   2.0000      -6.026076      -163.9779 
  99   2.0000      -6.024517      -163.9355 
 100   2.0000      -6.023951      -163.9200 
 101   2.0000      -6.020624      -163.8295 
 102   2.0000      -6.018103      -163.7609 
 103   2.0000      -6.014108      -163.6522 
 104   2.0000      -6.010754      -163.5609 
 105   2.0000      -1.046085       -28.4654 
 106   2.0000      -1.036170       -28.1956 
 107   2.0000      -1.024515       -27.8785 
 108   2.0000      -1.019342       -27.7377 
 109   2.0000      -1.016252       -27.6536 
 110   2.0000      -1.007957       -27.4279 
 111   2.0000      -1.006370       -27.3847 
 112   2.0000      -1.006247       -27.3814 
 113   2.0000      -1.003783       -27.3143 
 114   2.0000      -0.997909       -27.1545 
 115   2.0000      -0.997323       -27.1385 
 116   2.0000      -0.996338       -27.1117 
 117   2.0000      -0.990269       -26.9466 
 118   2.0000      -0.988785       -26.9062 
 119   2.0000      -0.988585       -26.9008 
 120   2.0000      -0.984954       -26.8020 
 121   2.0000      -0.971265       -26.4295 
 122   2.0000      -0.958330       -26.0775 
 123   2.0000      -0.950220       -25.8568 
 124   2.0000      -0.939015       -25.5519 
 125   2.0000      -0.929381       -25.2897 
 126   2.0000      -0.928666       -25.2703 
 127   2.0000      -0.921516       -25.0757 
 128   2.0000      -0.911688       -24.8083 
 129   2.0000      -0.898969       -24.4622 
 130   2.0000      -0.892678       -24.2910 
 131   2.0000      -0.887855       -24.1598 
 132   2.0000      -0.883492       -24.0410 
 133   2.0000      -0.875365       -23.8199 
 134   2.0000      -0.869593       -23.6628 
 135   2.0000      -0.866107       -23.5680 
 136   2.0000      -0.862992       -23.4832 
 137   2.0000      -0.856294       -23.3009 
 138   2.0000      -0.853265       -23.2185 
 139   2.0000      -0.848786       -23.0966 
 140   2.0000      -0.846269       -23.0282 
 141   2.0000      -0.838081       -22.8053 
[...]
  13   3.397     365.0   0.152227   0.163663  34.247097  27.961044     0.64 ( 103-> 109)    0.21 ( 101-> 109)    0.05 (  99-> 111)
  14   3.431     361.4   0.131216   0.134701  51.057285  64.642229     0.56 ( 102-> 108)    0.13 ( 104-> 110)    0.12 (  98-> 108)
  15   3.512     353.0   0.242431   0.243318  -25.735413  -26.836123     0.48 ( 104-> 110)    0.11 ( 105-> 108)    0.11 ( 102-> 108)
  16   3.536     350.7   0.041562   0.042741  -1.768164   0.231960     0.78 ( 105-> 108)    0.05 ( 104-> 110)    0.05 ( 107-> 112)
  17   3.875     319.9   0.265096   0.248530  -12.418811  -1.427385     0.40 ( 103-> 111)    0.27 ( 101-> 111)    0.22 (  99-> 109)
  18   3.883     319.3   0.091780   0.083152  -51.110422  -45.765249     0.39 ( 102-> 110)    0.17 (  95-> 108)    0.13 (  98-> 110)
  19   3.935     315.1   0.019993   0.016422   0.775709  10.936479     0.36 (  96-> 108)    0.27 (  93-> 108)    0.13 (  95-> 108)
  20   3.981     311.4   0.000599   0.000522   0.483818   0.410881     0.98 ( 106-> 111)    0.01 ( 104-> 111)    0.00 ( 105-> 111)
  21   4.009     309.2   0.009569   0.007284  -1.408379   0.133787     0.40 ( 101-> 109)    0.25 ( 103-> 109)    0.17 (  99-> 111)
  22   4.081     303.8   0.038594   0.035775  21.934938  21.674406     0.86 ( 105-> 110)    0.05 (  95-> 108)    0.02 ( 102-> 110)
  23   4.089     303.2   0.378205   0.348015  191.486637  189.807158     0.37 (  95-> 108)    0.21 ( 102-> 110)    0.10 ( 105-> 110)
  24   4.120     300.9   0.071635   0.064428  -52.791689  -88.471387     0.40 ( 105-> 113)    0.28 (  99-> 109)    0.06 ( 103-> 111)
  25   4.134     299.9   0.454217   0.429499  -213.688710  -126.113942     0.41 (  99-> 109)    0.32 ( 105-> 113)    0.07 ( 103-> 111)
  26   4.157     298.2   0.009826   0.011233  37.680520  47.014317     0.32 (  98-> 108)    0.15 ( 106-> 114)    0.13 (  95-> 110)
  27   4.171     297.3   0.011627   0.014139  -60.323400  -75.616175     0.43 ( 107-> 115)    0.29 ( 107-> 119)    0.05 ( 107-> 118)
  28   4.195     295.6   0.017980   0.013744  -66.569969  -54.030908     0.39 ( 104-> 112)    0.19 ( 106-> 114)    0.08 (  95-> 110)
  29   4.214     294.2   0.024078   0.026834  -107.110642  -97.774725     0.60 ( 107-> 119)    0.26 ( 107-> 115)    0.03 (  94-> 109)
  30   4.272     290.3   0.059251   0.049883  35.347129  34.725429     0.42 (  97-> 109)    0.34 ( 100-> 109)    0.07 (  94-> 109)
  31   4.288     289.2   0.035234   0.028952  -44.573415  -40.722918     0.74 ( 104-> 109)    0.08 (  99-> 111)    0.04 ( 106-> 113)
  32   4.305     288.0   0.384251   0.350885  206.987459  195.930782     0.42 (  99-> 111)    0.22 ( 101-> 109)    0.05 ( 104-> 109)
  33   4.310     287.7   0.012524   0.010210  -70.333441  -67.721142     0.26 ( 107-> 114)    0.09 ( 106-> 114)    0.07 ( 107-> 112)
  34   4.328     286.5   0.007926   0.009310  -25.610350  -27.188133     0.21 ( 107-> 114)    0.17 ( 106-> 114)    0.08 (  98-> 108)
  35   4.349     285.1   0.440719   0.416535  168.062912  140.673137     0.34 ( 104-> 112)    0.17 ( 106-> 114)    0.17 (  95-> 110)
  36   4.424     280.2   0.430826   0.376587  -64.111513  -55.806908     0.22 (  91-> 108)    0.20 (  96-> 108)    0.20 (  95-> 110)
  37   4.453     278.4   0.013714   0.013126  -5.437862  -4.636539     0.84 ( 106-> 117)    0.06 ( 106-> 116)    0.02 ( 106-> 120)
  38   4.477     276.9   0.006124   0.005232  44.252804  42.621114     0.68 ( 103-> 108)    0.08 ( 107-> 114)    0.04 (  94-> 109)
  39   4.483     276.6   0.024177   0.019502   8.472036   9.581251     0.31 (  94-> 109)    0.21 ( 100-> 109)    0.09 ( 101-> 111)
  40   4.497     275.7   0.008402   0.007052  27.911587  25.825213     0.21 ( 101-> 111)    0.20 ( 103-> 111)    0.15 (  92-> 111)
  41   4.534     273.5   0.002140   0.001762   0.210408  -0.662853     0.81 ( 106-> 113)    0.07 ( 104-> 109)    0.05 ( 106-> 115)
  42   4.586     270.3   0.041599   0.036393  14.585158  16.606513     0.27 (  98-> 110)    0.16 (  96-> 110)    0.12 (  93-> 110)
  43   4.609     269.0   0.009067   0.007416   5.095701   3.840444     0.63 ( 105-> 112)    0.15 ( 107-> 114)    0.09 ( 103-> 108)
  44   4.627     267.9   0.072045   0.058207  17.787354  14.269758     0.37 (  91-> 108)    0.24 (  93-> 108)    0.10 (  96-> 108)
  45   4.683     264.7   0.056368   0.040813  -36.158915  -34.192306     0.38 (  97-> 109)    0.31 (  94-> 109)    0.17 ( 100-> 109)
  46   4.767     260.1   0.014500   0.012712   2.089427   2.681488     0.43 (  93-> 110)    0.16 (  91-> 110)    0.13 (  98-> 110)
  47   4.911     252.5   0.207849   0.184657  162.332141  164.182024     0.61 ( 107-> 118)    0.15 ( 105-> 115)    0.03 (  97-> 109)
  48   4.966     249.7   0.000025   0.000019  -0.009514  -0.010157     0.99 ( 104-> 111)    0.00 ( 106-> 111)    0.00 ( 102-> 111)
  49   4.994     248.3   0.113980   0.097852  55.788122  61.219252     0.44 ( 103-> 113)    0.19 ( 105-> 115)    0.09 ( 107-> 118)

-----------------------------------------------------------------------------
         ABSORPTION SPECTRUM VIA TRANSITION ELECTRIC DIPOLE MOMENTS
-----------------------------------------------------------------------------
State   Energy  Wavelength   fosc         T2         TX        TY        TZ  
        (cm-1)    (nm)                  (au**2)     (au)      (au)      (au) 
-----------------------------------------------------------------------------
   0   14165.9    705.9   1.913021188  44.45815  -1.07362  -5.67931  -3.32429
   1   15785.7    633.5   0.613134722  12.78700   0.07327  -1.87817  -3.04206
   2   19093.3    523.7   0.002588655   0.04463  -0.08908   0.02919  -0.18933
   3   19531.5    512.0   0.103896638   1.75122  -0.19621   0.05559  -1.30753
   4   20770.4    481.5   0.203633665   3.22761  -0.13699  -1.65908  -0.67549
   5   22240.5    449.6   0.087350390   1.29299   0.40954  -0.12557  -1.05333
   6   23586.7    424.0   0.196178737   2.73817   0.96773  -1.16459   0.66739
   7   23957.8    417.4   0.000821551   0.01129  -0.07759  -0.00100  -0.07258
   8   25697.9    389.1   0.446804240   5.72393   0.13165   2.38856   0.03712
   9   26025.6    384.2   0.142364146   1.80084   0.60353   1.19609   0.07716
  10   26536.9    376.8   0.022630230   0.28075   0.49877  -0.12856   0.12430
  11   26863.6    372.3   0.560503624   6.86894   2.20402  -1.41214   0.13075
  12   26969.6    370.8   0.127941934   1.56176   0.27082   0.33823  -1.17218
  13   27400.1    365.0   0.152226886   1.82901  -0.39430  -0.92949  -0.89977
  14   27672.7    361.4   0.131216342   1.56103  -0.90160   0.47662  -0.72179
  15   28327.6    353.0   0.242430865   2.81743   0.80942   1.20462   0.84331
  16   28515.8    350.7   0.041561738   0.47983   0.38274   0.41460   0.40180
  17   31257.5    319.9   0.265095672   2.79205  -0.11968   0.40170  -1.61752
  18   31315.0    319.3   0.091779595   0.96487  -0.35672  -0.88317  -0.24006
  19   31736.2    315.1   0.019992626   0.20739   0.27170  -0.32684   0.16354
  20   32112.8    311.4   0.000599347   0.00614   0.00237  -0.02336   0.07479
  21   32338.0    309.2   0.009568958   0.09742   0.06183   0.24144   0.18788
  22   32911.5    303.8   0.038594354   0.38606  -0.15530  -0.59592  -0.08253
  23   32976.3    303.2   0.378204683   3.77572  -0.53586  -1.84566  -0.28654
  24   33233.4    300.9   0.071635377   0.70962   0.32907  -0.20698   0.74733
  25   33342.7    299.9   0.454216686   4.48475   0.00651  -0.58802   2.03444
  26   33530.1    298.2   0.009825765   0.09647   0.26404  -0.00735   0.16341
  27   33639.8    297.3   0.011627406   0.11379   0.21493   0.20437  -0.16071
  28   33834.0    295.6   0.017979605   0.17495  -0.03590  -0.41663   0.00880
  29   33992.0    294.2   0.024078453   0.23320  -0.13666  -0.26508   0.37982
  30   34452.9    290.3   0.059251331   0.56617   0.34299   0.66971  -0.00405
  31   34582.3    289.2   0.035234398   0.33542   0.13740   0.55237   0.10690
  32   34719.8    288.0   0.384250637   3.64346   1.12313   1.45383   0.51807
  33   34764.0    287.7   0.012523942   0.11860   0.10400  -0.31440   0.09455
  34   34904.0    286.5   0.007926390   0.07476   0.06032   0.20744   0.16761
  35   35081.0    285.1   0.440718672   4.13586   1.82211   0.05538   0.90151
  36   35685.5    280.2   0.430826316   3.97453   1.48388  -1.19883   0.57917
  37   35919.1    278.4   0.013714304   0.12570  -0.24313  -0.13414  -0.22044
  38   36108.3    276.9   0.006123858   0.05583   0.22237  -0.05241  -0.06031
  39   36157.4    276.6   0.024177092   0.22013  -0.15817  -0.30988   0.31479
  40   36267.7    275.7   0.008401947   0.07627   0.08614   0.16358  -0.20516
  41   36568.9    273.5   0.002139673   0.01926   0.10007   0.04440   0.08531
  42   36989.9    270.3   0.041598680   0.37023   0.41845  -0.25474   0.36089
  43   37175.6    269.0   0.009066531   0.08029   0.24379   0.02467   0.14230
  44   37320.5    267.9   0.072044783   0.63552  -0.60297  -0.01002  -0.52139
  45   37774.2    264.7   0.056367736   0.49126  -0.23349  -0.28134   0.59799
  46   38447.8    260.1   0.014499815   0.12416   0.34482   0.05316  -0.04929
  47   39610.1    252.5   0.207848895   1.72750  -0.74534  -1.06946   0.16796
  48   40055.6    249.7   0.000024575   0.00020   0.00320   0.01278   0.00534
  49   40281.4    248.3   0.113980261   0.93154  -0.45164  -0.76179  -0.38371

-----------------------------------------------------------------------------
         ABSORPTION SPECTRUM VIA TRANSITION VELOCITY DIPOLE MOMENTS
-----------------------------------------------------------------------------
State   Energy  Wavelength   fosc         P2         PX        PY        PZ  
        (cm-1)    (nm)                  (au**2)     (au)      (au)      (au) 
-----------------------------------------------------------------------------
   0   14165.9    705.9   2.571629319   0.24898  -0.08000  -0.42380  -0.25094
   1   15785.7    633.5   0.779330092   0.08408   0.00328  -0.14995  -0.24816
   2   19093.3    523.7   0.003197055   0.00042  -0.00808   0.00109  -0.01873
   3   19531.5    512.0   0.120198269   0.01605  -0.01820   0.00770  -0.12512
   4   20770.4    481.5   0.223371917   0.03171  -0.01367  -0.16466  -0.06640
   5   22240.5    449.6   0.110241894   0.01676   0.04378  -0.02201  -0.11981
   6   23586.7    424.0   0.208679262   0.03364   0.10921  -0.12563   0.07700
   7   23957.8    417.4   0.000889881   0.00015  -0.00869  -0.00042  -0.00836
   8   25697.9    389.1   0.491647743   0.08635   0.01821   0.29322   0.00637
   9   26025.6    384.2   0.159581693   0.02839   0.07480   0.15054   0.01132
  10   26536.9    376.8   0.024060814   0.00436   0.06267  -0.01458   0.01495
  11   26863.6    372.3   0.604373380   0.11096   0.28005  -0.17971   0.01540
  12   26969.6    370.8   0.132558357   0.02443   0.03467   0.04092  -0.14682
  13   27400.1    365.0   0.163663061   0.03065  -0.05185  -0.12220  -0.11413
  14   27672.7    361.4   0.134701385   0.02548  -0.11538   0.05888  -0.09326
  15   28327.6    353.0   0.243318110   0.04711   0.10328   0.15531   0.11099
  16   28515.8    350.7   0.042741122   0.00833   0.04936   0.05487   0.05369
  17   31257.5    319.9   0.248530395   0.05309  -0.01628   0.05487  -0.22320
  18   31315.0    319.3   0.083151966   0.01780  -0.04651  -0.12034  -0.03393
  19   31736.2    315.1   0.016422213   0.00356   0.03284  -0.04284   0.02546
  20   32112.8    311.4   0.000522345   0.00011   0.00039  -0.00309   0.01024
  21   32338.0    309.2   0.007284133   0.00161   0.00564   0.02732   0.02884
  22   32911.5    303.8   0.035774675   0.00805  -0.02194  -0.08617  -0.01183
  23   32976.3    303.2   0.348014742   0.07843  -0.07573  -0.26650  -0.04099
  24   33233.4    300.9   0.064427696   0.01463   0.04980  -0.02831   0.10655
  25   33342.7    299.9   0.429498926   0.09787  -0.00225  -0.08861   0.30003
  26   33530.1    298.2   0.011232986   0.00257   0.04064   0.00282   0.03024
  27   33639.8    297.3   0.014139289   0.00325   0.03545   0.03125  -0.03190
  28   33834.0    295.6   0.013743918   0.00318  -0.00501  -0.05561   0.00777
  29   33992.0    294.2   0.026833853   0.00623  -0.02474  -0.03940   0.06379
  30   34452.9    290.3   0.049882712   0.01175   0.04998   0.09617  -0.00037
  31   34582.3    289.2   0.028951761   0.00684   0.01893   0.07903   0.01544
  32   34719.8    288.0   0.350885313   0.08326   0.16932   0.22016   0.07825
  33   34764.0    287.7   0.010209715   0.00243   0.01720  -0.04324   0.01613
  34   34904.0    286.5   0.009310073   0.00222   0.00963   0.03655   0.02815
  35   35081.0    285.1   0.416534855   0.09987   0.28427   0.00861   0.13779
  36   35685.5    280.2   0.376587235   0.09185   0.22476  -0.18295   0.08864
  37   35919.1    278.4   0.013125982   0.00322  -0.03850  -0.02141  -0.03580
  38   36108.3    276.9   0.005231994   0.00129   0.03395  -0.00872  -0.00790
  39   36157.4    276.6   0.019502282   0.00482  -0.02411  -0.04675   0.04531
  40   36267.7    275.7   0.007052245   0.00175   0.01260   0.02294  -0.03260
  41   36568.9    273.5   0.001762422   0.00044   0.01598   0.00345   0.01316
  42   36989.9    270.3   0.036393357   0.00920   0.06619  -0.03886   0.05752
  43   37175.6    269.0   0.007416492   0.00188   0.03762   0.00315   0.02143
  44   37320.5    267.9   0.058207206   0.01485  -0.09211   0.00056  -0.07976
  45   37774.2    264.7   0.040812646   0.01054  -0.03435  -0.04389   0.08620
  46   38447.8    260.1   0.012711508   0.00334   0.05644   0.01046  -0.00675
  47   39610.1    252.5   0.184656678   0.04999  -0.12918  -0.18001   0.02997
  48   40055.6    249.7   0.000019374   0.00001   0.00046   0.00214   0.00072
  49   40281.4    248.3   0.097851832   0.02694  -0.07673  -0.12808  -0.06817

-------------------------------------------------------------------
                             CD SPECTRUM
-------------------------------------------------------------------
State   Energy Wavelength       R         MX        MY        MZ   
        (cm-1)   (nm)       (1e40*cgs)   (au)      (au)      (au)  
-------------------------------------------------------------------
   0   14165.9    705.9    675.46808  -7.35488   3.96475  -3.53615
   1   15785.7    633.5    -547.68487  -1.13373   6.87091  -5.03317
   2   19093.3    523.7     -5.10758  -0.22739   0.41049   0.05583
   3   19531.5    512.0    -32.19487  -8.45375   2.07464   1.25236
   4   20770.4    481.5    151.04492  -0.68600   1.91421  -3.61382
   5   22240.5    449.6    -279.72905  -4.64171   2.58081  -3.23899
   6   23586.7    424.0    202.25399   1.54280  -0.72527  -4.78834
   7   23957.8    417.4     -1.64388  -0.20122   0.13461   0.11718
   8   25697.9    389.1     90.04795  -1.67199  -0.10051   2.10632
   9   26025.6    384.2    -39.82419  -0.33610   0.38490  -1.14793
  10   26536.9    376.8    -36.54481   1.02003   0.41022  -2.42153
  11   26863.6    372.3    -536.07210   3.38520   2.58585 -11.74243
  12   26969.6    370.8    357.97448 -10.37112   3.20368  -0.17620
  13   27400.1    365.0     34.24710  -4.41940   1.04590   1.01769
  14   27672.7    361.4     51.05729  -0.82977   2.09941   2.72287
  15   28327.6    353.0    -25.73541   2.27594  -2.38402   1.35044
  16   28515.8    350.7     -1.76816   0.98293  -1.17182   0.29151
  17   31257.5    319.9    -12.41881 -16.47785   4.53323   2.31241
  18   31315.0    319.3    -51.11042  -1.28391   0.46302  -0.69885
  19   31736.2    315.1      0.77571   0.46944  -0.21778  -1.23524
  20   32112.8    311.4      0.48382   0.76502  -0.21625  -0.11925
  21   32338.0    309.2     -1.40838   2.40766  -0.84891   0.33037
  22   32911.5    303.8     21.93494  -0.37169   0.43552  -1.31773
  23   32976.3    303.2    191.48664  -1.35596   1.42304  -3.79531
  24   33233.4    300.9    -52.79169   9.23419  -1.45589  -4.16960
  25   33342.7    299.9    -213.68871  19.73836  -5.73554  -1.27530
  26   33530.1    298.2     37.68052   0.09821  -0.01958  -1.13782
  27   33639.8    297.3    -60.32340  -0.84091   0.82492  -1.66796
  28   33834.0    295.6    -66.56997  -0.61193  -0.63309  -0.37760
  29   33992.0    294.2    -107.11064   2.77953  -1.38751   1.22806
  30   34452.9    290.3     35.34713  -1.97286   0.78186  -0.76691
  31   34582.3    289.2    -44.57342  -0.41438   0.63361  -0.97252
  32   34719.8    288.0    206.98746  -0.54852   1.65412  -5.14768
  33   34764.0    287.7    -70.33344   1.36062  -0.44782   0.17008
  34   34904.0    286.5    -25.61035   1.14701   0.39601  -0.25470
  35   35081.0    285.1    168.06291   2.40217  -1.92437  -5.52787
  36   35685.5    280.2    -64.11151   0.78515  -2.42796  -6.56766
  37   35919.1    278.4     -5.43786  -0.74092   0.54361   0.38172
  38   36108.3    276.9     44.25280  -1.05265   0.04532  -0.80791
  39   36157.4    276.6      8.47204   2.96065  -1.13603   0.25519
  40   36267.7    275.7     27.91159  -1.20718   0.19931   0.22921
  41   36568.9    273.5      0.21041   0.38092  -0.11760  -0.39608
  42   36989.9    270.3     14.58516   0.66034  -0.96879  -1.62092
  43   37175.6    269.0      5.09570   0.48495  -0.09296  -0.96662
  44   37320.5    267.9     17.78735  -1.88027   0.70938   2.30556
  45   37774.2    264.7    -36.15892   4.45910  -1.77603   1.16203
  46   38447.8    260.1      2.08943  -0.11353   0.08370  -0.52415
  47   39610.1    252.5    162.33214   3.94796  -1.65520   2.88028
  48   40055.6    249.7     -0.00951  -0.00241   0.00600  -0.00536
  49   40281.4    248.3     55.78812  -0.94476  -0.31803   2.36020

sTD-DFT done

Total run time:        5.071 sec

           *** ORCA-CIS/TD-DFT FINISHED WITHOUT ERROR ***

-------------------------   --------------------
FINAL SINGLE POINT ENERGY     -5413.118422547245
-------------------------   --------------------


                            ***************************************
                            *     ORCA property calculations      *
                            ***************************************

                                    ---------------------
                                    Active property flags
                                    ---------------------
   (+) Dipole Moment


------------------------------------------------------------------------------
                       ORCA ELECTRIC PROPERTIES CALCULATION
------------------------------------------------------------------------------

Dipole Moment Calculation                       ... on
Quadrupole Moment Calculation                   ... off
Polarizability Calculation                      ... off
GBWName                                         ... xtbopt.gbw
Electron density file                           ... xtbopt.scfp
The origin for moment calculation is the CENTER OF MASS  = (-18.169251, -36.461241 -8.402112)

-------------
DIPOLE MOMENT
-------------
                                X             Y             Z
Electronic contribution:    -21.86545       2.57439       2.13483
Nuclear contribution   :     22.52669       0.11709      -1.97503
                        -----------------------------------------
Total Dipole Moment    :      0.66124       2.69148       0.15980
                        -----------------------------------------
Magnitude (a.u.)       :      2.77612
Magnitude (Debye)      :      7.05632



--------------------
Rotational spectrum 
--------------------
 
Rotational constants in cm-1:     0.001577     0.000097     0.000096 
Rotational constants in MHz :    47.286627     2.921222     2.873668 

 Dipole components along the rotational axes: 
x,y,z [a.u.] :    -2.535646    -0.324086     1.082722 
x,y,z [Debye]:    -6.445099    -0.823760     2.752060 

 

Timings for individual modules:

Sum of individual times         ...      722.445 sec (=  12.041 min)
GTO integral calculation        ...        3.549 sec (=   0.059 min)   0.5 %
SCF iterations                  ...      713.017 sec (=  11.884 min)  98.7 %
CIS module                      ...        5.879 sec (=   0.098 min)   0.8 %
                             ****ORCA TERMINATED NORMALLY****
TOTAL RUN TIME: 0 days 0 hours 12 minutes 3 seconds 566 msec
