
                                 *****************
                                 * O   R   C   A *
                                 *****************

           --- An Ab Initio, DFT and Semiempirical electronic structure package ---

                  #######################################################
                  #                        -***-                        #
                  #          Department of theory and spectroscopy      #
                  #               Directorship: Frank Neese             #
                  #        Max Planck Institute fuer Kohlenforschung    #
                  #                Kaiser Wilhelm Platz 1               #
                  #                 D-45470 Muelheim/Ruhr               #
                  #                      Germany                        #
                  #                                                     #
                  #                  All rights reserved                #
                  #                        -***-                        #
                  #######################################################


                         Program Version 4.2.0 -  RELEASE  -


 With contributions from (in alphabetic order):
   Daniel Aravena         : Magnetic Suceptibility
   Michael Atanasov       : Ab Initio Ligand Field Theory (pilot matlab implementation)
   Alexander A. Auer      : GIAO ZORA, VPT2
   Ute Becker             : Parallelization
   Giovanni Bistoni       : ED, misc. LED, open-shell LED, HFLED
   Martin Brehm           : Molecular dynamics
   Dmytro Bykov           : SCF Hessian
   Vijay G. Chilkuri      : MRCI spin determinant printing, contributions to CSF-ICE
   Dipayan Datta          : RHF DLPNO-CCSD density
   Achintya Kumar Dutta   : EOM-CC, STEOM-CC
   Dmitry Ganyushin       : Spin-Orbit,Spin-Spin,Magnetic field MRCI
   Miquel Garcia          : C-PCM Hessian, Gaussian charge scheme
   Yang Guo               : DLPNO-NEVPT2, CIM, IAO-localization
   Andreas Hansen         : Spin unrestricted coupled pair/coupled cluster methods
   Benjamin Helmich-Paris : CASSCF linear response (MC-RPA)
   Lee Huntington         : MR-EOM, pCC
   Robert Izsak           : Overlap fitted RIJCOSX, COSX-SCS-MP3, EOM
   Christian Kollmar      : KDIIS, OOCD, Brueckner-CCSD(T), CCSD density
   Simone Kossmann        : Meta GGA functionals, TD-DFT gradient, OOMP2, MP2 Hessian
   Martin Krupicka        : AUTO-CI
   Lucas Lang             : DCDCAS
   Dagmar Lenk            : GEPOL surface, SMD
   Dimitrios Liakos       : Extrapolation schemes; Compound Job, initial MDCI parallelization
   Dimitrios Manganas     : Further ROCIS development; embedding schemes
   Dimitrios Pantazis     : SARC Basis sets
   Taras Petrenko         : DFT Hessian,TD-DFT gradient, ASA, ECA, R-Raman, ABS, FL, XAS/XES, NRVS
   Peter Pinski           : DLPNO-MP2, DLPNO-MP2 Gradient
   Christoph Reimann      : Effective Core Potentials
   Marius Retegan         : Local ZFS, SOC
   Christoph Riplinger    : Optimizer, TS searches, QM/MM, DLPNO-CCSD(T), (RO)-DLPNO pert. Triples
   Tobias Risthaus        : Range-separated hybrids, TD-DFT gradient, RPA, STAB
   Michael Roemelt        : Original ROCIS implementation
   Masaaki Saitow         : Open-shell DLPNO-CCSD energy and density
   Barbara Sandhoefer     : DKH picture change effects
   Avijit Sen             : IP-ROCIS
   Kantharuban Sivalingam : CASSCF convergence, NEVPT2, FIC-MRCI
   Bernardo de Souza      : ESD, SOC TD-DFT
   Georgi Stoychev        : AutoAux, RI-MP2 NMR
   Willem Van den Heuvel  : Paramagnetic NMR
   Boris Wezisla          : Elementary symmetry handling
   Frank Wennmohs         : Technical directorship


 We gratefully acknowledge several colleagues who have allowed us to
 interface, adapt or use parts of their codes:
   Stefan Grimme, W. Hujo, H. Kruse,             : VdW corrections, initial TS optimization,
                  C. Bannwarth                     DFT functionals, gCP, sTDA/sTD-DF
   Ed Valeev, F. Pavosevic, A. Kumar             : LibInt (2-el integral package), F12 methods
   Garnet Chan, S. Sharma, J. Yang, R. Olivares  : DMRG
   Ulf Ekstrom                                   : XCFun DFT Library
   Mihaly Kallay                                 : mrcc  (arbitrary order and MRCC methods)
   Andreas Klamt, Michael Diedenhofen            : otool_cosmo (COSMO solvation model)
   Jiri Pittner, Ondrej Demel                    : Mk-CCSD
   Frank Weinhold                                : gennbo (NPA and NBO analysis)
   Christopher J. Cramer and Donald G. Truhlar   : smd solvation model
   Lars Goerigk                                  : TD-DFT with DH, B97 family of functionals
   V. Asgeirsson, H. Jonsson                     : NEB implementation
   FAccTs GmbH                                   : IRC, NEB, NEB-TS, Multilevel, MM, QM/MM, CI optimization
   S Lehtola, MJT Oliveira, MAL Marques          : LibXC Library


 Your calculation uses the libint2 library for the computation of 2-el integrals
 For citations please refer to: http://libint.valeyev.net

 Your ORCA version has been built with support for libXC version: 4.2.3
 For citations please refer to: https://tddft.org/programs/libxc/

 This ORCA versions uses:
   CBLAS   interface :  Fast vector & matrix operations
   LAPACKE interface :  Fast linear algebra routines
   SCALAPACK package :  Parallel linear algebra routines


XCFun DFT library Copyright 2009-2010 Ulf Ekstrom and contributors.
See http://admol.org/xcfun for more information. This is free soft-
ware; see the source code for copying conditions. There is ABSOLUTELY
NO WARRANTY; not even for MERCHANTABILITY or FITNESS FOR A PARTICULAR
PURPOSE. For details see the documentation. Scientific users of this 
library should cite U. Ekstrom, L. Visscher, R. Bast, A. J. Thorvald-
sen and K. Ruud; J.Chem.Theor.Comp. 2010, DOI: 10.1021/ct100117s
XCFun Version 0.99 
----- Orbital basis set information -----
Your calculation utilizes the basis: def2-SVP
   F. Weigend and R. Ahlrichs, Phys. Chem. Chem. Phys. 7, 3297 (2005).

----- AuxJ basis set information -----
Your calculation utilizes the auxiliary basis: def2/J
   F. Weigend, Phys. Chem. Chem. Phys. 8, 1057 (2006).

================================================================================
                                        WARNINGS
                       Please study these warnings very carefully!
================================================================================

INFO   : Checking CIS options ...

WARNING: CIS/ROCIS methods need fully converged wavefunctions
  ===> : Setting SCFConvForced true
         You can overwrite this default with %scf ConvForced false 


INFO   : the flag for use of LIBINT has been found!

================================================================================
                                       INPUT FILE
================================================================================
NAME = xtbopt.inp
|  1> # ORCA input file
|  2> # SCF done       -214.646012184212          0.000682012933
|  3> ! CAM-B3LYP def2-SVP def2/J RIJCOSX Grid4 TightSCF
|  4> %maxcore 5000
|  5> %tddft
|  6>     Mode sTDDFT
|  7>     Ethresh 5.0
|  8>     maxcore 5000
|  9> end
| 10> 
| 11> %pal
| 12>   nprocs 6
| 13>   end
| 14> * xyz 0 1
| 15>    C        2.37152        -2.28732        -1.31037
| 16>    C        1.74684        -2.37961        -0.09661
| 17>    C        2.32803        -1.95973         1.11825
| 18>    N        2.76900        -1.65354         2.13228
| 19>    C        0.41638        -2.81911         0.07128
| 20>    N       -0.67948        -3.09870         0.26477
| 21>    C        3.62317        -1.58008        -1.56843
| 22>    C        3.70162        -1.27908        -2.94111
| 23>    C        4.76370        -0.57199        -3.46739
| 24>    C        5.77654        -0.16536        -2.60776
| 25>    C        5.71209        -0.47337        -1.24321
| 26>    C        4.63603        -1.17705        -0.71406
| 27>   Cl        6.97941         0.02217        -0.19701
| 28>   Cl        7.11379         0.71688        -3.22473
| 29>    C        2.52570        -1.84203        -3.64021
| 30>    O        2.23321        -1.73677        -4.80728
| 31>    C        1.79950        -2.62475        -2.60180
| 32>    C        0.85780        -3.52548        -2.97165
| 33>    C        0.29442        -4.60480        -2.20485
| 34>    C       -1.02956        -4.99748        -2.45274
| 35>    C       -1.57943        -6.01219        -1.71117
| 36>    C       -0.81080        -6.69676        -0.75277
| 37>    C        0.51650        -6.35047        -0.53830
| 38>    C        1.05353        -5.30055        -1.25286
| 39>    C       -1.63959        -7.71303        -0.13938
| 40>    C       -2.92066        -7.64829        -0.71583
| 41>    C       -2.98313        -6.56391        -1.76389
| 42>    C       -4.02036        -5.48618        -1.39633
| 43>    C       -3.77380        -4.86852        -0.02524
| 44>    C       -3.30648        -7.15038        -3.15150
| 45>    C       -2.26344        -8.15559        -3.62278
| 46>    C       -3.91869        -8.49455        -0.30051
| 47>    C       -3.64306        -9.43849         0.69485
| 48>    C       -2.37347        -9.48945         1.27029
| 49>    C       -1.36618        -8.63628         0.85781
| 50>    C       -4.71339       -10.32610         1.17074
| 51>    S       -4.85080       -10.28403         2.93849
| 52>    C       -5.64011       -11.81519         3.29249
| 53>    C       -5.46656       -12.48961         4.46010
| 54>    S       -6.42235       -13.91811         4.52920
| 55>    C       -7.04591       -13.61706         2.95444
| 56>    C       -6.55342       -12.46708         2.42239
| 57>    S       -7.02399       -11.85313         0.84736
| 58>    C       -5.54000       -10.98943         0.33954
| 59>    C       -5.35663       -11.07677        -1.09393
| 60>    C       -4.16931       -11.20514        -1.70420
| 61>    C       -3.94832       -11.23231        -3.13367
| 62>    C       -2.71574       -11.69903        -3.61475
| 63>    C       -2.45186       -11.67520        -4.96307
| 64>    C       -3.43062       -11.21430        -5.86306
| 65>    C       -4.65564       -10.75324        -5.40026
| 66>    C       -4.90137       -10.75832        -4.04325
| 67>    C       -2.92699       -11.35474        -7.20957
| 68>    C       -1.63778       -11.91567        -7.14579
| 69>    C       -1.20741       -12.10537        -5.70614
| 70>    C       -0.02357       -11.13880        -5.46299
| 71>    C        0.47638       -11.04036        -4.02800
| 72>    C       -0.82577       -13.56182        -5.40249
| 73>    C       -1.94154       -14.53958        -5.75365
| 74>    C       -0.94334       -12.18713        -8.29541
| 75>    C       -1.50861       -11.85977        -9.54294
| 76>    C       -2.80166       -11.31799        -9.59099
| 77>    C       -3.51336       -11.07189        -8.43626
| 78>    C       -0.75017       -12.15780       -10.72420
| 79>    C       -0.74342       -11.50103       -11.91673
| 80>    C       -0.01589       -11.93163       -13.10134
| 81>    C        0.49781       -13.17902       -13.33452
| 82>    C        1.17090       -13.54791       -14.51923
| 83>    N        1.73040       -13.90968       -15.45350
| 84>    C        0.40939       -14.27670       -12.45088
| 85>    N        0.36325       -15.22181       -11.80028
| 86>    C       -0.00217       -10.81892       -14.04461
| 87>    C       -0.73888        -9.75439       -13.49933
| 88>    C       -1.26214       -10.12977       -12.16667
| 89>    O       -1.91148        -9.41926       -11.43388
| 90>    C       -0.89924        -8.55958       -14.17110
| 91>    C       -0.31257        -8.42373       -15.42268
| 92>    C        0.42440        -9.47877       -15.97398
| 93>    C        0.58526       -10.67954       -15.29229
| 94>   Cl        1.14971        -9.29518       -17.51943
| 95>   Cl       -0.49228        -6.95550       -16.29412
| 96>    H        4.80323        -0.34116        -4.52020
| 97>    H        4.61784        -1.40042         0.34037
| 98>    H        0.52814        -3.44722        -4.00353
| 99>    H       -1.60987        -4.46628        -3.19242
|100>    H        1.11861        -6.88649         0.17963
|101>    H        2.09014        -5.03005        -1.10940
|102>    H       -5.01331        -5.94066        -1.42074
|103>    H       -3.99275        -4.70307        -2.15664
|104>    H       -3.81254        -5.62888         0.75183
|105>    H       -4.53656        -4.12324         0.18701
|106>    H       -2.80163        -4.38428         0.01430
|107>    H       -3.37577        -6.33362        -3.87246
|108>    H       -4.28088        -7.64067        -3.10464
|109>    H       -1.29151        -7.68101        -3.73879
|110>    H       -2.55775        -8.58203        -4.57886
|111>    H       -2.16824        -8.96587        -2.90380
|112>    H       -4.91160        -8.43665        -0.71991
|113>    H       -2.17748       -10.21552         2.04573
|114>    H       -0.38823        -8.68941         1.31167
|115>    H       -4.84570       -12.21314         5.28759
|116>    H       -7.75357       -14.28929         2.51407
|117>    H       -6.27594       -11.11076        -1.66351
|118>    H       -3.27858       -11.29073        -1.09447
|119>    H       -1.99422       -12.08603        -2.91058
|120>    H       -5.40281       -10.39292        -6.09128
|121>    H       -5.84259       -10.38008        -3.67536
|122>    H       -0.33042       -10.14318        -5.79429
|123>    H        0.80031       -11.46020        -6.10423
|124>    H       -0.28711       -10.62369        -3.37761
|125>    H        1.34048       -10.38013        -3.99503
|126>    H        0.78068       -12.01091        -3.64558
|127>    H       -0.59315       -13.65587        -4.34112
|128>    H        0.07276       -13.81661        -5.96809
|129>    H       -2.84219       -14.31285        -5.18687
|130>    H       -1.63483       -15.55645        -5.52040
|131>    H       -2.18130       -14.48808        -6.81336
|132>    H        0.04345       -12.62629        -8.26195
|133>    H       -3.25854       -11.12705       -10.54741
|134>    H       -4.51216       -10.66659        -8.48840
|135>    H       -0.07017       -12.99572       -10.61808
|136>    H       -1.46780        -7.75491       -13.73228
|137>    H        1.16430       -11.46724       -15.74560
|138> *
|139> 
|140>                          ****END OF INPUT****
================================================================================

                       ****************************
                       * Single Point Calculation *
                       ****************************

---------------------------------
CARTESIAN COORDINATES (ANGSTROEM)
---------------------------------
  C      2.371520   -2.287320   -1.310370
  C      1.746840   -2.379610   -0.096610
  C      2.328030   -1.959730    1.118250
  N      2.769000   -1.653540    2.132280
  C      0.416380   -2.819110    0.071280
  N     -0.679480   -3.098700    0.264770
  C      3.623170   -1.580080   -1.568430
  C      3.701620   -1.279080   -2.941110
  C      4.763700   -0.571990   -3.467390
  C      5.776540   -0.165360   -2.607760
  C      5.712090   -0.473370   -1.243210
  C      4.636030   -1.177050   -0.714060
  Cl     6.979410    0.022170   -0.197010
  Cl     7.113790    0.716880   -3.224730
  C      2.525700   -1.842030   -3.640210
  O      2.233210   -1.736770   -4.807280
  C      1.799500   -2.624750   -2.601800
  C      0.857800   -3.525480   -2.971650
  C      0.294420   -4.604800   -2.204850
  C     -1.029560   -4.997480   -2.452740
  C     -1.579430   -6.012190   -1.711170
  C     -0.810800   -6.696760   -0.752770
  C      0.516500   -6.350470   -0.538300
  C      1.053530   -5.300550   -1.252860
  C     -1.639590   -7.713030   -0.139380
  C     -2.920660   -7.648290   -0.715830
  C     -2.983130   -6.563910   -1.763890
  C     -4.020360   -5.486180   -1.396330
  C     -3.773800   -4.868520   -0.025240
  C     -3.306480   -7.150380   -3.151500
  C     -2.263440   -8.155590   -3.622780
  C     -3.918690   -8.494550   -0.300510
  C     -3.643060   -9.438490    0.694850
  C     -2.373470   -9.489450    1.270290
  C     -1.366180   -8.636280    0.857810
  C     -4.713390  -10.326100    1.170740
  S     -4.850800  -10.284030    2.938490
  C     -5.640110  -11.815190    3.292490
  C     -5.466560  -12.489610    4.460100
  S     -6.422350  -13.918110    4.529200
  C     -7.045910  -13.617060    2.954440
  C     -6.553420  -12.467080    2.422390
  S     -7.023990  -11.853130    0.847360
  C     -5.540000  -10.989430    0.339540
  C     -5.356630  -11.076770   -1.093930
  C     -4.169310  -11.205140   -1.704200
  C     -3.948320  -11.232310   -3.133670
  C     -2.715740  -11.699030   -3.614750
  C     -2.451860  -11.675200   -4.963070
  C     -3.430620  -11.214300   -5.863060
  C     -4.655640  -10.753240   -5.400260
  C     -4.901370  -10.758320   -4.043250
  C     -2.926990  -11.354740   -7.209570
  C     -1.637780  -11.915670   -7.145790
  C     -1.207410  -12.105370   -5.706140
  C     -0.023570  -11.138800   -5.462990
  C      0.476380  -11.040360   -4.028000
  C     -0.825770  -13.561820   -5.402490
  C     -1.941540  -14.539580   -5.753650
  C     -0.943340  -12.187130   -8.295410
  C     -1.508610  -11.859770   -9.542940
  C     -2.801660  -11.317990   -9.590990
  C     -3.513360  -11.071890   -8.436260
  C     -0.750170  -12.157800  -10.724200
  C     -0.743420  -11.501030  -11.916730
  C     -0.015890  -11.931630  -13.101340
  C      0.497810  -13.179020  -13.334520
  C      1.170900  -13.547910  -14.519230
  N      1.730400  -13.909680  -15.453500
  C      0.409390  -14.276700  -12.450880
  N      0.363250  -15.221810  -11.800280
  C     -0.002170  -10.818920  -14.044610
  C     -0.738880   -9.754390  -13.499330
  C     -1.262140  -10.129770  -12.166670
  O     -1.911480   -9.419260  -11.433880
  C     -0.899240   -8.559580  -14.171100
  C     -0.312570   -8.423730  -15.422680
  C      0.424400   -9.478770  -15.973980
  C      0.585260  -10.679540  -15.292290
  Cl     1.149710   -9.295180  -17.519430
  Cl    -0.492280   -6.955500  -16.294120
  H      4.803230   -0.341160   -4.520200
  H      4.617840   -1.400420    0.340370
  H      0.528140   -3.447220   -4.003530
  H     -1.609870   -4.466280   -3.192420
  H      1.118610   -6.886490    0.179630
  H      2.090140   -5.030050   -1.109400
  H     -5.013310   -5.940660   -1.420740
  H     -3.992750   -4.703070   -2.156640
  H     -3.812540   -5.628880    0.751830
  H     -4.536560   -4.123240    0.187010
  H     -2.801630   -4.384280    0.014300
  H     -3.375770   -6.333620   -3.872460
  H     -4.280880   -7.640670   -3.104640
  H     -1.291510   -7.681010   -3.738790
  H     -2.557750   -8.582030   -4.578860
  H     -2.168240   -8.965870   -2.903800
  H     -4.911600   -8.436650   -0.719910
  H     -2.177480  -10.215520    2.045730
  H     -0.388230   -8.689410    1.311670
  H     -4.845700  -12.213140    5.287590
  H     -7.753570  -14.289290    2.514070
  H     -6.275940  -11.110760   -1.663510
  H     -3.278580  -11.290730   -1.094470
  H     -1.994220  -12.086030   -2.910580
  H     -5.402810  -10.392920   -6.091280
  H     -5.842590  -10.380080   -3.675360
  H     -0.330420  -10.143180   -5.794290
  H      0.800310  -11.460200   -6.104230
  H     -0.287110  -10.623690   -3.377610
  H      1.340480  -10.380130   -3.995030
  H      0.780680  -12.010910   -3.645580
  H     -0.593150  -13.655870   -4.341120
  H      0.072760  -13.816610   -5.968090
  H     -2.842190  -14.312850   -5.186870
  H     -1.634830  -15.556450   -5.520400
  H     -2.181300  -14.488080   -6.813360
  H      0.043450  -12.626290   -8.261950
  H     -3.258540  -11.127050  -10.547410
  H     -4.512160  -10.666590   -8.488400
  H     -0.070170  -12.995720  -10.618080
  H     -1.467800   -7.754910  -13.732280
  H      1.164300  -11.467240  -15.745600

----------------------------
CARTESIAN COORDINATES (A.U.)
----------------------------
  NO LB      ZA    FRAG     MASS         X           Y           Z
   0 C     6.0000    0    12.011    4.481523   -4.322408   -2.476240
   1 C     6.0000    0    12.011    3.301049   -4.496811   -0.182566
   2 C     6.0000    0    12.011    4.399339   -3.703353    2.113186
   3 N     7.0000    0    14.007    5.232652   -3.124738    4.029425
   4 C     6.0000    0    12.011    0.786844   -5.327346    0.134700
   5 N     7.0000    0    14.007   -1.284031   -5.855694    0.500343
   6 C     6.0000    0    12.011    6.846799   -2.985918   -2.963903
   7 C     6.0000    0    12.011    6.995048   -2.417111   -5.557892
   8 C     6.0000    0    12.011    9.002088   -1.080904   -6.552417
   9 C     6.0000    0    12.011   10.916079   -0.312485   -4.927952
  10 C     6.0000    0    12.011   10.794286   -0.894540   -2.349326
  11 C     6.0000    0    12.011    8.760827   -2.224302   -1.349378
  12 Cl   17.0000    0    35.453   13.189173    0.041895   -0.372295
  13 Cl   17.0000    0    35.453   13.443115    1.354707   -6.093857
  14 C     6.0000    0    12.011    4.772881   -3.480932   -6.879000
  15 O     8.0000    0    15.999    4.220155   -3.282020   -9.084443
  16 C     6.0000    0    12.011    3.400562   -4.960059   -4.916689
  17 C     6.0000    0    12.011    1.621007   -6.662192   -5.615605
  18 C     6.0000    0    12.011    0.556373   -8.701811   -4.166563
  19 C     6.0000    0    12.011   -1.945586   -9.443869   -4.635007
  20 C     6.0000    0    12.011   -2.984690  -11.361393   -3.233643
  21 C     6.0000    0    12.011   -1.532190  -12.655042   -1.422529
  22 C     6.0000    0    12.011    0.976044  -12.000649   -1.017240
  23 C     6.0000    0    12.011    1.990883  -10.016588   -2.367562
  24 C     6.0000    0    12.011   -3.098376  -14.575514   -0.263390
  25 C     6.0000    0    12.011   -5.519248  -14.453173   -1.352723
  26 C     6.0000    0    12.011   -5.637299  -12.403992   -3.333269
  27 C     6.0000    0    12.011   -7.597379  -10.367378   -2.638681
  28 C     6.0000    0    12.011   -7.131448   -9.200169   -0.047697
  29 C     6.0000    0    12.011   -6.248342  -13.512260   -5.955472
  30 C     6.0000    0    12.011   -4.277282  -15.411832   -6.846062
  31 C     6.0000    0    12.011   -7.405251  -16.052373   -0.567882
  32 C     6.0000    0    12.011   -6.884386  -17.836161    1.313076
  33 C     6.0000    0    12.011   -4.485208  -17.932462    2.400500
  34 C     6.0000    0    12.011   -2.581706  -16.320204    1.621026
  35 C     6.0000    0    12.011   -8.907016  -19.513501    2.212378
  36 S    16.0000    0    32.060   -9.166684  -19.434000    5.552941
  37 C     6.0000    0    12.011  -10.658263  -22.327473    6.221904
  38 C     6.0000    0    12.011  -10.330301  -23.601942    8.428368
  39 S    16.0000    0    32.060  -12.136483  -26.301416    8.558948
  40 C     6.0000    0    12.011  -13.314840  -25.732514    5.583082
  41 C     6.0000    0    12.011  -12.384169  -23.559367    4.577654
  42 S    16.0000    0    32.060  -13.273417  -22.399170    1.601278
  43 C     6.0000    0    12.011  -10.469083  -20.767013    0.641638
  44 C     6.0000    0    12.011  -10.122564  -20.932062   -2.067228
  45 C     6.0000    0    12.011   -7.878854  -21.174646   -3.220471
  46 C     6.0000    0    12.011   -7.461243  -21.225990   -5.921778
  47 C     6.0000    0    12.011   -5.132005  -22.107963   -6.830888
  48 C     6.0000    0    12.011   -4.633344  -22.062931   -9.378843
  49 C     6.0000    0    12.011   -6.482932  -21.191956  -11.079578
  50 C     6.0000    0    12.011   -8.797885  -20.320679  -10.205012
  51 C     6.0000    0    12.011   -9.262247  -20.330278   -7.640635
  52 C     6.0000    0    12.011   -5.531209  -21.457349  -13.624113
  53 C     6.0000    0    12.011   -3.094956  -22.517353  -13.503586
  54 C     6.0000    0    12.011   -2.281674  -22.875834  -10.783042
  55 C     6.0000    0    12.011   -0.044541  -21.049281  -10.323555
  56 C     6.0000    0    12.011    0.900228  -20.863257   -7.611817
  57 C     6.0000    0    12.011   -1.560479  -25.628126  -10.209227
  58 C     6.0000    0    12.011   -3.668979  -27.475824  -10.872823
  59 C     6.0000    0    12.011   -1.782654  -23.030338  -15.676053
  60 C     6.0000    0    12.011   -2.850860  -22.411717  -18.033543
  61 C     6.0000    0    12.011   -5.294370  -21.387901  -18.124344
  62 C     6.0000    0    12.011   -6.639288  -20.922840  -15.942221
  63 C     6.0000    0    12.011   -1.417616  -22.974912  -20.265801
  64 C     6.0000    0    12.011   -1.404860  -21.733797  -22.519356
  65 C     6.0000    0    12.011   -0.030028  -22.547513  -24.757945
  66 C     6.0000    0    12.011    0.940725  -24.904739  -25.198591
  67 C     6.0000    0    12.011    2.212680  -25.601840  -27.437368
  68 N     7.0000    0    14.007    3.269982  -26.285486  -29.202883
  69 C     6.0000    0    12.011    0.773635  -26.979053  -23.528753
  70 N     7.0000    0    14.007    0.686443  -28.765052  -22.299298
  71 C     6.0000    0    12.011   -0.004101  -20.444796  -26.540467
  72 C     6.0000    0    12.011   -1.396281  -18.433126  -25.510037
  73 C     6.0000    0    12.011   -2.385099  -19.142491  -22.991674
  74 O     8.0000    0    15.999   -3.612174  -17.799822  -21.606902
  75 C     6.0000    0    12.011   -1.699317  -16.175262  -26.779498
  76 C     6.0000    0    12.011   -0.590672  -15.918543  -29.144641
  77 C     6.0000    0    12.011    0.802000  -17.912279  -30.186447
  78 C     6.0000    0    12.011    1.105981  -20.181406  -28.898240
  79 Cl   17.0000    0    35.453    2.172637  -17.565345  -33.106925
  80 Cl   17.0000    0    35.453   -0.930274  -13.143990  -30.791424
  81 H     1.0000    0     1.008    9.076789   -0.644699   -8.541940
  82 H     1.0000    0     1.008    8.726453   -2.646410    0.643206
  83 H     1.0000    0     1.008    0.998040   -6.514302   -7.565575
  84 H     1.0000    0     1.008   -3.042213   -8.440046   -6.032800
  85 H     1.0000    0     1.008    2.113867  -13.013580    0.339452
  86 H     1.0000    0     1.008    3.949792   -9.505417   -2.096462
  87 H     1.0000    0     1.008   -9.473783  -11.226220   -2.684810
  88 H     1.0000    0     1.008   -7.545204   -8.887514   -4.075459
  89 H     1.0000    0     1.008   -7.204656  -10.637042    1.420753
  90 H     1.0000    0     1.008   -8.572856   -7.791794    0.353398
  91 H     1.0000    0     1.008   -5.294313   -8.285088    0.027023
  92 H     1.0000    0     1.008   -6.379281  -11.968807   -7.317889
  93 H     1.0000    0     1.008   -8.089691  -14.438774   -5.866919
  94 H     1.0000    0     1.008   -2.440600  -14.515005   -7.065289
  95 H     1.0000    0     1.008   -4.833447  -16.217686   -8.652791
  96 H     1.0000    0     1.008   -4.097380  -16.943039   -5.487387
  97 H     1.0000    0     1.008   -9.281579  -15.942958   -1.360433
  98 H     1.0000    0     1.008   -4.114841  -19.304535    3.865869
  99 H     1.0000    0     1.008   -0.733648  -16.420605    2.478697
 100 H     1.0000    0     1.008   -9.157046  -23.079490    9.992097
 101 H     1.0000    0     1.008  -14.652124  -27.002845    4.750904
 102 H     1.0000    0     1.008  -11.859808  -20.996294   -3.143578
 103 H     1.0000    0     1.008   -6.195618  -21.336388   -2.068249
 104 H     1.0000    0     1.008   -3.768530  -22.839287   -5.500199
 105 H     1.0000    0     1.008  -10.209831  -19.639773  -11.510851
 106 H     1.0000    0     1.008  -11.040895  -19.615508   -6.945424
 107 H     1.0000    0     1.008   -0.624403  -19.167832  -10.949621
 108 H     1.0000    0     1.008    1.512367  -21.656639  -11.535323
 109 H     1.0000    0     1.008   -0.542559  -20.075865   -6.382758
 110 H     1.0000    0     1.008    2.533140  -19.615603   -7.549513
 111 H     1.0000    0     1.008    1.475271  -22.697331   -6.889148
 112 H     1.0000    0     1.008   -1.120891  -25.805854   -8.203528
 113 H     1.0000    0     1.008    0.137496  -26.109609  -11.278056
 114 H     1.0000    0     1.008   -5.370961  -27.047367   -9.801764
 115 H     1.0000    0     1.008   -3.089381  -29.397430  -10.432044
 116 H     1.0000    0     1.008   -4.122060  -27.378503  -12.875384
 117 H     1.0000    0     1.008    0.082109  -23.860230  -15.612823
 118 H     1.0000    0     1.008   -6.157748  -21.027077  -19.931716
 119 H     1.0000    0     1.008   -8.526747  -20.156934  -16.040751
 120 H     1.0000    0     1.008   -0.132602  -24.558352  -20.065263
 121 H     1.0000    0     1.008   -2.773740  -14.654656  -25.950248
 122 H     1.0000    0     1.008    2.200208  -21.669943  -29.754872

--------------------------------
INTERNAL COORDINATES (ANGSTROEM)
--------------------------------
 C      0   0   0     0.000000000000     0.00000000     0.00000000
 C      1   0   0     1.368194388272     0.00000000     0.00000000
 C      2   1   0     1.410661493804   123.76630262     0.00000000
 N      3   2   1     1.147372519237   177.29809413   205.52401488
 C      2   1   3     1.411194924063   123.84864901   175.46710848
 N      5   2   1     1.147396220928   175.13354959   228.03871532
 C      1   2   3     1.460620109303   125.49615843   350.61125544
 C      7   1   2     1.407482072674   108.88222710   201.41604777
 C      8   7   1     1.380203185368   121.62311358   177.92213050
 C      9   8   7     1.389300744763   118.35983605     0.55145232
 C     10   9   8     1.400364475806   120.33111798     0.12613616
 C      7   1   2     1.385015038691   131.19210662    19.88557453
 Cl    11  10   9     1.716448168166   119.76509772   179.37109876
 Cl    10   9   8     1.716751863549   119.73011481   180.03063695
 C      8   7   1     1.479338148937   109.58492639   357.24830862
 O     15   8   7     1.207759269308   128.02420258   176.87620886
 C      1   2   3     1.452190528202   126.39870039   184.00564359
 C     17   1   2     1.354585709876   132.15626482   330.30035898
 C     18  17   1     1.438857507469   128.71797077   347.73401273
 C     19  18  17     1.403057402568   119.02971756   149.33729180
 C     20  19  18     1.371830698702   119.32399991   180.98958469
 C     21  20  19     1.406399204280   120.62068092   357.12203931
 C     22  21  20     1.388394553072   120.42009613     0.31408176
 C     23  22  21     1.378886950007   118.82858793     1.85849452
 C     22  21  20     1.447737845433   108.51438927   180.50979843
 C     25  22  21     1.406280987214   108.39163272   359.67920913
 C     21  20  19     1.509154745810   128.63442216   177.52295921
 C     27  21  20     1.540275423228   111.23636766   298.26405894
 C     28  27  21     1.523871220707   112.91443289   303.28206893
 C     27  21  20     1.540767274932   111.45761037    61.26042906
 C     30  27  21     1.523313632874   112.71223040    52.21083132
 C     26  25  22     1.372847613867   120.65476868   180.97298106
 C     32  26  25     1.399191248579   119.20022146   359.18262602
 C     33  32  26     1.394842960085   119.83011353     1.36086101
 C     34  33  32     1.382993833464   121.15506091   358.80622738
 C     33  32  26     1.469669729259   119.62565587   178.45020959
 S     36  33  32     1.773581533367   111.39779596   232.07739815
 C     37  36  33     1.758629358819   102.40097089   202.59788530
 C     38  37  36     1.359512799131   123.19532154   151.28673727
 S     39  38  37     1.720151616602   112.05736393   177.63828529
 C     40  39  38     1.720269523563    91.10617681     0.84429557
 C     41  40  39     1.359440180001   112.02376196   359.14281504
 S     42  41  40     1.754733663067   123.37487664   181.69008841
 C     36  33  32     1.346916560519   122.99443794    47.04127717
 C     44  36  33     1.447787647896   124.26289535     9.83235832
 C     45  44  36     1.341132772025   124.64181648    38.05587635
 C     46  45  44     1.446706352340   125.91975532   183.07115431
 C     47  46  45     1.403039194463   118.63589141   195.63826190
 C     48  47  46     1.374106016907   119.95947231   183.19329633
 C     49  48  47     1.407260440608   119.97673946   358.39715512
 C     50  49  48     1.388320627233   120.61563765     1.43232682
 C     51  50  49     1.379088532111   118.94805493   359.76074727
 C     50  49  48     1.444456905068   108.77337239   182.79448982
 C     53  50  49     1.407399295651   108.41454839     0.54453841
 C     49  48  47     1.511904446815   129.44881362   179.30225190
 C     55  49  48     1.547532433586   112.00760207   289.12287083
 C     56  55  49     1.522772713244   116.07816534    63.15633648
 C     55  49  48     1.535935875810   112.15743105    55.76408725
 C     58  55  49     1.524555888152   112.38106027    58.27496643
 C     54  53  50     1.370242164583   120.34322762   178.34565246
 C     60  54  53     1.408199504119   119.58895793     2.13762993
 C     61  60  54     1.402787465513   119.34973299   357.02066693
 C     62  61  60     1.378580238107   121.07268173     1.56766494
 C     61  60  54     1.435070835220   117.95607090   179.91549547
 C     64  61  60     1.361440485772   128.56837747   210.69347428
 C     65  64  61     1.455340892369   124.94096923   184.89446591
 C     66  65  64     1.369029734703   126.57006939    16.95908373
 C     67  66  65     1.411618845262   124.05364103   178.53142273
 N     68  67  66     1.147509571115   176.53576062   175.90070017
 C     67  66  65     1.411927451536   125.32850418   359.90930014
 N     70  67  66     1.148321458347   175.52516129   166.25338070
 C     66  65  64     1.458790620823   107.77883415   193.34471816
 C     72  66  65     1.404740553768   108.79011139   357.60335308
 C     73  72  66     1.480099269509   110.04245180     0.23252787
 O     74  73  72     1.209730581493   125.88854885   178.45620886
 C     73  72  66     1.380058404054   121.87577078   179.93591834
 C     76  73  72     1.388916630975   118.30966782     0.20357632
 C     77  76  73     1.400059238925   120.22972543   359.75268444
 C     72  66  65     1.386075817443   131.50885932   177.57231346
 Cl    78  77  76     1.717031038362   119.74907309   180.24548578
 Cl    77  76  73     1.716800131233   119.79099820   179.79838613
 H      9   8   7     1.078542537826   120.66760873   180.62434687
 H     12   7   1     1.077983143607   122.05626733     2.51175919
 H     18  17   1     1.086083181713   114.99302100   171.29830043
 H     20  19  18     1.079842413735   119.37081699   358.27131581
 H     23  22  21     1.079480142198   120.80513323   181.40610224
 H     24  23  22     1.080884505255   119.68862497   181.05424497
 H     28  27  21     1.092290080977   108.40294365   181.62036722
 H     28  27  21     1.091830976067   108.58142678    64.75348888
 H     29  28  27     1.087881382367   110.70922784   300.11604517
 H     29  28  27     1.087333968245   109.87363955   180.48944155
 H     29  28  27     1.086814748750   110.98110596    60.66439271
 H     30  27  21     1.091641572724   108.86374699   290.58776366
 H     30  27  21     1.091803784432   108.63705139   173.30557311
 H     31  30  27     1.087810838979   110.90888807   297.30692201
 H     31  30  27     1.087455017966   110.20985749   176.99697004
 H     31  30  27     1.087450669594   110.30919414    57.54856829
 H     32  26  25     1.079406799173   121.20570737   178.50478034
 H     34  33  32     1.080230030410   119.06781030   179.30038752
 H     35  34  33     1.079443328295   120.27116827   180.12202885
 H     39  38  37     1.070813943036   127.56218764   359.00207469
 H     41  40  39     1.070794838146   120.40823325   180.36597885
 H     45  44  36     1.081992408753   114.55048131   213.36564495
 H     46  45  44     1.082818661596   118.65891921     2.58818803
 H     48  47  46     1.079914579631   118.85415188     4.07491860
 H     51  50  49     1.079630562600   120.53938318   179.53336445
 H     52  51  50     1.079029025606   119.31573628   178.59577592
 H     56  55  49     1.093240960127   107.84753738   301.11539700
 H     56  55  49     1.092366674702   107.51542431   185.39153121
 H     57  56  55     1.086065385278   110.99752806   295.54341982
 H     57  56  55     1.087961159141   109.18067650   176.72082666
 H     57  56  55     1.086651208484   111.45924693    57.49883610
 H     58  55  49     1.090625391140   109.09668744   297.31390834
 H     58  55  49     1.091868794773   108.86522187   179.71581399
 H     59  58  55     1.088033310060   110.62128347   300.12892671
 H     59  58  55     1.087428702720   110.11450546   180.25694754
 H     59  58  55     1.087714296909   110.81563223    60.34962125
 H     60  54  53     1.080618147775   121.15330408   180.58015361
 H     62  61  60     1.077003544284   119.33521641   183.92748957
 H     63  62  61     1.079160835835   120.29072131   180.78548581
 H     64  61  60     1.084329922487   114.29013101    27.99340123
 H     76  73  72     1.078571868213   120.60499853   180.11005081
 H     79  72  66     1.077612438542   122.20043781   359.61251278

---------------------------
INTERNAL COORDINATES (A.U.)
---------------------------
 C      0   0   0     0.000000000000     0.00000000     0.00000000
 C      1   0   0     2.585512691803     0.00000000     0.00000000
 C      2   1   0     2.665763890957   123.76630262     0.00000000
 N      3   2   1     2.168219834945   177.29809413   205.52401488
 C      2   1   3     2.666771928058   123.84864901   175.46710848
 N      5   2   1     2.168264624650   175.13354959   228.03871532
 C      1   2   3     2.760171992281   125.49615843   350.61125544
 C      7   1   2     2.659755655759   108.88222710   201.41604777
 C      8   7   1     2.608206029511   121.62311358   177.92213050
 C      9   8   7     2.625397925256   118.35983605     0.55145232
 C     10   9   8     2.646305346946   120.33111798     0.12613616
 C      7   1   2     2.617299114488   131.19210662    19.88557453
 Cl    11  10   9     3.243616960904   119.76509772   179.37109876
 Cl    10   9   8     3.244190862007   119.73011481   180.03063695
 C      8   7   1     2.795543960953   109.58492639   357.24830862
 O     15   8   7     2.282334254697   128.02420258   176.87620886
 C      1   2   3     2.744242392576   126.39870039   184.00564359
 C     17   1   2     2.559796016589   132.15626482   330.30035898
 C     18  17   1     2.719046634853   128.71797077   347.73401273
 C     19  18  17     2.651394241024   119.02971756   149.33729180
 C     20  19  18     2.592384322652   119.32399991   180.98958469
 C     21  20  19     2.657709331054   120.62068092   357.12203931
 C     22  21  20     2.623685471134   120.42009613     0.31408176
 C     23  22  21     2.605718705151   118.82858793     1.85849452
 C     22  21  20     2.735828041582   108.51438927   180.50979843
 C     25  22  21     2.657485933175   108.39163272   359.67920913
 C     21  20  19     2.851889163288   128.63442216   177.52295921
 C     27  21  20     2.910698720710   111.23636766   298.26405894
 C     28  27  21     2.879699270501   112.91443289   303.28206893
 C     27  21  20     2.911628185729   111.45761037    61.26042906
 C     30  27  21     2.878645582201   112.71223040    52.21083132
 C     26  25  22     2.594306013816   120.65476868   180.97298106
 C     32  26  25     2.644088268794   119.20022146   359.18262602
 C     33  32  26     2.635871194390   119.83011353     1.36086101
 C     34  33  32     2.613479590149   121.15506091   358.80622738
 C     33  32  26     2.777273295614   119.62565587   178.45020959
 S     36  33  32     3.351583374244   111.39779596   232.07739815
 C     37  36  33     3.323327859241   102.40097089   202.59788530
 C     38  37  36     2.569106865918   123.19532154   151.28673727
 S     39  38  37     3.250615464201   112.05736393   177.63828529
 C     40  39  38     3.250838276065    91.10617681     0.84429557
 C     41  40  39     2.568969635650   112.02376196   359.14281504
 S     42  41  40     3.315966061169   123.37487664   181.69008841
 C     36  33  32     2.545303424624   122.99443794    47.04127717
 C     44  36  33     2.735922154597   124.26289535     9.83235832
 C     45  44  36     2.534373648354   124.64181648    38.05587635
 C     46  45  44     2.733878802126   125.91975532   183.07115431
 C     47  46  45     2.651359832693   118.63589141   195.63826190
 C     48  47  46     2.596684050928   119.95947231   183.19329633
 C     49  48  47     2.659336831850   119.97673946   358.39715512
 C     50  49  48     2.623545771544   120.61563765     1.43232682
 C     51  50  49     2.606099640121   118.94805493   359.76074727
 C     50  49  48     2.729627962831   108.77337239   182.79448982
 C     53  50  49     2.659599229855   108.41454839     0.54453841
 C     49  48  47     2.857085345139   129.44881362   179.30225190
 C     55  49  48     2.924412482838   112.00760207   289.12287083
 C     56  55  49     2.877623392239   116.07816534    63.15633648
 C     55  49  48     2.902498164545   112.15743105    55.76408725
 C     58  55  49     2.880993104465   112.38106027    58.27496643
 C     54  53  50     2.589382428213   120.34322762   178.34565246
 C     60  54  53     2.661111404708   119.58895793     2.13762993
 C     61  60  54     2.650884133917   119.34973299   357.02066693
 C     62  61  60     2.605139103659   121.07268173     1.56766494
 C     61  60  54     2.711890861344   117.95607090   179.91549547
 C     64  61  60     2.572749665742   128.56837747   210.69347428
 C     65  64  61     2.750195718073   124.94096923   184.89446591
 C     66  65  64     2.587091267783   126.57006939    16.95908373
 C     67  66  65     2.667573023028   124.05364103   178.53142273
 N     68  67  66     2.168478825460   176.53576062   175.90070017
 C     67  66  65     2.668156204368   125.32850418   359.90930014
 N     70  67  66     2.170013069981   175.52516129   166.25338070
 C     66  65  64     2.756714760088   107.77883415   193.34471816
 C     72  66  65     2.654574935834   108.79011139   357.60335308
 C     73  72  66     2.796982270388   110.04245180     0.23252787
 O     74  73  72     2.286059494852   125.88854885   178.45620886
 C     73  72  66     2.607932432478   121.87577078   179.93591834
 C     76  73  72     2.624672055392   118.30966782     0.20357632
 C     77  76  73     2.645728532835   120.22972543   359.75268444
 C     72  66  65     2.619303695818   131.50885932   177.57231346
 Cl    78  77  76     3.244718425947   119.74907309   180.24548578
 Cl    77  76  73     3.244282074710   119.79099820   179.79838613
 H      9   8   7     2.038150020275   120.66760873   180.62434687
 H     12   7   1     2.037092918400   122.05626733     2.51175919
 H     18  17   1     2.052399772096   114.99302100   171.29830043
 H     20  19  18     2.040606429751   119.37081699   358.27131581
 H     23  22  21     2.039921835761   120.80513323   181.40610224
 H     24  23  22     2.042575697331   119.68862497   181.05424497
 H     28  27  21     2.064129111845   108.40294365   181.62036722
 H     28  27  21     2.063261529299   108.58142678    64.75348888
 H     29  28  27     2.055797878865   110.70922784   300.11604517
 H     29  28  27     2.054763416093   109.87363955   180.48944155
 H     29  28  27     2.053782233443   110.98110596    60.66439271
 H     30  27  21     2.062903608852   108.86374699   290.58776366
 H     30  27  21     2.063210144555   108.63705139   173.30557311
 H     31  30  27     2.055664571181   110.90888807   297.30692201
 H     31  30  27     2.054992166915   110.20985749   176.99697004
 H     31  30  27     2.054983949682   110.30919414    57.54856829
 H     32  26  25     2.039783237529   121.20570737   178.50478034
 H     34  33  32     2.041338919113   119.06781030   179.30038752
 H     35  34  33     2.039852267565   120.27116827   180.12202885
 H     39  38  37     2.023545092722   127.56218764   359.00207469
 H     41  40  39     2.023508989712   120.40823325   180.36597885
 H     45  44  36     2.044669331526   114.55048131   213.36564495
 H     46  45  44     2.046230723115   118.65891921     2.58818803
 H     48  47  46     2.040742803532   118.85415188     4.07491860
 H     51  50  49     2.040206089125   120.53938318   179.53336445
 H     52  51  50     2.039069348947   119.31573628   178.59577592
 H     56  55  49     2.065926013026   107.84753738   301.11539700
 H     56  55  49     2.064273853009   107.51542431   185.39153121
 H     57  56  55     2.052366141708   110.99752806   295.54341982
 H     57  56  55     2.055948635121   109.18067650   176.72082666
 H     57  56  55     2.053473187130   111.45924693    57.49883610
 H     58  55  49     2.060983303956   109.09668744   297.31390834
 H     58  55  49     2.063332996296   108.86522187   179.71581399
 H     59  58  55     2.056084980597   110.62128347   300.12892671
 H     59  58  55     2.054942438307   110.11450546   180.25694754
 H     59  58  55     2.055482133109   110.81563223    60.34962125
 H     60  54  53     2.042072354639   121.15330408   180.58015361
 H     62  61  60     2.035241743959   119.33521641   183.92748957
 H     63  62  61     2.039318434182   120.29072131   180.78548581
 H     64  61  60     2.049086592316   114.29013101    27.99340123
 H     76  73  72     2.038205446674   120.60499853   180.11005081
 H     79  72  66     2.036392387351   122.20043781   359.61251278

---------------------
BASIS SET INFORMATION
---------------------
There are 6 groups of distinct atoms

 Group   1 Type C   : 7s4p1d contracted to 3s2p1d pattern {511/31/1}
 Group   2 Type N   : 7s4p1d contracted to 3s2p1d pattern {511/31/1}
 Group   3 Type Cl  : 10s7p1d contracted to 4s3p1d pattern {5311/511/1}
 Group   4 Type O   : 7s4p1d contracted to 3s2p1d pattern {511/31/1}
 Group   5 Type S   : 10s7p1d contracted to 4s3p1d pattern {5311/511/1}
 Group   6 Type H   : 4s1p contracted to 2s1p pattern {31/1}

Atom   0C    basis set group =>   1
Atom   1C    basis set group =>   1
Atom   2C    basis set group =>   1
Atom   3N    basis set group =>   2
Atom   4C    basis set group =>   1
Atom   5N    basis set group =>   2
Atom   6C    basis set group =>   1
Atom   7C    basis set group =>   1
Atom   8C    basis set group =>   1
Atom   9C    basis set group =>   1
Atom  10C    basis set group =>   1
Atom  11C    basis set group =>   1
Atom  12Cl   basis set group =>   3
Atom  13Cl   basis set group =>   3
Atom  14C    basis set group =>   1
Atom  15O    basis set group =>   4
Atom  16C    basis set group =>   1
Atom  17C    basis set group =>   1
Atom  18C    basis set group =>   1
Atom  19C    basis set group =>   1
Atom  20C    basis set group =>   1
Atom  21C    basis set group =>   1
Atom  22C    basis set group =>   1
Atom  23C    basis set group =>   1
Atom  24C    basis set group =>   1
Atom  25C    basis set group =>   1
Atom  26C    basis set group =>   1
Atom  27C    basis set group =>   1
Atom  28C    basis set group =>   1
Atom  29C    basis set group =>   1
Atom  30C    basis set group =>   1
Atom  31C    basis set group =>   1
Atom  32C    basis set group =>   1
Atom  33C    basis set group =>   1
Atom  34C    basis set group =>   1
Atom  35C    basis set group =>   1
Atom  36S    basis set group =>   5
Atom  37C    basis set group =>   1
Atom  38C    basis set group =>   1
Atom  39S    basis set group =>   5
Atom  40C    basis set group =>   1
Atom  41C    basis set group =>   1
Atom  42S    basis set group =>   5
Atom  43C    basis set group =>   1
Atom  44C    basis set group =>   1
Atom  45C    basis set group =>   1
Atom  46C    basis set group =>   1
Atom  47C    basis set group =>   1
Atom  48C    basis set group =>   1
Atom  49C    basis set group =>   1
Atom  50C    basis set group =>   1
Atom  51C    basis set group =>   1
Atom  52C    basis set group =>   1
Atom  53C    basis set group =>   1
Atom  54C    basis set group =>   1
Atom  55C    basis set group =>   1
Atom  56C    basis set group =>   1
Atom  57C    basis set group =>   1
Atom  58C    basis set group =>   1
Atom  59C    basis set group =>   1
Atom  60C    basis set group =>   1
Atom  61C    basis set group =>   1
Atom  62C    basis set group =>   1
Atom  63C    basis set group =>   1
Atom  64C    basis set group =>   1
Atom  65C    basis set group =>   1
Atom  66C    basis set group =>   1
Atom  67C    basis set group =>   1
Atom  68N    basis set group =>   2
Atom  69C    basis set group =>   1
Atom  70N    basis set group =>   2
Atom  71C    basis set group =>   1
Atom  72C    basis set group =>   1
Atom  73C    basis set group =>   1
Atom  74O    basis set group =>   4
Atom  75C    basis set group =>   1
Atom  76C    basis set group =>   1
Atom  77C    basis set group =>   1
Atom  78C    basis set group =>   1
Atom  79Cl   basis set group =>   3
Atom  80Cl   basis set group =>   3
Atom  81H    basis set group =>   6
Atom  82H    basis set group =>   6
Atom  83H    basis set group =>   6
Atom  84H    basis set group =>   6
Atom  85H    basis set group =>   6
Atom  86H    basis set group =>   6
Atom  87H    basis set group =>   6
Atom  88H    basis set group =>   6
Atom  89H    basis set group =>   6
Atom  90H    basis set group =>   6
Atom  91H    basis set group =>   6
Atom  92H    basis set group =>   6
Atom  93H    basis set group =>   6
Atom  94H    basis set group =>   6
Atom  95H    basis set group =>   6
Atom  96H    basis set group =>   6
Atom  97H    basis set group =>   6
Atom  98H    basis set group =>   6
Atom  99H    basis set group =>   6
Atom 100H    basis set group =>   6
Atom 101H    basis set group =>   6
Atom 102H    basis set group =>   6
Atom 103H    basis set group =>   6
Atom 104H    basis set group =>   6
Atom 105H    basis set group =>   6
Atom 106H    basis set group =>   6
Atom 107H    basis set group =>   6
Atom 108H    basis set group =>   6
Atom 109H    basis set group =>   6
Atom 110H    basis set group =>   6
Atom 111H    basis set group =>   6
Atom 112H    basis set group =>   6
Atom 113H    basis set group =>   6
Atom 114H    basis set group =>   6
Atom 115H    basis set group =>   6
Atom 116H    basis set group =>   6
Atom 117H    basis set group =>   6
Atom 118H    basis set group =>   6
Atom 119H    basis set group =>   6
Atom 120H    basis set group =>   6
Atom 121H    basis set group =>   6
Atom 122H    basis set group =>   6
---------------------------------
AUXILIARY/J BASIS SET INFORMATION
---------------------------------
There are 6 groups of distinct atoms

 Group   1 Type C   : 12s5p4d2f1g contracted to 6s4p3d1f1g pattern {711111/2111/211/2/1}
 Group   2 Type N   : 12s5p4d2f1g contracted to 6s4p3d1f1g pattern {711111/2111/211/2/1}
 Group   3 Type Cl  : 14s5p5d2f1g contracted to 8s4p3d1f1g pattern {71111111/2111/311/2/1}
 Group   4 Type O   : 12s5p4d2f1g contracted to 6s4p3d1f1g pattern {711111/2111/211/2/1}
 Group   5 Type S   : 14s5p5d2f1g contracted to 8s4p3d1f1g pattern {71111111/2111/311/2/1}
 Group   6 Type H   : 5s2p1d contracted to 3s1p1d pattern {311/2/1}

Atom   0C    basis set group =>   1
Atom   1C    basis set group =>   1
Atom   2C    basis set group =>   1
Atom   3N    basis set group =>   2
Atom   4C    basis set group =>   1
Atom   5N    basis set group =>   2
Atom   6C    basis set group =>   1
Atom   7C    basis set group =>   1
Atom   8C    basis set group =>   1
Atom   9C    basis set group =>   1
Atom  10C    basis set group =>   1
Atom  11C    basis set group =>   1
Atom  12Cl   basis set group =>   3
Atom  13Cl   basis set group =>   3
Atom  14C    basis set group =>   1
Atom  15O    basis set group =>   4
Atom  16C    basis set group =>   1
Atom  17C    basis set group =>   1
Atom  18C    basis set group =>   1
Atom  19C    basis set group =>   1
Atom  20C    basis set group =>   1
Atom  21C    basis set group =>   1
Atom  22C    basis set group =>   1
Atom  23C    basis set group =>   1
Atom  24C    basis set group =>   1
Atom  25C    basis set group =>   1
Atom  26C    basis set group =>   1
Atom  27C    basis set group =>   1
Atom  28C    basis set group =>   1
Atom  29C    basis set group =>   1
Atom  30C    basis set group =>   1
Atom  31C    basis set group =>   1
Atom  32C    basis set group =>   1
Atom  33C    basis set group =>   1
Atom  34C    basis set group =>   1
Atom  35C    basis set group =>   1
Atom  36S    basis set group =>   5
Atom  37C    basis set group =>   1
Atom  38C    basis set group =>   1
Atom  39S    basis set group =>   5
Atom  40C    basis set group =>   1
Atom  41C    basis set group =>   1
Atom  42S    basis set group =>   5
Atom  43C    basis set group =>   1
Atom  44C    basis set group =>   1
Atom  45C    basis set group =>   1
Atom  46C    basis set group =>   1
Atom  47C    basis set group =>   1
Atom  48C    basis set group =>   1
Atom  49C    basis set group =>   1
Atom  50C    basis set group =>   1
Atom  51C    basis set group =>   1
Atom  52C    basis set group =>   1
Atom  53C    basis set group =>   1
Atom  54C    basis set group =>   1
Atom  55C    basis set group =>   1
Atom  56C    basis set group =>   1
Atom  57C    basis set group =>   1
Atom  58C    basis set group =>   1
Atom  59C    basis set group =>   1
Atom  60C    basis set group =>   1
Atom  61C    basis set group =>   1
Atom  62C    basis set group =>   1
Atom  63C    basis set group =>   1
Atom  64C    basis set group =>   1
Atom  65C    basis set group =>   1
Atom  66C    basis set group =>   1
Atom  67C    basis set group =>   1
Atom  68N    basis set group =>   2
Atom  69C    basis set group =>   1
Atom  70N    basis set group =>   2
Atom  71C    basis set group =>   1
Atom  72C    basis set group =>   1
Atom  73C    basis set group =>   1
Atom  74O    basis set group =>   4
Atom  75C    basis set group =>   1
Atom  76C    basis set group =>   1
Atom  77C    basis set group =>   1
Atom  78C    basis set group =>   1
Atom  79Cl   basis set group =>   3
Atom  80Cl   basis set group =>   3
Atom  81H    basis set group =>   6
Atom  82H    basis set group =>   6
Atom  83H    basis set group =>   6
Atom  84H    basis set group =>   6
Atom  85H    basis set group =>   6
Atom  86H    basis set group =>   6
Atom  87H    basis set group =>   6
Atom  88H    basis set group =>   6
Atom  89H    basis set group =>   6
Atom  90H    basis set group =>   6
Atom  91H    basis set group =>   6
Atom  92H    basis set group =>   6
Atom  93H    basis set group =>   6
Atom  94H    basis set group =>   6
Atom  95H    basis set group =>   6
Atom  96H    basis set group =>   6
Atom  97H    basis set group =>   6
Atom  98H    basis set group =>   6
Atom  99H    basis set group =>   6
Atom 100H    basis set group =>   6
Atom 101H    basis set group =>   6
Atom 102H    basis set group =>   6
Atom 103H    basis set group =>   6
Atom 104H    basis set group =>   6
Atom 105H    basis set group =>   6
Atom 106H    basis set group =>   6
Atom 107H    basis set group =>   6
Atom 108H    basis set group =>   6
Atom 109H    basis set group =>   6
Atom 110H    basis set group =>   6
Atom 111H    basis set group =>   6
Atom 112H    basis set group =>   6
Atom 113H    basis set group =>   6
Atom 114H    basis set group =>   6
Atom 115H    basis set group =>   6
Atom 116H    basis set group =>   6
Atom 117H    basis set group =>   6
Atom 118H    basis set group =>   6
Atom 119H    basis set group =>   6
Atom 120H    basis set group =>   6
Atom 121H    basis set group =>   6
Atom 122H    basis set group =>   6


           ************************************************************
           *        Program running with 6 parallel MPI-processes     *
           *              working on a common directory               *
           ************************************************************
------------------------------------------------------------------------------
                           ORCA GTO INTEGRAL CALCULATION
                           -- RI-GTO INTEGRALS CHOSEN --
------------------------------------------------------------------------------

                         BASIS SET STATISTICS AND STARTUP INFO

Gaussian basis set:
 # of primitive gaussian shells          ... 1224
 # of primitive gaussian functions       ... 2322
 # of contracted shells                  ...  626
 # of contracted basis functions         ... 1372
 Highest angular momentum                ...    2
 Maximum contraction depth               ...    5
Auxiliary gaussian basis set:
 # of primitive gaussian shells          ... 2301
 # of primitive gaussian functions       ... 6391
 # of contracted shells                  ... 1439
 # of contracted aux-basis functions     ... 4445
 Highest angular momentum                ...    4
 Maximum contraction depth               ...    7
Ratio of auxiliary to basis functions    ...  3.24
Integral package used                  ... LIBINT
 One Electron integrals                  ... done
 Ordering auxiliary basis shells         ... done
 Integral threshhold             Thresh  ...  2.500e-11
 Primitive cut-off               TCut    ...  2.500e-12
 Pre-screening matrix                    ... done
 Shell pair data                         ... 
 Ordering of the shell pairs             ... done (   0.017 sec) 66331 of 196251 pairs
 Determination of significant pairs      ... done (   0.000 sec)
 Creation of shell pair data             ... done (   0.011 sec)
 Storage of shell pair data              ... done (   0.017 sec)
 Shell pair data done in (   0.046 sec)
 Computing two index integrals           ... done
 Cholesky decomposition of the V-matrix  ... done


Timings:
 Total evaluation time                   ...   4.591 sec (  0.077 min)
 One electron matrix time                ...   1.094 sec (  0.018 min) = 23.8%
 Schwartz matrix evaluation time         ...   1.126 sec (  0.019 min) = 24.5%
 Two index repulsion integral time       ...   0.711 sec (  0.012 min) = 15.5%
 Cholesky decomposition of V             ...   1.596 sec (  0.027 min) = 34.8%
 Three index repulsion integral time     ...   0.000 sec (  0.000 min) =  0.0%



           ************************************************************
           *        Program running with 6 parallel MPI-processes     *
           *              working on a common directory               *
           ************************************************************
-------------------------------------------------------------------------------
                                 ORCA SCF
-------------------------------------------------------------------------------

------------
SCF SETTINGS
------------
Hamiltonian:
 Density Functional     Method          .... DFT(GTOs)
 Exchange Functional    Exchange        .... WB88
 Correlation Functional Correlation     .... LYP
 LDA part of GGA corr.  LDAOpt          .... VWN-5
 Gradients option       PostSCFGGA      .... off
 Hybrid DFT is turned on
   Fraction HF Exchange ScalHFX         ....  0.190000
   Scaling of DF-GGA-X  ScalDFX         ....  0.350000
   Scaling of DF-GGA-C  ScalDFC         ....  0.810000
   Scaling of DF-LDA-C  ScalLDAC        ....  1.000000
   Perturbative correction              ....  0.000000
   Density functional embedding theory  .... OFF
 Long-range corrected/Screened/Range-Separated Hybrid DFT is turned on
   Amount of maximum screened exact exchange              ....  0.460000
   Range separation parameter mu (erf(mu*r12)/r12)        ....  0.330000
 RI-approximation to the Coulomb term is turned on
   Number of auxiliary basis functions  .... 4445
   RIJ-COSX (HFX calculated with COS-X)).... on


General Settings:
 Integral files         IntName         .... xtbopt
 Hartree-Fock type      HFTyp           .... RHF
 Total Charge           Charge          ....    0
 Multiplicity           Mult            ....    1
 Number of Electrons    NEL             ....  610
 Basis Dimension        Dim             .... 1372
 Nuclear Repulsion      ENuc            ....  13575.9099281507 Eh

Convergence Acceleration:
 DIIS                   CNVDIIS         .... on
   Start iteration      DIISMaxIt       ....    12
   Startup error        DIISStart       ....  0.200000
   # of expansion vecs  DIISMaxEq       ....     5
   Bias factor          DIISBfac        ....   1.050
   Max. coefficient     DIISMaxC        ....  10.000
 Newton-Raphson         CNVNR           .... off
 SOSCF                  CNVSOSCF        .... on
   Start iteration      SOSCFMaxIt      ....   150
   Startup grad/error   SOSCFStart      ....  0.003300
 Level Shifting         CNVShift        .... on
   Level shift para.    LevelShift      ....    0.2500
   Turn off err/grad.   ShiftErr        ....    0.0010
 Zerner damping         CNVZerner       .... off
 Static damping         CNVDamp         .... on
   Fraction old density DampFac         ....    0.7000
   Max. Damping (<1)    DampMax         ....    0.9800
   Min. Damping (>=0)   DampMin         ....    0.0000
   Turn off err/grad.   DampErr         ....    0.1000
 Fernandez-Rico         CNVRico         .... off

SCF Procedure:
 Maximum # iterations   MaxIter         ....   125
 SCF integral mode      SCFMode         .... Direct
   Integral package                     .... LIBINT
 Reset frequency        DirectResetFreq ....    20
 Integral Threshold     Thresh          ....  2.500e-11 Eh
 Primitive CutOff       TCut            ....  2.500e-12 Eh

Convergence Tolerance:
 Convergence Check Mode ConvCheckMode   .... Total+1el-Energy
 Convergence forced     ConvForced      .... 1
 Energy Change          TolE            ....  1.000e-08 Eh
 1-El. energy change                    ....  1.000e-05 Eh
 Orbital Gradient       TolG            ....  1.000e-05
 Orbital Rotation angle TolX            ....  1.000e-05
 DIIS Error             TolErr          ....  5.000e-07


Diagonalization of the overlap matrix:
Smallest eigenvalue                        ... 1.929e-04
Time for diagonalization                   ...    0.495 sec
Threshold for overlap eigenvalues          ... 1.000e-08
Number of eigenvalues below threshold      ... 0
Time for construction of square roots      ...    0.371 sec
Total time needed                          ...    0.872 sec

-------------------
DFT GRID GENERATION
-------------------

General Integration Accuracy     IntAcc      ...  4.670
Radial Grid Type                 RadialGrid  ... Gauss-Chebyshev
Angular Grid (max. acc.)         AngularGrid ... Lebedev-302
Angular grid pruning method      GridPruning ... 3 (G Style)
Weight generation scheme         WeightScheme... Becke
Basis function cutoff            BFCut       ...    1.0000e-11
Integration weight cutoff        WCut        ...    1.0000e-14
Grids for H and He will be reduced by one unit

# of grid points (after initial pruning)     ... 649726 (   0.1 sec)
# of grid points (after weights+screening)   ... 545232 (  11.2 sec)
nearest neighbour list constructed           ...    0.0 sec
Grid point re-assignment to atoms done       ...    0.1 sec
Grid point division into batches done        ...    2.3 sec
Reduced shell lists constructed in    4.4 sec

Total number of grid points                  ...   545232
Total number of batches                      ...     8579
Average number of points per batch           ...       63
Average number of grid points per atom       ...     4433
Average number of shells per batch           ...    87.67 (14.01%)
Average number of basis functions per batch  ...   184.82 (13.47%)
Average number of large shells per batch     ...    53.76 (61.32%)
Average number of large basis fcns per batch ...   115.74 (62.63%)
Maximum spatial batch extension              ...  19.37, 20.47, 19.36 au
Average spatial batch extension              ...   0.37,  0.38,  0.36 au

Time for grid setup =   16.735 sec

------------------------------
INITIAL GUESS: MODEL POTENTIAL
------------------------------
Loading Hartree-Fock densities                     ... done
Calculating cut-offs                               ... done
Setting up the integral package                    ... done
Initializing the effective Hamiltonian             ... done
Starting the Coulomb interaction                   ... done (   2.8 sec)
Reading the grid                                   ... done
Mapping shells                                     ... done
Starting the XC term evaluation                    ... done (   2.7 sec)
  promolecular density results
     # of electrons  =    609.980118610
     EX              =   -587.171315300
     EC              =    -21.284751532
     EX+EC           =   -608.456066832
Transforming the Hamiltonian                       ... done (   0.2 sec)
Diagonalizing the Hamiltonian                      ... done (   0.5 sec)
Back transforming the eigenvectors                 ... done (   0.1 sec)
Now organizing SCF variables                       ... done
                      ------------------
                      INITIAL GUESS DONE (  23.3 sec)
                      ------------------
--------------------
COSX GRID GENERATION
--------------------

General Integration Accuracy     IntAcc      ...  3.340
Radial Grid Type                 RadialGrid  ... Gauss-Chebyshev
Angular Grid (max. acc.)         AngularGrid ... Lebedev-50
Angular grid pruning method      GridPruning ... 3 (G Style)
Weight generation scheme         WeightScheme... Becke
Basis function cutoff            BFCut       ...    1.0000e-11
Integration weight cutoff        WCut        ...    1.0000e-14
Grids for H and He will be reduced by one unit

# of grid points (after initial pruning)     ...  61246 (   0.0 sec)
# of grid points (after weights+screening)   ...  53955 (   1.0 sec)
nearest neighbour list constructed           ...    0.0 sec
Grid point re-assignment to atoms done       ...    0.0 sec
Grid point division into batches done        ...    0.0 sec
Reduced shell lists constructed in    0.3 sec

Total number of grid points                  ...    53955
Total number of batches                      ...      906
Average number of points per batch           ...       59
Average number of grid points per atom       ...      439
Average number of shells per batch           ...   105.95 (16.93%)
Average number of basis functions per batch  ...   225.31 (16.42%)
Average number of large shells per batch     ...    64.78 (61.14%)
Average number of large basis fcns per batch ...   141.12 (62.63%)
Maximum spatial batch extension              ...  19.13, 22.87, 15.07 au
Average spatial batch extension              ...   0.77,  0.89,  0.70 au

Overlap Fitting                  UseSFitting ... on
Constructing numerical overlap ... done (      0.3 sec)
Inverting numerical overlap    ... done (      0.1 sec)
Obtaining analytic overlap     ... done (      0.0 sec)
Final contraction and storage  ... done (      0.1 sec)


General Integration Accuracy     IntAcc      ...  3.670
Radial Grid Type                 RadialGrid  ... Gauss-Chebyshev
Angular Grid (max. acc.)         AngularGrid ... Lebedev-50
Angular grid pruning method      GridPruning ... 3 (G Style)
Weight generation scheme         WeightScheme... Becke
Basis function cutoff            BFCut       ...    1.0000e-11
Integration weight cutoff        WCut        ...    1.0000e-14
Grids for H and He will be reduced by one unit

# of grid points (after initial pruning)     ...  76598 (   0.0 sec)
# of grid points (after weights+screening)   ...  67109 (   1.3 sec)
nearest neighbour list constructed           ...    0.0 sec
Grid point re-assignment to atoms done       ...    0.0 sec
Grid point division into batches done        ...    0.0 sec
Reduced shell lists constructed in    0.4 sec

Total number of grid points                  ...    67109
Total number of batches                      ...     1114
Average number of points per batch           ...       60
Average number of grid points per atom       ...      546
Average number of shells per batch           ...   104.80 (16.74%)
Average number of basis functions per batch  ...   222.42 (16.21%)
Average number of large shells per batch     ...    63.56 (60.64%)
Average number of large basis fcns per batch ...   138.20 (62.13%)
Maximum spatial batch extension              ...  20.10, 24.58, 16.05 au
Average spatial batch extension              ...   0.68,  0.81,  0.63 au

Overlap Fitting                  UseSFitting ... on
Constructing numerical overlap ... done (      0.3 sec)
Inverting numerical overlap    ... done (      0.1 sec)
Obtaining analytic overlap     ... done (      0.0 sec)
Final contraction and storage  ... done (      0.2 sec)


General Integration Accuracy     IntAcc      ...  4.010
Radial Grid Type                 RadialGrid  ... Gauss-Chebyshev
Angular Grid (max. acc.)         AngularGrid ... Lebedev-110
Angular grid pruning method      GridPruning ... 3 (G Style)
Weight generation scheme         WeightScheme... Becke
Basis function cutoff            BFCut       ...    1.0000e-11
Integration weight cutoff        WCut        ...    1.0000e-14
Grids for H and He will be reduced by one unit

# of grid points (after initial pruning)     ... 148116 (   0.0 sec)
# of grid points (after weights+screening)   ... 128663 (   2.6 sec)
nearest neighbour list constructed           ...    0.0 sec
Grid point re-assignment to atoms done       ...    0.0 sec
Grid point division into batches done        ...    0.1 sec
Reduced shell lists constructed in    0.6 sec

Total number of grid points                  ...   128663
Total number of batches                      ...     2078
Average number of points per batch           ...       61
Average number of grid points per atom       ...     1046
Average number of shells per batch           ...    97.59 (15.59%)
Average number of basis functions per batch  ...   207.13 (15.10%)
Average number of large shells per batch     ...    59.98 (61.46%)
Average number of large basis fcns per batch ...   130.48 (63.00%)
Maximum spatial batch extension              ...  22.81, 20.44, 18.71 au
Average spatial batch extension              ...   0.60,  0.67,  0.55 au

Overlap Fitting                  UseSFitting ... on
Constructing numerical overlap ... done (      0.4 sec)
Inverting numerical overlap    ... done (      0.1 sec)
Obtaining analytic overlap     ... done (      0.0 sec)
Final contraction and storage  ... done (      0.1 sec)

Time for X-Grid setup             =    8.857 sec
--------------
SCF ITERATIONS
--------------
ITER       Energy         Delta-E        Max-DP      RMS-DP      [F,P]     Damp
               ***  Starting incremental Fock matrix formation  ***
  0  -6015.1243031540   0.000000000000 0.11256205  0.00089053  0.2326056 0.7000
  1  -6015.7385130835  -0.614209929408 0.06824788  0.00063263  0.0954670 0.7000
                               ***Turning on DIIS***
  2  -6016.0128087698  -0.274295686328 0.11864047  0.00117539  0.0431413 0.0000
  3  -6016.4727730641  -0.459964294274 0.03709384  0.00043967  0.0490159 0.0000
  4  -6016.5466956198  -0.073922555748 0.01669623  0.00013499  0.0264224 0.0000
  5  -6016.5532496561  -0.006554036299 0.00609727  0.00005477  0.0082105 0.0000
                      *** Initiating the SOSCF procedure ***
                           *** Shutting down DIIS ***
                      *** Re-Reading the Fockian *** 
                      *** Removing any level shift *** 
ITER      Energy       Delta-E        Grad      Rot      Max-DP    RMS-DP
  6  -6016.55427244  -0.0010227838  0.002720  0.002720  0.002883  0.000029
               *** Restarting incremental Fock matrix formation ***
  7  -6016.55448991  -0.0002174673  0.001860  0.012172  0.001709  0.000030
  8  -6016.55468953  -0.0001996218  0.000482  0.008844  0.001851  0.000027
  9  -6016.55469029  -0.0000007620  0.000845  0.003385  0.001471  0.000011
 10  -6016.55473110  -0.0000408132  0.000204  0.001195  0.000546  0.000005
 11  -6016.55472923   0.0000018712  0.000169  0.000648  0.000339  0.000003
 12  -6016.55473346  -0.0000042242  0.000014  0.000061  0.000102  0.000001
 13  -6016.55473349  -0.0000000354  0.000017  0.000042  0.000048  0.000000
 14  -6016.55473354  -0.0000000446  0.000003  0.000019  0.000020  0.000000
 15  -6016.55473349   0.0000000490  0.000005  0.000006  0.000012  0.000000
                  ***Gradient check signals convergence***
              ***Rediagonalizing the Fockian in SOSCF/NRSCF***

               *****************************************************
               *                     SUCCESS                       *
               *           SCF CONVERGED AFTER  16 CYCLES          *
               *****************************************************

Setting up the final grid:

General Integration Accuracy     IntAcc      ...  5.010
Radial Grid Type                 RadialGrid  ... Gauss-Chebyshev
Angular Grid (max. acc.)         AngularGrid ... Lebedev-434
Angular grid pruning method      GridPruning ... 3 (G Style)
Weight generation scheme         WeightScheme... Becke
Basis function cutoff            BFCut       ...    1.0000e-11
Integration weight cutoff        WCut        ...    1.0000e-14
Grids for H and He will be reduced by one unit

# of grid points (after initial pruning)     ... 1155328 (   0.1 sec)
# of grid points (after weights+screening)   ... 965883 (  19.6 sec)
nearest neighbour list constructed           ...    0.0 sec
Grid point re-assignment to atoms done       ...    0.2 sec
Grid point division into batches done        ...    7.3 sec
Reduced shell lists constructed in   10.5 sec

Total number of grid points                  ...   965883
Total number of batches                      ...    15156
Average number of points per batch           ...       63
Average number of grid points per atom       ...     7853
Average number of shells per batch           ...    86.14 (13.76%)
Average number of basis functions per batch  ...   180.99 (13.19%)
Average number of large shells per batch     ...    52.88 (61.39%)
Average number of large basis fcns per batch ...   113.51 (62.72%)
Maximum spatial batch extension              ...  20.45, 20.11, 21.05 au
Average spatial batch extension              ...   0.30,  0.31,  0.30 au

Final grid set up in   32.1 sec
Final integration                            ... done (   6.7 sec)
Change in XC energy                          ...    -0.000038468
Integrated number of electrons               ...   609.999839522
Previous integrated no of electrons          ...   610.000424173
Old exchange energy                            =   -161.062115352 Eh
New exchange energy                            =   -161.059732667 Eh
Exchange energy change after final integration =      0.002382685 Eh
Total energy after final integration           =  -6016.552389361 Eh
Final COS-X integration done in                =   117.523 sec

----------------
TOTAL SCF ENERGY
----------------

Total Energy       :        -6016.55238936 Eh         -163718.71381 eV

Components:
Nuclear Repulsion  :        13575.90992815 Eh          369419.29006 eV
Electronic Energy  :       -19592.46231751 Eh         -533138.00387 eV
One Electron Energy:       -35289.55641352 Eh         -960277.64958 eV
Two Electron Energy:        15697.09409601 Eh          427139.64571 eV

Virial components:
Potential Energy   :       -11997.64944204 Eh         -326472.63887 eV
Kinetic Energy     :         5981.09705268 Eh          162753.92505 eV
Virial Ratio       :            2.00592790


DFT components:
N(Alpha)           :      304.999919761067 electrons
N(Beta)            :      304.999919761067 electrons
N(Total)           :      609.999839522134 electrons
E(XC)              :     -457.054643295823 Eh       
DFET-embed. en.    :        0.000000000000 Eh       

---------------
SCF CONVERGENCE
---------------

  Last Energy change         ...   -8.9389e-08  Tolerance :   1.0000e-08
  Last MAX-Density change    ...    8.4377e-15  Tolerance :   1.0000e-07
  Last RMS-Density change    ...    3.4505e-17  Tolerance :   5.0000e-09
  Last Orbital Gradient      ...    9.3803e-07  Tolerance :   1.0000e-05
  Last Orbital Rotation      ...    3.3695e-06  Tolerance :   1.0000e-05

             **** THE GBW FILE WAS UPDATED (xtbopt.gbw) ****
             **** DENSITY FILE WAS UPDATED (xtbopt.scfp) ****
             **** ENERGY FILE WAS UPDATED (xtbopt.en.tmp) ****
             **** THE GBW FILE WAS UPDATED (xtbopt.gbw) ****
             **** DENSITY FILE WAS UPDATED (xtbopt.scfp) ****
----------------
ORBITAL ENERGIES
----------------

  NO   OCC          E(Eh)            E(eV) 
   0   2.0000    -101.604389     -2764.7960 
   1   2.0000    -101.603576     -2764.7739 
   2   2.0000    -101.603081     -2764.7604 
   3   2.0000    -101.601235     -2764.7101 
   4   2.0000     -88.960821     -2420.7470 
   5   2.0000     -88.943094     -2420.2646 
   6   2.0000     -88.938298     -2420.1341 
   7   2.0000     -19.224542      -523.1264 
   8   2.0000     -19.223638      -523.1018 
   9   2.0000     -14.423264      -392.4770 
  10   2.0000     -14.421225      -392.4215 
  11   2.0000     -14.420974      -392.4146 
  12   2.0000     -14.420154      -392.3923 
  13   2.0000     -10.376459      -282.3578 
  14   2.0000     -10.375873      -282.3419 
  15   2.0000     -10.361577      -281.9528 
  16   2.0000     -10.360932      -281.9353 
  17   2.0000     -10.359286      -281.8905 
  18   2.0000     -10.358792      -281.8771 
  19   2.0000     -10.352859      -281.7156 
  20   2.0000     -10.351096      -281.6676 
  21   2.0000     -10.349778      -281.6318 
  22   2.0000     -10.347695      -281.5751 
  23   2.0000     -10.325179      -280.9624 
  24   2.0000     -10.323434      -280.9149 
  25   2.0000     -10.323108      -280.9061 
  26   2.0000     -10.322444      -280.8880 
  27   2.0000     -10.322091      -280.8784 
  28   2.0000     -10.321494      -280.8621 
  29   2.0000     -10.320845      -280.8445 
  30   2.0000     -10.318614      -280.7838 
  31   2.0000     -10.314721      -280.6778 
  32   2.0000     -10.314591      -280.6743 
  33   2.0000     -10.312156      -280.6080 
  34   2.0000     -10.311904      -280.6012 
  35   2.0000     -10.309952      -280.5481 
  36   2.0000     -10.307504      -280.4814 
  37   2.0000     -10.307223      -280.4738 
  38   2.0000     -10.305712      -280.4327 
  39   2.0000     -10.305011      -280.4136 
  40   2.0000     -10.304424      -280.3976 
  41   2.0000     -10.303127      -280.3623 
  42   2.0000     -10.302962      -280.3578 
  43   2.0000     -10.299308      -280.2584 
  44   2.0000     -10.298236      -280.2292 
  45   2.0000     -10.294160      -280.1183 
  46   2.0000     -10.291843      -280.0553 
  47   2.0000     -10.289037      -279.9789 
  48   2.0000     -10.287239      -279.9300 
  49   2.0000     -10.286942      -279.9219 
  50   2.0000     -10.286921      -279.9213 
  51   2.0000     -10.286500      -279.9099 
  52   2.0000     -10.286088      -279.8987 
  53   2.0000     -10.284968      -279.8682 
  54   2.0000     -10.284838      -279.8647 
  55   2.0000     -10.283827      -279.8372 
  56   2.0000     -10.283444      -279.8267 
  57   2.0000     -10.282827      -279.8099 
  58   2.0000     -10.281129      -279.7638 
  59   2.0000     -10.280642      -279.7505 
  60   2.0000     -10.279383      -279.7162 
  61   2.0000     -10.279258      -279.7128 
  62   2.0000     -10.278497      -279.6921 
  63   2.0000     -10.278331      -279.6876 
  64   2.0000     -10.278038      -279.6796 
  65   2.0000     -10.277913      -279.6762 
  66   2.0000     -10.277749      -279.6718 
  67   2.0000     -10.277659      -279.6693 
  68   2.0000     -10.277076      -279.6534 
  69   2.0000     -10.276330      -279.6332 
  70   2.0000     -10.274760      -279.5904 
  71   2.0000     -10.274269      -279.5771 
  72   2.0000     -10.273374      -279.5527 
  73   2.0000     -10.270427      -279.4725 
  74   2.0000     -10.268812      -279.4286 
  75   2.0000     -10.265193      -279.3301 
  76   2.0000     -10.260835      -279.2115 
  77   2.0000     -10.257294      -279.1152 
  78   2.0000     -10.250894      -278.9410 
  79   2.0000     -10.247665      -278.8531 
[...]
estimated time (min):    0.000
calculating (A-B)^0.5 ... done
calculating (A+B)*(A-B)^0.5 ... done
calculating (A-B)^0.5 *(A+B)*(A-B)^0.5 ... done
diagonalizing ...using LAPACKE_ssyevr ...done

   44 roots found, lowest/highest eigenvalue :     2.525     4.951

excitation energies, transition moments and amplitudes

molecular weight: 1185.102
state   eV        nm        fL         fV        Rl        RV
   0   2.525     491.0   0.483428   0.498922  94.651358  91.241148     0.67 ( 113-> 114)    0.14 ( 111-> 114)    0.07 ( 111-> 115)
   1   2.705     458.4   0.964161   0.981024  -158.255511  -86.645287     0.56 ( 113-> 115)    0.18 ( 112-> 115)    0.07 ( 112-> 114)
   2   3.099     400.0   0.059947   0.061589  -140.592811  -139.611566     0.22 ( 111-> 114)    0.14 ( 111-> 115)    0.13 ( 113-> 118)
   3   3.181     389.8   0.119665   0.116433  -5.465971   7.977585     0.27 ( 113-> 115)    0.25 ( 111-> 114)    0.12 ( 112-> 114)
   4   3.298     375.9   0.118927   0.115766  -56.468227  -54.294285     0.31 ( 112-> 116)    0.29 ( 113-> 116)    0.07 ( 110-> 116)
   5   3.395     365.1   0.338985   0.313633  146.733226  141.613824     0.47 ( 113-> 117)    0.10 ( 111-> 117)    0.10 ( 113-> 114)
   6   3.533     350.9   0.002649   0.003102  -5.689287  -6.708100     0.41 ( 112-> 114)    0.21 ( 112-> 115)    0.09 ( 113-> 118)
   7   3.599     344.5   0.138083   0.129612  -80.670558  -84.725245     0.35 ( 113-> 118)    0.23 ( 112-> 114)    0.10 ( 111-> 117)
   8   3.704     334.7   0.163794   0.144820  -31.077028  -12.590238     0.14 ( 112-> 115)    0.07 ( 109-> 115)    0.06 ( 105-> 115)
   9   3.800     326.3   0.141111   0.126231  -0.865141  -3.908414     0.20 ( 107-> 114)    0.15 ( 113-> 117)    0.12 ( 108-> 114)
  10   3.855     321.6   0.101035   0.090786  -187.426463  -173.351628     0.29 ( 108-> 115)    0.10 ( 107-> 114)    0.08 ( 113-> 116)
  11   3.873     320.1   0.039992   0.033578  111.870165  97.132520     0.33 ( 103-> 114)    0.14 ( 106-> 114)    0.10 ( 104-> 114)
  12   3.878     319.7   0.164793   0.147319  149.393728  110.453248     0.17 ( 113-> 116)    0.07 ( 113-> 118)    0.06 ( 109-> 115)
  13   3.934     315.2   0.104552   0.095206  123.516910  122.981716     0.41 ( 111-> 115)    0.14 ( 111-> 114)    0.06 ( 111-> 116)
  14   3.998     310.1   0.045074   0.041712  -59.742127  -63.219135     0.18 (  99-> 114)    0.12 ( 101-> 114)    0.12 ( 111-> 117)
  15   4.017     308.6   0.352481   0.311656  13.895005   5.282946     0.17 ( 111-> 117)    0.09 ( 107-> 114)    0.06 ( 101-> 114)
  16   4.053     305.9   0.061310   0.055208  -30.960648  -43.656558     0.11 ( 111-> 115)    0.11 ( 111-> 117)    0.10 ( 112-> 116)
  17   4.134     299.9   0.102718   0.088816  94.327687  138.829767     0.08 ( 112-> 116)    0.08 ( 105-> 115)    0.07 ( 110-> 114)
  18   4.175     296.9   0.045175   0.041740  40.437342  51.178331     0.31 ( 112-> 118)    0.14 ( 112-> 117)    0.06 ( 112-> 114)
  19   4.237     292.6   0.179720   0.157196  -181.760387  -183.587018     0.20 ( 110-> 114)    0.12 (  97-> 115)    0.11 ( 100-> 115)
  20   4.255     291.4   0.043922   0.040260  -125.619747  -120.269752     0.12 ( 107-> 114)    0.11 ( 110-> 114)    0.10 ( 109-> 114)
  21   4.273     290.1   0.072095   0.061926  -68.763595  -64.442979     0.19 ( 109-> 114)    0.17 ( 110-> 114)    0.07 (  99-> 117)
  22   4.302     288.2   0.062048   0.055572  222.839182  216.850328     0.25 ( 110-> 115)    0.15 ( 110-> 114)    0.09 ( 112-> 117)
  23   4.372     283.6   0.221932   0.195567  92.480520  98.729836     0.44 ( 113-> 119)    0.10 ( 112-> 117)    0.05 ( 113-> 121)
  24   4.405     281.5   0.159990   0.134604  -776.269750  -710.092641     0.16 (  99-> 114)    0.08 ( 109-> 114)    0.06 ( 110-> 115)
  25   4.407     281.3   0.243149   0.211224  519.208970  483.114761     0.12 (  99-> 114)    0.06 ( 110-> 115)    0.06 ( 108-> 114)
  26   4.445     278.9   0.073344   0.063784  -59.469575  -68.218556     0.13 ( 104-> 115)    0.08 ( 104-> 114)    0.07 ( 103-> 115)
  27   4.456     278.2   0.378337   0.326221  250.469544  226.993978     0.43 ( 112-> 117)    0.15 ( 112-> 118)    0.13 ( 113-> 119)
  28   4.506     275.1   0.159558   0.131288  -214.682843  -194.974034     0.13 ( 109-> 114)    0.10 (  98-> 114)    0.08 ( 107-> 117)
  29   4.532     273.6   0.442791   0.368694  469.261824  446.014484     0.30 ( 111-> 118)    0.14 ( 111-> 116)    0.09 ( 109-> 115)
  30   4.584     270.5   0.140516   0.114706  -194.399012  -191.808909     0.16 ( 109-> 115)    0.10 ( 110-> 115)    0.07 ( 111-> 118)
  31   4.617     268.5   0.275957   0.218840  -217.910889  -163.496770     0.19 ( 100-> 115)    0.15 ( 108-> 116)    0.09 ( 109-> 116)
  32   4.653     266.4   0.057379   0.048280  -41.696374  -40.155749     0.69 ( 113-> 124)    0.05 ( 113-> 123)    0.04 ( 109-> 115)
  33   4.675     265.2   0.028184   0.022460  260.558796  224.810560     0.13 ( 111-> 116)    0.11 ( 113-> 123)    0.09 ( 107-> 117)
  34   4.705     263.5   0.248169   0.197252  -179.412527  -163.846842     0.14 ( 107-> 117)    0.09 ( 108-> 117)    0.07 (  99-> 114)
  35   4.749     261.1   0.017303   0.013785  -80.285443  -72.144554     0.10 ( 113-> 123)    0.08 ( 111-> 116)    0.07 ( 113-> 121)
  36   4.798     258.4   0.009133   0.009668  -16.811171  -18.768124     0.17 ( 111-> 118)    0.16 ( 111-> 116)    0.06 ( 103-> 117)
  37   4.832     256.6   0.094771   0.075654  124.652901  98.190601     0.14 ( 103-> 117)    0.10 ( 111-> 116)    0.09 ( 111-> 118)
  38   4.837     256.3   0.014619   0.011179  22.108349  22.907721     0.14 ( 106-> 116)    0.12 ( 105-> 116)    0.11 (  97-> 116)
  39   4.864     254.9   0.113158   0.092073  -130.781744  -113.440430     0.08 ( 106-> 114)    0.06 ( 106-> 115)    0.06 ( 111-> 118)
  40   4.896     253.2   0.001079   0.001179  26.226457  28.474441     0.14 ( 106-> 115)    0.10 ( 105-> 114)    0.08 ( 113-> 122)
  41   4.915     252.3   0.024084   0.019425  -8.529254  -1.802695     0.15 ( 106-> 114)    0.12 ( 105-> 114)    0.11 ( 110-> 118)
  42   4.934     251.3   0.017619   0.014656  12.803552  13.797619     0.13 ( 105-> 115)    0.07 ( 106-> 115)    0.06 ( 107-> 115)
  43   4.951     250.4   0.066456   0.052030  12.856452  10.141150     0.18 ( 113-> 122)    0.13 ( 110-> 118)    0.12 ( 110-> 117)

-----------------------------------------------------------------------------
         ABSORPTION SPECTRUM VIA TRANSITION ELECTRIC DIPOLE MOMENTS
-----------------------------------------------------------------------------
State   Energy  Wavelength   fosc         T2         TX        TY        TZ  
        (cm-1)    (nm)                  (au**2)     (au)      (au)      (au) 
-----------------------------------------------------------------------------
   0   20368.0    491.0   0.483428402   7.81373   0.99005   2.19821   1.41471
   1   21814.1    458.4   0.964161369  14.55085  -1.68932  -0.16869   3.41593
   2   24997.5    400.0   0.059946668   0.78949  -0.52575   0.12770   0.70482
   3   25653.5    389.8   0.119664978   1.53566   0.96217   0.57942  -0.52360
   4   26599.5    375.9   0.118926540   1.47191  -0.14307   0.07792   1.20223
   5   27386.0    365.1   0.338984914   4.07500  -1.06651  -1.70528   0.17194
   6   28495.3    350.9   0.002648946   0.03060   0.02689   0.01878   0.17184
   7   29027.3    344.5   0.138083280   1.56607   0.23574  -0.05624  -1.22773
   8   29875.3    334.7   0.163793573   1.80493  -0.22329  -0.42765   1.25387
   9   30647.4    326.3   0.141111058   1.51580  -0.93005  -0.32570   0.73805
  10   31096.3    321.6   0.101034610   1.06964  -0.47755   0.89186   0.21488
  11   31240.9    320.1   0.039991575   0.42143  -0.41527  -0.36624  -0.33889
  12   31274.6    319.7   0.164793341   1.73470  -0.19767  -0.89234   0.94834
  13   31726.8    315.2   0.104551724   1.08488   0.54110   0.75276  -0.47481
  14   32244.3    310.1   0.045074203   0.46020   0.51527   0.29665  -0.32665
  15   32401.7    308.6   0.352480763   3.58133  -1.41980  -0.95519   0.80814
  16   32688.0    305.9   0.061309725   0.61747  -0.12517  -0.01106   0.77568
  17   33341.5    299.9   0.102717511   1.01423  -0.05532  -0.44621   0.90114
  18   33677.4    296.9   0.045175463   0.44161   0.03682   0.39163   0.53561
  19   34174.4    292.6   0.179720440   1.73130   0.96201  -0.23030  -0.86763
  20   34321.2    291.4   0.043921504   0.42130  -0.59804  -0.12338   0.22005
  21   34465.1    290.1   0.072095142   0.68866  -0.55505  -0.19707   0.58459
  22   34696.9    288.2   0.062048300   0.58873  -0.17777  -0.61258   0.42646
  23   35265.5    283.6   0.221931532   2.07179   0.61095   1.04206  -0.78271
  24   35525.2    281.5   0.159989579   1.48262   0.88277  -0.61129  -0.57415
  25   35545.1    281.3   0.243148607   2.25199   0.09182   1.15759  -0.95056
  26   35853.4    278.9   0.073344069   0.67346   0.22944  -0.78633   0.04997
  27   35940.5    278.2   0.378337334   3.46554  -0.75993  -0.85948   1.46606
  28   36344.9    275.1   0.159557914   1.44527   0.99593   0.54187  -0.39971
  29   36555.3    273.6   0.442790764   3.98771  -0.61784  -1.43171   1.24747
  30   36969.8    270.5   0.140516376   1.25128   0.61109  -0.32674  -0.87812
  31   37238.3    268.5   0.275956555   2.43964   0.74161  -1.32635  -0.36118
  32   37531.4    266.4   0.057378517   0.50330   0.07485  -0.56304   0.42508
  33   37707.5    265.2   0.028183924   0.24606   0.38075  -0.28067   0.14939
  34   37951.5    263.5   0.248168940   2.15275   0.21880   0.09163  -1.44792
  35   38302.0    261.1   0.017303037   0.14872   0.13577  -0.19197   0.30567
  36   38701.6    258.4   0.009133204   0.07769   0.15587   0.22573  -0.04939
  37   38974.8    256.6   0.094771344   0.80051  -0.69650  -0.49088   0.27283
  38   39012.6    256.3   0.014619276   0.12337  -0.15347   0.31123  -0.05431
  39   39230.9    254.9   0.113157598   0.94958   0.28035  -0.06199  -0.93120
  40   39490.9    253.2   0.001079474   0.00900   0.07056  -0.00637   0.06308
  41   39642.1    252.3   0.024083738   0.20001  -0.08399   0.18609   0.39790
  42   39791.7    251.3   0.017618652   0.14577   0.05294  -0.29091   0.24152
  43   39934.6    250.4   0.066456395   0.54785   0.42164   0.26913  -0.54557

-----------------------------------------------------------------------------
         ABSORPTION SPECTRUM VIA TRANSITION VELOCITY DIPOLE MOMENTS
-----------------------------------------------------------------------------
State   Energy  Wavelength   fosc         P2         PX        PY        PZ  
        (cm-1)    (nm)                  (au**2)     (au)      (au)      (au) 
-----------------------------------------------------------------------------
   0   20368.0    491.0   0.498922170   0.06945   0.09397   0.20651   0.13407
   1   21814.1    458.4   0.981023832   0.14626  -0.17175  -0.01462   0.34139
   2   24997.5    400.0   0.061588510   0.01052  -0.05927   0.02074   0.08111
   3   25653.5    389.8   0.116432932   0.02041   0.11260   0.06320  -0.06117
   4   26599.5    375.9   0.115766451   0.02105  -0.01628   0.01212   0.14364
   5   27386.0    365.1   0.313633323   0.05870  -0.12944  -0.20364   0.02190
   6   28495.3    350.9   0.003102300   0.00060   0.00218   0.00080   0.02447
   7   29027.3    344.5   0.129612224   0.02571   0.03048  -0.00437  -0.15737
   8   29875.3    334.7   0.144819773   0.02957  -0.03127  -0.05732   0.15908
   9   30647.4    326.3   0.126230795   0.02644  -0.12207  -0.04237   0.09872
  10   31096.3    321.6   0.090786455   0.01929  -0.06292   0.12003   0.03048
  11   31240.9    320.1   0.033578093   0.00717  -0.05059  -0.05327  -0.04211
  12   31274.6    319.7   0.147319097   0.03149  -0.02303  -0.12062   0.12810
  13   31726.8    315.2   0.095206062   0.02064   0.07695   0.10315  -0.06390
  14   32244.3    310.1   0.041711506   0.00919   0.06887   0.04460  -0.04961
  15   32401.7    308.6   0.311656366   0.06902  -0.19559  -0.13366   0.11355
  16   32688.0    305.9   0.055208366   0.01233  -0.01579  -0.00472   0.10983
  17   33341.5    299.9   0.088815772   0.02024  -0.01826  -0.06115   0.12714
  18   33677.4    296.9   0.041739888   0.00961   0.00591   0.06202   0.07567
  19   34174.4    292.6   0.157195787   0.03672   0.13824  -0.03189  -0.12879
  20   34321.2    291.4   0.040260253   0.00944  -0.08829  -0.01982   0.03543
  21   34465.1    290.1   0.061925554   0.01459  -0.08182  -0.02781   0.08437
  22   34696.9    288.2   0.055571727   0.01318  -0.02923  -0.09084   0.06382
  23   35265.5    283.6   0.195566571   0.04714   0.09436   0.15522  -0.11890
  24   35525.2    281.5   0.134604356   0.03268   0.13037  -0.09117  -0.08586
  25   35545.1    281.3   0.211224360   0.05131   0.01390   0.17291  -0.14568
  26   35853.4    278.9   0.063783866   0.01563   0.03688  -0.11917   0.00830
  27   35940.5    278.2   0.326221143   0.08013  -0.11476  -0.12798   0.22491
  28   36344.9    275.1   0.131287572   0.03261   0.14987   0.08091  -0.06004
  29   36555.3    273.6   0.368694492   0.09211  -0.09601  -0.21671   0.18956
  30   36969.8    270.5   0.114705970   0.02898   0.09278  -0.04567  -0.13523
  31   37238.3    268.5   0.218840255   0.05570   0.10989  -0.20239  -0.05156
  32   37531.4    266.4   0.048280496   0.01238   0.01174  -0.08880   0.06604
  33   37707.5    265.2   0.022459565   0.00579   0.06085  -0.04102   0.02008
  34   37951.5    263.5   0.197251515   0.05116   0.03240   0.01297  -0.22348
  35   38302.0    261.1   0.013784501   0.00361   0.01963  -0.03267   0.04643
  36   38701.6    258.4   0.009667741   0.00256   0.02862   0.04015  -0.01123
  37   38974.8    256.6   0.075653750   0.02015  -0.10763  -0.08068   0.04536
  38   39012.6    256.3   0.011178996   0.00298  -0.02026   0.05002  -0.00829
  39   39230.9    254.9   0.092073141   0.02469   0.04726  -0.00901  -0.14957
  40   39490.9    253.2   0.001179279   0.00032   0.01232  -0.00322   0.01249
  41   39642.1    252.3   0.019425284   0.00526  -0.01753   0.03048   0.06346
  42   39791.7    251.3   0.014655724   0.00399   0.00721  -0.04805   0.04031
  43   39934.6    250.4   0.052029779   0.01420   0.06750   0.04263  -0.08847

-------------------------------------------------------------------
                             CD SPECTRUM
-------------------------------------------------------------------
State   Energy Wavelength       R         MX        MY        MZ   
        (cm-1)   (nm)       (1e40*cgs)   (au)      (au)      (au)  
-------------------------------------------------------------------
   0   20368.0    491.0     94.65136   2.04261  -1.01561  -0.13523
   1   21814.1    458.4    -158.25551   7.40366  -4.01163   3.65984
   2   24997.5    400.0    -140.59281   0.27471  -0.25134   1.09668
   3   25653.5    389.8     -5.46597  -1.79131   1.40859  -1.77726
   4   26599.5    375.9    -56.46823   3.88013  -1.37218   0.74994
   5   27386.0    365.1    146.73323   0.96638  -0.13697   1.01549
   6   28495.3    350.9     -5.68929   0.21855  -0.32975   0.14230
   7   29027.3    344.5    -80.67056  -3.10588   1.57842  -0.94742
   8   29875.3    334.7    -31.07703   4.49409  -1.22230   0.48858
   9   30647.4    326.3     -0.86514   0.89755  -0.22120   1.03840
  10   31096.3    321.6    -187.42646  -3.11563  -0.99019   0.88582
  11   31240.9    320.1    111.87017   0.56280   0.03313   0.67496
  12   31274.6    319.7    149.39373   5.12184  -0.47641  -0.04899
  13   31726.8    315.2    123.51691  -1.08136  -0.23423  -0.50008
  14   32244.3    310.1    -59.74213  -0.10804   0.22175  -0.74495
  15   32401.7    308.6     13.89501   1.35389  -0.56974   1.63227
  16   32688.0    305.9    -30.96065   3.20652  -0.88646   0.67413
  17   33341.5    299.9     94.32769   3.15255  -0.03422  -0.26747
  18   33677.4    296.9     40.43734   1.94740  -1.56067   0.68699
  19   34174.4    292.6    -181.76039  -0.64875   1.67521  -2.05270
  20   34321.2    291.4    -125.61975  -0.75468   0.49769   0.64977
  21   34465.1    290.1    -68.76360  -0.45734   0.07390   0.08969
  22   34696.9    288.2    222.83918   1.72304   0.67000  -0.53608
  23   35265.5    283.6     92.48052  -3.51324   0.73208  -1.26637
  24   35525.2    281.5    -776.26975   3.08562   0.75660  -1.79700
  25   35545.1    281.3    519.20897  -5.97605  -1.02592   0.49055
  26   35853.4    278.9    -59.46957   4.40039   0.94208  -0.33157
  27   35940.5    278.2    250.46954   6.03618  -1.46573   1.54480
  28   36344.9    275.1    -214.68284   0.53504  -0.04957  -1.01260
  29   36555.3    273.6    469.26182   5.87396  -0.22779   1.05198
  30   36969.8    270.5    -194.39901   0.65304   2.34999  -1.35910
  31   37238.3    268.5    -217.91089   4.67813   2.53570  -2.26573
  32   37531.4    266.4    -41.69637   1.31319  -1.14023  -1.32541
  33   37707.5    265.2    260.55880  -0.82577   2.21494  -1.13315
  34   37951.5    263.5    -179.41253  -1.33920  -0.75452  -0.77578
  35   38302.0    261.1    -80.28544   1.89511  -1.01444  -0.36459
  36   38701.6    258.4    -16.81117  -0.22345   0.33097  -0.63643
  37   38974.8    256.6    124.65290   1.79801  -0.78905   1.23218
  38   39012.6    256.3     22.10835  -0.59119  -0.43458   0.90704
  39   39230.9    254.9    -130.78174  -1.46233   0.18043  -1.04806
  40   39490.9    253.2     26.22646  -1.05347   0.73747  -0.51083
  41   39642.1    252.3     -8.52925   0.97034  -0.47674   0.51870
  42   39791.7    251.3     12.80355   1.03634   0.27741  -0.11790
  43   39934.6    250.4     12.85645  -1.92656   0.64998  -1.06834

sTD-DFT done

Total run time:        7.495 sec

           *** ORCA-CIS/TD-DFT FINISHED WITHOUT ERROR ***

-------------------------   --------------------
FINAL SINGLE POINT ENERGY     -6016.552389361384
-------------------------   --------------------


                            ***************************************
                            *     ORCA property calculations      *
                            ***************************************

                                    ---------------------
                                    Active property flags
                                    ---------------------
   (+) Dipole Moment


------------------------------------------------------------------------------
                       ORCA ELECTRIC PROPERTIES CALCULATION
------------------------------------------------------------------------------

Dipole Moment Calculation                       ... on
Quadrupole Moment Calculation                   ... off
Polarizability Calculation                      ... off
GBWName                                         ... xtbopt.gbw
Electron density file                           ... xtbopt.scfp
The origin for moment calculation is the CENTER OF MASS  = (-1.630517, -15.457551 -8.790838)

-------------
DIPOLE MOMENT
-------------
                                X             Y             Z
Electronic contribution:     62.76177      64.14999     -60.13153
Nuclear contribution   :    -63.20423     -64.15420      60.91774
                        -----------------------------------------
Total Dipole Moment    :     -0.44245      -0.00421       0.78621
                        -----------------------------------------
Magnitude (a.u.)       :      0.90217
Magnitude (Debye)      :      2.29314



--------------------
Rotational spectrum 
--------------------
 
Rotational constants in cm-1:     0.000470     0.000335     0.000210 
Rotational constants in MHz :    14.104603    10.054242     6.286234 

 Dipole components along the rotational axes: 
x,y,z [a.u.] :     0.774098    -0.434707     0.160356 
x,y,z [Debye]:     1.967601    -1.104937     0.407593 

 

Timings for individual modules:

Sum of individual times         ...     1187.526 sec (=  19.792 min)
GTO integral calculation        ...        5.471 sec (=   0.091 min)   0.5 %
SCF iterations                  ...     1173.639 sec (=  19.561 min)  98.8 %
CIS module                      ...        8.416 sec (=   0.140 min)   0.7 %
                             ****ORCA TERMINATED NORMALLY****
TOTAL RUN TIME: 0 days 0 hours 19 minutes 48 seconds 770 msec
