
                                 *****************
                                 * O   R   C   A *
                                 *****************

           --- An Ab Initio, DFT and Semiempirical electronic structure package ---

                  #######################################################
                  #                        -***-                        #
                  #          Department of theory and spectroscopy      #
                  #               Directorship: Frank Neese             #
                  #        Max Planck Institute fuer Kohlenforschung    #
                  #                Kaiser Wilhelm Platz 1               #
                  #                 D-45470 Muelheim/Ruhr               #
                  #                      Germany                        #
                  #                                                     #
                  #                  All rights reserved                #
                  #                        -***-                        #
                  #######################################################


                         Program Version 4.2.0 -  RELEASE  -


 With contributions from (in alphabetic order):
   Daniel Aravena         : Magnetic Suceptibility
   Michael Atanasov       : Ab Initio Ligand Field Theory (pilot matlab implementation)
   Alexander A. Auer      : GIAO ZORA, VPT2
   Ute Becker             : Parallelization
   Giovanni Bistoni       : ED, misc. LED, open-shell LED, HFLED
   Martin Brehm           : Molecular dynamics
   Dmytro Bykov           : SCF Hessian
   Vijay G. Chilkuri      : MRCI spin determinant printing, contributions to CSF-ICE
   Dipayan Datta          : RHF DLPNO-CCSD density
   Achintya Kumar Dutta   : EOM-CC, STEOM-CC
   Dmitry Ganyushin       : Spin-Orbit,Spin-Spin,Magnetic field MRCI
   Miquel Garcia          : C-PCM Hessian, Gaussian charge scheme
   Yang Guo               : DLPNO-NEVPT2, CIM, IAO-localization
   Andreas Hansen         : Spin unrestricted coupled pair/coupled cluster methods
   Benjamin Helmich-Paris : CASSCF linear response (MC-RPA)
   Lee Huntington         : MR-EOM, pCC
   Robert Izsak           : Overlap fitted RIJCOSX, COSX-SCS-MP3, EOM
   Christian Kollmar      : KDIIS, OOCD, Brueckner-CCSD(T), CCSD density
   Simone Kossmann        : Meta GGA functionals, TD-DFT gradient, OOMP2, MP2 Hessian
   Martin Krupicka        : AUTO-CI
   Lucas Lang             : DCDCAS
   Dagmar Lenk            : GEPOL surface, SMD
   Dimitrios Liakos       : Extrapolation schemes; Compound Job, initial MDCI parallelization
   Dimitrios Manganas     : Further ROCIS development; embedding schemes
   Dimitrios Pantazis     : SARC Basis sets
   Taras Petrenko         : DFT Hessian,TD-DFT gradient, ASA, ECA, R-Raman, ABS, FL, XAS/XES, NRVS
   Peter Pinski           : DLPNO-MP2, DLPNO-MP2 Gradient
   Christoph Reimann      : Effective Core Potentials
   Marius Retegan         : Local ZFS, SOC
   Christoph Riplinger    : Optimizer, TS searches, QM/MM, DLPNO-CCSD(T), (RO)-DLPNO pert. Triples
   Tobias Risthaus        : Range-separated hybrids, TD-DFT gradient, RPA, STAB
   Michael Roemelt        : Original ROCIS implementation
   Masaaki Saitow         : Open-shell DLPNO-CCSD energy and density
   Barbara Sandhoefer     : DKH picture change effects
   Avijit Sen             : IP-ROCIS
   Kantharuban Sivalingam : CASSCF convergence, NEVPT2, FIC-MRCI
   Bernardo de Souza      : ESD, SOC TD-DFT
   Georgi Stoychev        : AutoAux, RI-MP2 NMR
   Willem Van den Heuvel  : Paramagnetic NMR
   Boris Wezisla          : Elementary symmetry handling
   Frank Wennmohs         : Technical directorship


 We gratefully acknowledge several colleagues who have allowed us to
 interface, adapt or use parts of their codes:
   Stefan Grimme, W. Hujo, H. Kruse,             : VdW corrections, initial TS optimization,
                  C. Bannwarth                     DFT functionals, gCP, sTDA/sTD-DF
   Ed Valeev, F. Pavosevic, A. Kumar             : LibInt (2-el integral package), F12 methods
   Garnet Chan, S. Sharma, J. Yang, R. Olivares  : DMRG
   Ulf Ekstrom                                   : XCFun DFT Library
   Mihaly Kallay                                 : mrcc  (arbitrary order and MRCC methods)
   Andreas Klamt, Michael Diedenhofen            : otool_cosmo (COSMO solvation model)
   Jiri Pittner, Ondrej Demel                    : Mk-CCSD
   Frank Weinhold                                : gennbo (NPA and NBO analysis)
   Christopher J. Cramer and Donald G. Truhlar   : smd solvation model
   Lars Goerigk                                  : TD-DFT with DH, B97 family of functionals
   V. Asgeirsson, H. Jonsson                     : NEB implementation
   FAccTs GmbH                                   : IRC, NEB, NEB-TS, Multilevel, MM, QM/MM, CI optimization
   S Lehtola, MJT Oliveira, MAL Marques          : LibXC Library


 Your calculation uses the libint2 library for the computation of 2-el integrals
 For citations please refer to: http://libint.valeyev.net

 Your ORCA version has been built with support for libXC version: 4.2.3
 For citations please refer to: https://tddft.org/programs/libxc/

 This ORCA versions uses:
   CBLAS   interface :  Fast vector & matrix operations
   LAPACKE interface :  Fast linear algebra routines
   SCALAPACK package :  Parallel linear algebra routines


XCFun DFT library Copyright 2009-2010 Ulf Ekstrom and contributors.
See http://admol.org/xcfun for more information. This is free soft-
ware; see the source code for copying conditions. There is ABSOLUTELY
NO WARRANTY; not even for MERCHANTABILITY or FITNESS FOR A PARTICULAR
PURPOSE. For details see the documentation. Scientific users of this 
library should cite U. Ekstrom, L. Visscher, R. Bast, A. J. Thorvald-
sen and K. Ruud; J.Chem.Theor.Comp. 2010, DOI: 10.1021/ct100117s
XCFun Version 0.99 
----- Orbital basis set information -----
Your calculation utilizes the basis: def2-SVP
   F. Weigend and R. Ahlrichs, Phys. Chem. Chem. Phys. 7, 3297 (2005).

----- AuxJ basis set information -----
Your calculation utilizes the auxiliary basis: def2/J
   F. Weigend, Phys. Chem. Chem. Phys. 8, 1057 (2006).

================================================================================
                                        WARNINGS
                       Please study these warnings very carefully!
================================================================================

INFO   : Checking CIS options ...

WARNING: CIS/ROCIS methods need fully converged wavefunctions
  ===> : Setting SCFConvForced true
         You can overwrite this default with %scf ConvForced false 


INFO   : the flag for use of LIBINT has been found!

================================================================================
                                       INPUT FILE
================================================================================
NAME = xtbopt.inp
|  1> # ORCA input file
|  2> # SCF done       -218.968452012045          0.000735339205
|  3> ! CAM-B3LYP def2-SVP def2/J RIJCOSX Grid4 TightSCF
|  4> %maxcore 5000
|  5> %tddft
|  6>     Mode sTDDFT
|  7>     Ethresh 5.0
|  8>     maxcore 5000
|  9> end
| 10> 
| 11> %pal
| 12>   nprocs 6
| 13>   end
| 14> * xyz 0 1
| 15>    C        3.82309        -2.71305        -2.14891
| 16>    C        4.20112        -3.65781        -1.23430
| 17>    C        5.48417        -4.24216        -1.19608
| 18>    N        6.50636        -4.76087        -1.14214
| 19>    C        3.38114        -4.08454        -0.16725
| 20>    N        2.79111        -4.41338         0.76056
| 21>    C        4.71467        -2.01981        -3.07444
| 22>    C        4.10384        -0.81789        -3.47914
| 23>    C        4.74085         0.06755        -4.32479
| 24>    C        6.00983        -0.25827        -4.78737
| 25>    C        6.61733        -1.45911        -4.40034
| 26>    C        5.97832        -2.34413        -3.53930
| 27>   Cl        8.17872        -1.85462        -4.99427
| 28>   Cl        6.83398         0.81796        -5.84096
| 29>    C        2.75400        -0.71980        -2.87965
| 30>    O        1.96795         0.19349        -2.96288
| 31>    C        2.54541        -2.02361        -2.19288
| 32>    C        1.30221        -2.41288        -1.82146
| 33>    C        0.85808        -3.73919        -1.48202
| 34>    C       -0.14465        -3.89704        -0.51357
| 35>    C       -0.53456        -5.16191        -0.14863
| 36>    C       -0.01486        -6.28480        -0.81912
| 37>    C        0.93758        -6.13496        -1.81880
| 38>    C        1.38613        -4.86822        -2.12404
| 39>    C       -0.66726        -7.46940        -0.30964
| 40>    C       -1.58503        -7.08135         0.68124
| 41>    C       -1.51634        -5.58795         0.91645
| 42>    C       -0.92604        -5.38349         2.33370
| 43>    C       -0.48388        -3.96548         2.66789
| 44>    C       -2.88316        -4.90581         0.76616
| 45>    C       -3.51656        -5.17283        -0.59466
| 46>    C       -2.35383        -8.01496         1.33135
| 47>    C       -2.22137        -9.37143         0.99723
| 48>    C       -1.30427        -9.74198         0.00502
| 49>    C       -0.52919        -8.80800        -0.64933
| 50>    C       -3.00068       -10.37774         1.67789
| 51>    S       -2.70344       -12.08058         1.35511
| 52>    C       -3.90689       -12.54042         2.49758
| 53>    C       -4.50146       -11.42040         3.08079
| 54>    C       -3.98900       -10.20439         2.61697
| 55>    S       -5.72082       -11.83778         4.25328
| 56>    C       -5.41806       -13.52827         3.95917
| 57>    C       -5.94627       -14.70800         4.48992
| 58>    C       -5.36858       -15.83052         3.93966
| 59>    S       -4.15108       -15.42093         2.73825
| 60>    C       -4.42818       -13.73987         2.99600
| 61>    C       -5.65844       -17.18527         4.26936
| 62>    C       -5.06298       -18.24743         3.69233
| 63>    C       -5.28253       -19.63998         3.99369
| 64>    C       -4.60069       -20.60036         3.22798
| 65>    C       -4.76684       -21.93542         3.49844
| 66>    C       -5.61211       -22.35205         4.54263
| 67>    C       -6.29824       -21.41393         5.30343
| 68>    C       -6.13015       -20.07430         5.02381
| 69>    C       -5.57812       -23.79385         4.61565
| 70>    C       -4.71306       -24.27212         3.61123
| 71>    C       -4.13644       -23.12551         2.81466
| 72>    C       -4.55753       -23.20878         1.33496
| 73>    C       -6.06963       -23.25874         1.15101
| 74>    C       -2.60020       -23.08445         2.91359
| 75>    C       -2.10156       -22.99415         4.35078
| 76>    C       -4.48716       -25.61523         3.47224
| 77>    C       -5.15312       -26.52800         4.31673
| 78>    C       -5.99244       -26.03401         5.32820
| 79>    C       -6.20397       -24.68044         5.48274
| 80>    C       -4.86730       -27.91964         4.13407
| 81>    C       -5.60802       -29.02250         4.44130
| 82>    C       -5.13421       -30.39172         4.29614
| 83>    C       -3.83991       -30.79776         4.10690
| 84>    C       -3.44373       -32.14808         3.99388
| 85>    N       -3.05403       -33.22216         3.88615
| 86>    C       -2.71235       -29.95254         4.01950
| 87>    N       -1.73791       -29.34833         3.95327
| 88>    C       -6.27859       -31.28111         4.46639
| 89>    C       -7.41471       -30.50585         4.74920
| 90>    C       -7.05668       -29.06984         4.76666
| 91>    O       -7.82668       -28.15368         4.94756
| 92>    C       -8.65290       -31.07619         4.96319
| 93>    C       -8.76075       -32.45928         4.89759
| 94>    C       -7.63448       -33.24086         4.61484
| 95>    C       -6.38996       -32.66103         4.39722
| 96>   Cl       -7.78247       -34.94989         4.53100
| 97>   Cl      -10.28163       -33.21009         5.16446
| 98>    H        4.26330         0.98930        -4.61741
| 99>    H        6.47162        -3.26168        -3.26180
|100>    H        0.54653        -1.63349        -1.83100
|101>    H       -0.56308        -3.01967        -0.04523
|102>    H        1.32329        -6.99412        -2.34629
|103>    H        2.11968        -4.73227        -2.90625
|104>    H       -0.06207        -6.04432         2.43501
|105>    H       -1.68012        -5.70912         3.05405
|106>    H        0.37186        -3.67929         2.06277
|107>    H       -0.18465        -3.92271         3.71277
|108>    H       -1.28763        -3.24863         2.51930
|109>    H       -2.76414        -3.83017         0.90100
|110>    H       -3.54693        -5.26963         1.55313
|111>    H       -2.87896        -4.80179        -1.39427
|112>    H       -4.48105        -4.67518        -0.66460
|113>    H       -3.66765        -6.23956        -0.74566
|114>    H       -3.04944        -7.71176         2.09750
|115>    H       -1.20604       -10.78791        -0.24799
|116>    H        0.17299        -9.11695        -1.40860
|117>    H       -4.33877        -9.24964         2.96164
|118>    H       -6.71193       -14.74367         5.24296
|119>    H       -6.40727       -17.31219         5.03873
|120>    H       -4.33152       -18.05248         2.91622
|121>    H       -3.94803       -20.27392         2.43083
|122>    H       -6.95117       -21.72751         6.10415
|123>    H       -6.65756       -19.34550         5.61923
|124>    H       -4.10855       -24.10131         0.89424
|125>    H       -4.15734       -22.33937         0.80935
|126>    H       -6.49073       -24.13055         1.64706
|127>    H       -6.31515       -23.31373         0.09302
|128>    H       -6.53746       -22.36891         1.56660
|129>    H       -2.23779       -22.22255         2.34962
|130>    H       -2.19495       -23.98368         2.44552
|131>    H       -2.47347       -22.09195         4.83167
|132>    H       -1.01465       -22.96970         4.36714
|133>    H       -2.43406       -23.85357         4.92875
|134>    H       -3.81975       -25.99072         2.70966
|135>    H       -6.45663       -26.72212         6.01340
|136>    H       -6.84519       -24.31771         6.27146
|137>    H       -3.91723       -28.10387         3.64462
|138>    H       -9.51173       -30.46000         5.17783
|139>    H       -5.54733       -33.29549         4.17708
|140> *
|141> 
|142>                          ****END OF INPUT****
================================================================================

                       ****************************
                       * Single Point Calculation *
                       ****************************

---------------------------------
CARTESIAN COORDINATES (ANGSTROEM)
---------------------------------
  C      3.823090   -2.713050   -2.148910
  C      4.201120   -3.657810   -1.234300
  C      5.484170   -4.242160   -1.196080
  N      6.506360   -4.760870   -1.142140
  C      3.381140   -4.084540   -0.167250
  N      2.791110   -4.413380    0.760560
  C      4.714670   -2.019810   -3.074440
  C      4.103840   -0.817890   -3.479140
  C      4.740850    0.067550   -4.324790
  C      6.009830   -0.258270   -4.787370
  C      6.617330   -1.459110   -4.400340
  C      5.978320   -2.344130   -3.539300
  Cl     8.178720   -1.854620   -4.994270
  Cl     6.833980    0.817960   -5.840960
  C      2.754000   -0.719800   -2.879650
  O      1.967950    0.193490   -2.962880
  C      2.545410   -2.023610   -2.192880
  C      1.302210   -2.412880   -1.821460
  C      0.858080   -3.739190   -1.482020
  C     -0.144650   -3.897040   -0.513570
  C     -0.534560   -5.161910   -0.148630
  C     -0.014860   -6.284800   -0.819120
  C      0.937580   -6.134960   -1.818800
  C      1.386130   -4.868220   -2.124040
  C     -0.667260   -7.469400   -0.309640
  C     -1.585030   -7.081350    0.681240
  C     -1.516340   -5.587950    0.916450
  C     -0.926040   -5.383490    2.333700
  C     -0.483880   -3.965480    2.667890
  C     -2.883160   -4.905810    0.766160
  C     -3.516560   -5.172830   -0.594660
  C     -2.353830   -8.014960    1.331350
  C     -2.221370   -9.371430    0.997230
  C     -1.304270   -9.741980    0.005020
  C     -0.529190   -8.808000   -0.649330
  C     -3.000680  -10.377740    1.677890
  S     -2.703440  -12.080580    1.355110
  C     -3.906890  -12.540420    2.497580
  C     -4.501460  -11.420400    3.080790
  C     -3.989000  -10.204390    2.616970
  S     -5.720820  -11.837780    4.253280
  C     -5.418060  -13.528270    3.959170
  C     -5.946270  -14.708000    4.489920
  C     -5.368580  -15.830520    3.939660
  S     -4.151080  -15.420930    2.738250
  C     -4.428180  -13.739870    2.996000
  C     -5.658440  -17.185270    4.269360
  C     -5.062980  -18.247430    3.692330
  C     -5.282530  -19.639980    3.993690
  C     -4.600690  -20.600360    3.227980
  C     -4.766840  -21.935420    3.498440
  C     -5.612110  -22.352050    4.542630
  C     -6.298240  -21.413930    5.303430
  C     -6.130150  -20.074300    5.023810
  C     -5.578120  -23.793850    4.615650
  C     -4.713060  -24.272120    3.611230
  C     -4.136440  -23.125510    2.814660
  C     -4.557530  -23.208780    1.334960
  C     -6.069630  -23.258740    1.151010
  C     -2.600200  -23.084450    2.913590
  C     -2.101560  -22.994150    4.350780
  C     -4.487160  -25.615230    3.472240
  C     -5.153120  -26.528000    4.316730
  C     -5.992440  -26.034010    5.328200
  C     -6.203970  -24.680440    5.482740
  C     -4.867300  -27.919640    4.134070
  C     -5.608020  -29.022500    4.441300
  C     -5.134210  -30.391720    4.296140
  C     -3.839910  -30.797760    4.106900
  C     -3.443730  -32.148080    3.993880
  N     -3.054030  -33.222160    3.886150
  C     -2.712350  -29.952540    4.019500
  N     -1.737910  -29.348330    3.953270
  C     -6.278590  -31.281110    4.466390
  C     -7.414710  -30.505850    4.749200
  C     -7.056680  -29.069840    4.766660
  O     -7.826680  -28.153680    4.947560
  C     -8.652900  -31.076190    4.963190
  C     -8.760750  -32.459280    4.897590
  C     -7.634480  -33.240860    4.614840
  C     -6.389960  -32.661030    4.397220
  Cl    -7.782470  -34.949890    4.531000
  Cl   -10.281630  -33.210090    5.164460
  H      4.263300    0.989300   -4.617410
  H      6.471620   -3.261680   -3.261800
  H      0.546530   -1.633490   -1.831000
  H     -0.563080   -3.019670   -0.045230
  H      1.323290   -6.994120   -2.346290
  H      2.119680   -4.732270   -2.906250
  H     -0.062070   -6.044320    2.435010
  H     -1.680120   -5.709120    3.054050
  H      0.371860   -3.679290    2.062770
  H     -0.184650   -3.922710    3.712770
  H     -1.287630   -3.248630    2.519300
  H     -2.764140   -3.830170    0.901000
  H     -3.546930   -5.269630    1.553130
  H     -2.878960   -4.801790   -1.394270
  H     -4.481050   -4.675180   -0.664600
  H     -3.667650   -6.239560   -0.745660
  H     -3.049440   -7.711760    2.097500
  H     -1.206040  -10.787910   -0.247990
  H      0.172990   -9.116950   -1.408600
  H     -4.338770   -9.249640    2.961640
  H     -6.711930  -14.743670    5.242960
  H     -6.407270  -17.312190    5.038730
  H     -4.331520  -18.052480    2.916220
  H     -3.948030  -20.273920    2.430830
  H     -6.951170  -21.727510    6.104150
  H     -6.657560  -19.345500    5.619230
  H     -4.108550  -24.101310    0.894240
  H     -4.157340  -22.339370    0.809350
  H     -6.490730  -24.130550    1.647060
  H     -6.315150  -23.313730    0.093020
  H     -6.537460  -22.368910    1.566600
  H     -2.237790  -22.222550    2.349620
  H     -2.194950  -23.983680    2.445520
  H     -2.473470  -22.091950    4.831670
  H     -1.014650  -22.969700    4.367140
  H     -2.434060  -23.853570    4.928750
  H     -3.819750  -25.990720    2.709660
  H     -6.456630  -26.722120    6.013400
  H     -6.845190  -24.317710    6.271460
  H     -3.917230  -28.103870    3.644620
  H     -9.511730  -30.460000    5.177830
  H     -5.547330  -33.295490    4.177080

----------------------------
CARTESIAN COORDINATES (A.U.)
----------------------------
  NO LB      ZA    FRAG     MASS         X           Y           Z
   0 C     6.0000    0    12.011    7.224593   -5.126921   -4.060851
   1 C     6.0000    0    12.011    7.938966   -6.912259   -2.332489
   2 C     6.0000    0    12.011   10.363579   -8.016521   -2.260264
   3 N     7.0000    0    14.007   12.295239   -8.996740   -2.158332
   4 C     6.0000    0    12.011    6.389429   -7.718662   -0.316057
   5 N     7.0000    0    14.007    5.274434   -8.340080    1.437250
   6 C     6.0000    0    12.011    8.909435   -3.816888   -5.809850
   7 C     6.0000    0    12.011    7.755134   -1.545588   -6.574622
   8 C     6.0000    0    12.011    8.958908    0.127651   -8.172669
   9 C     6.0000    0    12.011   11.356933   -0.488060   -9.046818
  10 C     6.0000    0    12.011   12.504941   -2.757318   -8.315437
  11 C     6.0000    0    12.011   11.297388   -4.429764   -6.688308
  12 Cl   17.0000    0    35.453   15.455541   -3.504724   -9.437803
  13 Cl   17.0000    0    35.453   12.914351    1.545720  -11.037815
  14 C     6.0000    0    12.011    5.204306   -1.360225   -5.441750
  15 O     8.0000    0    15.999    3.718887    0.365643   -5.599032
  16 C     6.0000    0    12.011    4.810128   -3.824069   -4.143943
  17 C     6.0000    0    12.011    2.460820   -4.559682   -3.442061
  18 C     6.0000    0    12.011    1.621536   -7.066045   -2.800612
  19 C     6.0000    0    12.011   -0.273349   -7.364338   -0.970507
  20 C     6.0000    0    12.011   -1.010172   -9.754596   -0.280870
  21 C     6.0000    0    12.011   -0.028081  -11.876551   -1.547912
  22 C     6.0000    0    12.011    1.771769  -11.593394   -3.437034
  23 C     6.0000    0    12.011    2.619406   -9.199603   -4.013854
  24 C     6.0000    0    12.011   -1.260939  -14.115120   -0.585135
  25 C     6.0000    0    12.011   -2.995273  -13.381812    1.287357
  26 C     6.0000    0    12.011   -2.865467  -10.559695    1.731840
  27 C     6.0000    0    12.011   -1.749962  -10.173322    4.410054
  28 C     6.0000    0    12.011   -0.914401   -7.493671    5.041581
  29 C     6.0000    0    12.011   -5.448383   -9.270637    1.447833
  30 C     6.0000    0    12.011   -6.645335   -9.775232   -1.123745
  31 C     6.0000    0    12.011   -4.448094  -15.146079    2.515887
  32 C     6.0000    0    12.011   -4.197781  -17.709436    1.884492
  33 C     6.0000    0    12.011   -2.464713  -18.409674    0.009486
  34 C     6.0000    0    12.011   -1.000024  -16.644708   -1.227056
  35 C     6.0000    0    12.011   -5.670463  -19.611086    3.170753
  36 S    16.0000    0    32.060   -5.108761  -22.828988    2.560787
  37 C     6.0000    0    12.011   -7.382952  -23.697959    4.719742
  38 C     6.0000    0    12.011   -8.506527  -21.581428    5.821849
  39 C     6.0000    0    12.011   -7.538118  -19.283502    4.945357
  40 S    16.0000    0    32.060  -10.810783  -22.370162    8.037534
  41 C     6.0000    0    12.011  -10.238650  -25.564725    7.481747
  42 C     6.0000    0    12.011  -11.236822  -27.794092    8.484719
  43 C     6.0000    0    12.011  -10.145146  -29.915347    7.444878
  44 S    16.0000    0    32.060   -7.844404  -29.141334    5.174543
  45 C     6.0000    0    12.011   -8.368047  -25.964591    5.661619
  46 C     6.0000    0    12.011  -10.692902  -32.475454    8.067921
  47 C     6.0000    0    12.011   -9.567646  -34.482645    6.977492
  48 C     6.0000    0    12.011   -9.982535  -37.114183    7.546980
  49 C     6.0000    0    12.011   -8.694044  -38.929039    6.099998
  50 C     6.0000    0    12.011   -9.008022  -41.451936    6.611093
  51 C     6.0000    0    12.011  -10.605351  -42.239253    8.584327
  52 C     6.0000    0    12.011  -11.901949  -40.466463   10.022030
  53 C     6.0000    0    12.011  -11.584305  -37.934929    9.493625
  54 C     6.0000    0    12.011  -10.541119  -44.963860    8.722314
  55 C     6.0000    0    12.011   -8.906393  -45.867659    6.824236
  56 C     6.0000    0    12.011   -7.816739  -43.700881    5.318937
  57 C     6.0000    0    12.011   -8.612484  -43.858238    2.522709
  58 C     6.0000    0    12.011  -11.469938  -43.952649    2.175094
  59 C     6.0000    0    12.011   -4.913666  -43.623288    5.505887
  60 C     6.0000    0    12.011   -3.971373  -43.452646    8.221783
  61 C     6.0000    0    12.011   -8.479504  -48.405770    6.561583
  62 C     6.0000    0    12.011   -9.737986  -50.130655    8.157437
  63 C     6.0000    0    12.011  -11.324070  -49.197149   10.068839
  64 C     6.0000    0    12.011  -11.723804  -46.639272   10.360877
  65 C     6.0000    0    12.011   -9.197864  -52.760473    7.812260
  66 C     6.0000    0    12.011  -10.597622  -54.844577    8.392841
  67 C     6.0000    0    12.011   -9.702251  -57.432028    8.118528
  68 C     6.0000    0    12.011   -7.256378  -58.199332    7.760916
  69 C     6.0000    0    12.011   -6.507707  -60.751067    7.547339
  70 N     7.0000    0    14.007   -5.771280  -62.780784    7.343759
  71 C     6.0000    0    12.011   -5.125599  -56.602098    7.595754
  72 N     7.0000    0    14.007   -3.284174  -55.460306    7.470598
  73 C     6.0000    0    12.011  -11.864816  -59.112731    8.440254
  74 C     6.0000    0    12.011  -14.011771  -57.647702    8.974687
  75 C     6.0000    0    12.011  -13.335193  -54.934036    9.007682
  76 O     8.0000    0    15.999  -14.790282  -53.202745    9.349533
  77 C     6.0000    0    12.011  -16.351611  -58.725488    9.379070
  78 C     6.0000    0    12.011  -16.555418  -61.339150    9.255104
  79 C     6.0000    0    12.011  -14.427076  -62.816122    8.720784
  80 C     6.0000    0    12.011  -12.075274  -61.720402    8.309542
  81 Cl   17.0000    0    35.453  -14.706737  -66.045721    8.562349
  82 Cl   17.0000    0    35.453  -19.429465  -62.757975    9.759415
  83 H     1.0000    0     1.008    8.056469    1.869506   -8.725640
  84 H     1.0000    0     1.008   12.229589   -6.163682   -6.163909
  85 H     1.0000    0     1.008    1.032792   -3.086849   -3.460089
  86 H     1.0000    0     1.008   -1.064067   -5.706349   -0.085472
  87 H     1.0000    0     1.008    2.500656  -13.216971   -4.433846
  88 H     1.0000    0     1.008    4.005615   -8.942694   -5.492017
  89 H     1.0000    0     1.008   -0.117295  -11.422109    4.601502
  90 H     1.0000    0     1.008   -3.174967  -10.788673    5.771318
  91 H     1.0000    0     1.008    0.702714   -6.952850    3.898070
  92 H     1.0000    0     1.008   -0.348938   -7.412848    7.016118
  93 H     1.0000    0     1.008   -2.433268   -6.139021    4.760787
  94 H     1.0000    0     1.008   -5.223468   -7.237972    1.702643
  95 H     1.0000    0     1.008   -6.702726   -9.958158    2.934990
  96 H     1.0000    0     1.008   -5.440446   -9.074068   -2.634788
  97 H     1.0000    0     1.008   -8.467957   -8.834810   -1.255912
  98 H     1.0000    0     1.008   -6.930854  -11.791060   -1.409093
  99 H     1.0000    0     1.008   -5.762606  -14.573114    3.963701
 100 H     1.0000    0     1.008   -2.279085  -20.386195   -0.468633
 101 H     1.0000    0     1.008    0.326904  -17.228539   -2.661868
 102 H     1.0000    0     1.008   -8.199087  -17.479286    5.596689
 103 H     1.0000    0     1.008  -12.683710  -27.861499    9.907759
 104 H     1.0000    0     1.008  -12.107986  -32.715298    9.521820
 105 H     1.0000    0     1.008   -8.185387  -34.114243    5.510857
 106 H     1.0000    0     1.008   -7.460695  -38.312156    4.593603
 107 H     1.0000    0     1.008  -13.135808  -41.059043   11.535172
 108 H     1.0000    0     1.008  -12.580965  -36.557697   10.618806
 109 H     1.0000    0     1.008   -7.764034  -45.544875    1.689869
 110 H     1.0000    0     1.008   -7.856234  -42.215291    1.529450
 111 H     1.0000    0     1.008  -12.265702  -45.600131    3.112492
 112 H     1.0000    0     1.008  -11.933904  -44.056565    0.175782
 113 H     1.0000    0     1.008  -12.354009  -42.271114    2.960445
 114 H     1.0000    0     1.008   -4.228810  -41.994533    4.440138
 115 H     1.0000    0     1.008   -4.147854  -45.322587    4.621363
 116 H     1.0000    0     1.008   -4.674181  -41.747735    9.130533
 117 H     1.0000    0     1.008   -1.917411  -43.406442    8.252699
 118 H     1.0000    0     1.008   -4.599707  -45.076715    9.313988
 119 H     1.0000    0     1.008   -7.218281  -49.115343    5.120515
 120 H     1.0000    0     1.008  -12.201262  -50.497489   11.363679
 121 H     1.0000    0     1.008  -12.935534  -45.953812   11.851342
 122 H     1.0000    0     1.008   -7.402492  -53.108618    6.887334
 123 H     1.0000    0     1.008  -17.974565  -57.561058    9.784681
 124 H     1.0000    0     1.008  -10.482934  -62.919358    7.893537

--------------------------------
INTERNAL COORDINATES (ANGSTROEM)
--------------------------------
 C      0   0   0     0.000000000000     0.00000000     0.00000000
 C      1   0   0     1.368206706094     0.00000000     0.00000000
 C      2   1   0     1.410369807320   123.74953410     0.00000000
 N      3   2   1     1.147537356168   177.32665956   206.51318733
 C      2   1   3     1.411758263939   123.60699959   175.30217974
 N      5   2   1     1.147650880102   175.04815442   231.45227299
 C      1   2   3     1.460172036063   125.65028326   350.00692853
 C      7   1   2     1.407660138421   108.82308521   201.90265528
 C      8   7   1     1.380184645691   121.57721161   177.85381793
 C      9   8   7     1.389406049073   118.36485536     0.61103043
 C     10   9   8     1.400308957516   120.35195722     0.09503358
 C      7   1   2     1.384951119896   131.20035606    20.32511631
 Cl    11  10   9     1.716717722021   119.77052563   179.34349079
 Cl    10   9   8     1.716841904049   119.71880120   179.99844160
 C      8   7   1     1.480229013970   109.62448228   357.13126648
 O     15   8   7     1.207849518566   127.99973151   176.75572332
 C      1   2   3     1.452489950705   126.23064717   183.62265322
 C     17   1   2     1.354632861443   131.49755600   329.34957515
 C     18  17   1     1.439294683725   127.78197573   348.00935122
 C     19  18  17     1.402953840260   119.14520187   147.03600766
 C     20  19  18     1.372992035155   119.34742485   182.53489562
 C     21  20  19     1.407311934931   120.23554274   354.67812821
 C     22  21  20     1.388867913662   120.66975195     2.65749625
 C     23  22  21     1.378041649479   118.80446370     1.34153126
 C     22  21  20     1.445154936469   108.62460469   184.45656013
 C     25  22  21     1.405250066643   108.48569264   359.66718694
 C     21  20  19     1.509899816677   129.20477122   175.79059636
 C     27  21  20     1.548823922885   111.12506562   287.25784729
 C     28  27  21     1.522478499618   115.75323789    57.33888601
 C     27  21  20     1.534958949321   112.61528420    53.48627401
 C     30  27  21     1.524574141457   112.30340744    57.72830945
 C     26  25  22     1.373071041207   120.78217444   179.59544883
 C     32  26  25     1.403279261908   119.45085440   359.83005554
 C     33  32  26     1.401021197770   119.08296479     0.00000000
 C     34  33  32     1.378855166180   121.66107883     0.05327550
 C     33  32  26     1.443357865465   120.71015765   179.02291836
 S     36  33  32     1.758465982497   119.82268456   186.05005646
 C     37  36  33     1.721912433604    91.07020306   178.56849364
 C     38  37  36     1.395740731440   111.14112796     0.36057639
 C     36  33  32     1.374299054537   128.50496986     4.79143818
 S     39  38  37     1.742348321691   112.77297931   180.36732845
 C     41  39  38     1.742389379502    89.84075357     0.29805812
 C     42  41  39     1.397306065077   133.57787171   179.00035741
 C     43  42  41     1.377157563280   112.19985055   180.63398079
 S     44  43  42     1.758822391886   111.93086652   359.82485876
 C     42  41  39     1.397259254147   112.72976179   359.66608083
 C     44  43  42     1.424102690153   126.69247043   178.93793849
 C     47  44  43     1.347486585499   124.10977346   179.73977681
 C     48  47  44     1.441601732310   127.20098302   178.52693091
 C     49  48  47     1.404830001851   118.19719074   177.06693260
 C     50  49  48     1.372275350540   119.92715122   178.95568523
 C     51  50  49     1.406554188753   120.48067719   359.72647303
 C     52  51  50     1.389122079336   120.22367127     0.61966940
 C     53  52  51     1.378785744559   119.00377980   359.59017231
 C     52  51  50     1.444047949516   108.61085800   181.04279846
 C     55  52  51     1.409230475437   108.49752096   359.80460176
 C     51  50  49     1.510388511774   128.81501300   180.24974709
 C     57  51  50     1.540702038358   111.30332989   297.15679770
 C     58  57  51     1.524066932290   112.88321739   303.59189674
 C     57  51  50     1.539969612070   111.48596426    59.89672840
 C     60  57  51     1.523913066976   112.86638200    56.00321810
 C     56  55  52     1.369048392936   120.43778834   179.16383895
 C     62  56  55     1.410608079730   119.74472991     1.73136038
 C     63  62  56     1.404120986026   119.06568806   357.12219100
 C     64  63  62     1.378687527107   121.18908208     1.87083017
 C     63  62  56     1.432382503942   117.26594565   180.61014708
 C     66  63  62     1.363582256741   130.44098410   204.10277581
 C     67  66  63     1.456135553477   124.14591485   185.37015437
 C     68  67  66     1.369632340886   126.87198921    14.32265370
 C     69  68  67     1.411770595812   124.04248963   178.97525543
 N     70  69  68     1.147658350425   176.33610261   173.81387567
 C     69  68  67     1.411887800783   125.85757182     0.14484154
 N     72  69  68     1.148472659927   174.94927857   170.15700619
 C     68  67  66     1.459316695923   107.83532299   191.03149155
 C     74  68  67     1.404200205847   108.75318622   358.19864644
 C     75  74  68     1.480072651122   110.01840167     0.35142537
 O     76  75  74     1.210361084801   125.61031600   177.97554692
 C     75  74  68     1.379925328342   121.93966916   180.13816771
 C     78  75  74     1.388838698554   118.29136008     0.20798506
 C     79  78  75     1.399749610395   120.20653375   359.72423886
 C     74  68  67     1.386133821895   131.59867621   178.36151975
 Cl    80  79  78     1.717473064301   119.74594418   180.21884767
 Cl    79  78  75     1.716977352035   119.79644620   179.72916077
 H      9   8   7     1.078565496110   120.67315225   180.64145476
 H     12   7   1     1.078076593986   122.03286014     2.57395667
 H     18  17   1     1.085629792379   115.47420909   171.27993041
 H     20  19  18     1.078982918030   119.03273714     0.12939343
 H     23  22  21     1.079432170078   120.72445450   181.14596755
 H     24  23  22     1.080939632496   119.78787965   180.62735027
 H     28  27  21     1.092430394076   107.84406179   295.95268023
 H     28  27  21     1.092508885914   107.51345108   180.04352423
 H     29  28  27     1.086446445114   110.59966692   292.86265201
 H     29  28  27     1.087723347272   109.10951416   174.27855640
 H     29  28  27     1.087183044892   111.67941803    54.98055839
 H     30  27  21     1.090572783266   109.20998151   296.47203759
 H     30  27  21     1.091914550778   108.82429507   179.02147656
 H     31  30  27     1.087924902601   110.65986906   299.95397737
 H     31  30  27     1.087560612656   110.22480935   179.99964340
 H     31  30  27     1.087907202384   110.69079746    60.01316816
 H     32  26  25     1.078327100003   120.42479700   179.40617622
 H     34  33  32     1.080570570532   118.77267228   179.97371757
 H     35  34  33     1.079350632464   120.37353150   179.82256262
 H     40  36  33     1.073631232919   124.45931565     1.62208379
 H     43  42  41     1.074512366658   124.30440916     0.41873179
 H     47  44  43     1.081103719446   114.67185143   359.51169840
 H     48  47  44     1.084152187749   117.57812525   358.82122132
 H     50  49  48     1.080729509035   119.25190554   359.04823204
 H     53  52  51     1.079723353318   120.57835633   179.79104565
 H     54  53  52     1.078812182217   119.00212154   180.43215189
 H     58  57  51     1.091983040024   108.62765902   182.05555500
 H     58  57  51     1.091921085198   108.60862828    65.05324159
 H     59  58  57     1.087861888569   110.81088021   299.72237796
 H     59  58  57     1.087495660037   110.06423141   179.82970693
 H     59  58  57     1.087831506209   110.71722429    59.97881990
 H     60  57  51     1.091913356911   108.60037574   294.55065020
 H     60  57  51     1.091756236666   108.71062289   177.52946412
 H     61  60  57     1.087904904024   110.74188402   299.79264273
 H     61  60  57     1.087308052118   110.03615305   179.90692556
 H     61  60  57     1.087753789835   110.74857688    60.09956738
 H     62  56  55     1.080720641332   120.95727779   180.45792191
 H     64  63  62     1.076320941077   119.43692348   183.67182995
 H     65  64  63     1.079266130155   120.20122669   180.56568533
 H     66  63  62     1.084497579665   113.41600221    22.07007267
 H     78  75  74     1.078586767302   120.61100995   180.06955156
 H     81  74  68     1.077509363347   122.24526609   359.42726783

---------------------------
INTERNAL COORDINATES (A.U.)
---------------------------
 C      0   0   0     0.000000000000     0.00000000     0.00000000
 C      1   0   0     2.585535969112     0.00000000     0.00000000
 C      2   1   0     2.665212683386   123.74953410     0.00000000
 N      3   2   1     2.168531331601   177.32665956   206.51318733
 C      2   1   3     2.667836486145   123.60699959   175.30217974
 N      5   2   1     2.168745860747   175.04815442   231.45227299
 C      1   2   3     2.759325256569   125.65028326   350.00692853
 C      7   1   2     2.660092151254   108.82308521   201.90265528
 C      8   7   1     2.608170994598   121.57721161   177.85381793
 C      9   8   7     2.625596921561   118.36485536     0.61103043
 C     10   9   8     2.646200432582   120.35195722     0.09503358
 C      7   1   2     2.617178325470   131.20035606    20.32511631
 Cl    11  10   9     3.244126343868   119.77052563   179.34349079
 Cl    10   9   8     3.244361013893   119.71880120   179.99844160
 C      8   7   1     2.797227451888   109.62448228   357.13126648
 O     15   8   7     2.282504801078   127.99973151   176.75572332
 C      1   2   3     2.744808219106   126.23064717   183.62265322
 C     17   1   2     2.559885120136   131.49755600   329.34957515
 C     18  17   1     2.719872778250   127.78197573   348.00935122
 C     19  18  17     2.651198536624   119.14520187   147.03600766
 C     20  19  18     2.594578930499   119.34742485   182.53489562
 C     21  20  19     2.659434142019   120.23554274   354.67812821
 C     22  21  20     2.624579993012   120.66975195     2.65749625
 C     23  22  21     2.604121318653   118.80446370     1.34153126
 C     22  21  20     2.730947051010   108.62460469   184.45656013
 C     25  22  21     2.655537775630   108.48569264   359.66718694
 C     21  20  19     2.853297143177   129.20477122   175.79059636
 C     27  21  20     2.926853043918   111.12506562   287.25784729
 C     28  27  21     2.877067409062   115.75323789    57.33888601
 C     27  21  20     2.900652041028   112.61528420    53.48627401
 C     30  27  21     2.881027598212   112.30340744    57.72830945
 C     26  25  22     2.594728230298   120.78217444   179.59544883
 C     32  26  25     2.651813494417   119.45085440   359.83005554
 C     33  32  26     2.647546371603   119.08296479     0.00000000
 C     34  33  32     2.605658642422   121.66107883     0.05327550
 C     33  32  26     2.727551078970   120.71015765   179.02291836
 S     36  33  32     3.323019122737   119.82268456   186.05005646
 C     37  36  33     3.253942926105    91.07020306   178.56849364
 C     38  37  36     2.637567736380   111.14112796     0.36057639
 C     36  33  32     2.597048839181   128.50496986     4.79143818
 S     39  38  37     3.292561157894   112.77297931   180.36732845
 C     41  39  38     3.292638745911    89.84075357     0.29805812
 C     42  41  39     2.640525788262   133.57787171   179.00035741
 C     43  42  41     2.602450637858   112.19985055   180.63398079
 S     44  43  42     3.323692638873   111.93086652   359.82485876
 C     42  41  39     2.640437328425   112.72976179   359.66608083
 C     44  43  42     2.691164070969   126.69247043   178.93793849
 C     47  44  43     2.546380615726   124.10977346   179.73977681
 C     48  47  44     2.724232468253   127.20098302   178.52693091
 C     49  48  47     2.654743968214   118.19719074   177.06693260
 C     50  49  48     2.593224592852   119.92715122   178.95568523
 C     51  50  49     2.658002209264   120.48067719   359.72647303
 C     52  51  50     2.625060296529   120.22367127     0.61966940
 C     53  52  51     2.605527454572   119.00377980   359.59017231
 C     52  51  50     2.728855148835   108.61085800   181.04279846
 C     55  52  51     2.663059658151   108.49752096   359.80460176
 C     51  50  49     2.854220643074   128.81501300   180.24974709
 C     57  51  50     2.911504906471   111.30332989   297.15679770
 C     58  57  51     2.880069111794   112.88321739   303.59189674
 C     57  51  50     2.910120821374   111.48596426    59.89672840
 C     60  57  51     2.879778348489   112.86638200    56.00321810
 C     56  55  52     2.587126526734   120.43778834   179.16383895
 C     62  56  55     2.665662952987   119.74472991     1.73136038
 C     63  62  56     2.653404122482   119.06568806   357.12219100
 C     64  63  62     2.605341850485   121.18908208     1.87083017
 C     63  62  56     2.706810651471   117.26594565   180.61014708
 C     66  63  62     2.576797026316   130.44098410   204.10277581
 C     67  66  63     2.751697409938   124.14591485   185.37015437
 C     68  67  66     2.588230028435   126.87198921    14.32265370
 C     69  68  67     2.667859790008   124.04248963   178.97525543
 N     70  69  68     2.168759977611   176.33610261   173.81387567
 C     69  68  67     2.668081275304   125.85757182     0.14484154
 N     72  69  68     2.170298799558   174.94927857   170.15700619
 C     68  67  66     2.757708897954   107.83532299   191.03149155
 C     74  68  67     2.653553826246   108.75318622   358.19864644
 C     75  74  68     2.796931968928   110.01840167     0.35142537
 O     76  75  74     2.287250973429   125.61031600   177.97554692
 C     75  74  68     2.607680955828   121.93966916   180.13816771
 C     78  75  74     2.624524784458   118.29136008     0.20798506
 C     79  78  75     2.645143419709   120.20653375   359.72423886
 C     74  68  67     2.619413308346   131.59867621   178.36151975
 Cl    80  79  78     3.245553733916   119.74594418   180.21884767
 Cl    79  78  75     3.244616973491   119.79644620   179.72916077
 H      9   8   7     2.038193405146   120.67315225   180.64145476
 H     12   7   1     2.037269514024   122.03286014     2.57395667
 H     18  17   1     2.051542990421   115.47420909   171.27993041
 H     20  19  18     2.038982218255   119.03273714     0.12939343
 H     23  22  21     2.039831181592   120.72445450   181.14596755
 H     24  23  22     2.042679872718   119.78787965   180.62735027
 H     28  27  21     2.064394265174   107.84406179   295.95268023
 H     28  27  21     2.064542593252   107.51345108   180.04352423
 H     29  28  27     2.053086240437   110.59966692   292.86265201
 H     29  28  27     2.055499235816   109.10951416   174.27855640
 H     29  28  27     2.054478212288   111.67941803    54.98055839
 H     30  27  21     2.060883889481   109.20998151   296.47203759
 H     30  27  21     2.063419462613   108.82429507   179.02147656
 H     31  30  27     2.055880120189   110.65986906   299.95397737
 H     31  30  27     2.055191711959   110.22480935   179.99964340
 H     31  30  27     2.055846671627   110.69079746    60.01316816
 H     32  26  25     2.037742901790   120.42479700   179.40617622
 H     34  33  32     2.041982446681   118.77267228   179.97371757
 H     35  34  33     2.039677097831   120.37353150   179.82256262
 H     40  36  33     2.028868999042   124.45931565     1.62208379
 H     43  42  41     2.030534100494   124.30440916     0.41873179
 H     47  44  43     2.042989952117   114.67185143   359.51169840
 H     48  47  44     2.048750722336   117.57812525   358.82122132
 H     50  49  48     2.042282796924   119.25190554   359.04823204
 H     53  52  51     2.040381438170   120.57835633   179.79104565
 H     54  53  52     2.038659574328   119.00212154   180.43215189
 H     58  57  51     2.063548888532   108.62765902   182.05555500
 H     58  57  51     2.063431810878   108.60862828    65.05324159
 H     59  58  57     2.055761040925   110.81088021   299.72237796
 H     59  58  57     2.055068969298   110.06423141   179.82970693
 H     59  58  57     2.055703626585   110.71722429    59.97881990
 H     60  57  51     2.063417206532   108.60037574   294.55065020
 H     60  57  51     2.063120292300   108.71062289   177.52946412
 H     61  60  57     2.055842328356   110.74188402   299.79264273
 H     61  60  57     2.054714441710   110.03615305   179.90692556
 H     61  60  57     2.055556763923   110.74857688    60.09956738
 H     62  56  55     2.042266039392   120.95727779   180.45792191
 H     64  63  62     2.033951810839   119.43692348   183.67182995
 H     65  64  63     2.039517411610   120.20122669   180.56568533
 H     66  63  62     2.049403418468   113.41600221    22.07007267
 H     78  75  74     2.038233601873   120.61100995   180.06955156
 H     81  74  68     2.036197603461   122.24526609   359.42726783

---------------------
BASIS SET INFORMATION
---------------------
There are 6 groups of distinct atoms

 Group   1 Type C   : 7s4p1d contracted to 3s2p1d pattern {511/31/1}
 Group   2 Type N   : 7s4p1d contracted to 3s2p1d pattern {511/31/1}
 Group   3 Type Cl  : 10s7p1d contracted to 4s3p1d pattern {5311/511/1}
 Group   4 Type O   : 7s4p1d contracted to 3s2p1d pattern {511/31/1}
 Group   5 Type S   : 10s7p1d contracted to 4s3p1d pattern {5311/511/1}
 Group   6 Type H   : 4s1p contracted to 2s1p pattern {31/1}

Atom   0C    basis set group =>   1
Atom   1C    basis set group =>   1
Atom   2C    basis set group =>   1
Atom   3N    basis set group =>   2
Atom   4C    basis set group =>   1
Atom   5N    basis set group =>   2
Atom   6C    basis set group =>   1
Atom   7C    basis set group =>   1
Atom   8C    basis set group =>   1
Atom   9C    basis set group =>   1
Atom  10C    basis set group =>   1
Atom  11C    basis set group =>   1
Atom  12Cl   basis set group =>   3
Atom  13Cl   basis set group =>   3
Atom  14C    basis set group =>   1
Atom  15O    basis set group =>   4
Atom  16C    basis set group =>   1
Atom  17C    basis set group =>   1
Atom  18C    basis set group =>   1
Atom  19C    basis set group =>   1
Atom  20C    basis set group =>   1
Atom  21C    basis set group =>   1
Atom  22C    basis set group =>   1
Atom  23C    basis set group =>   1
Atom  24C    basis set group =>   1
Atom  25C    basis set group =>   1
Atom  26C    basis set group =>   1
Atom  27C    basis set group =>   1
Atom  28C    basis set group =>   1
Atom  29C    basis set group =>   1
Atom  30C    basis set group =>   1
Atom  31C    basis set group =>   1
Atom  32C    basis set group =>   1
Atom  33C    basis set group =>   1
Atom  34C    basis set group =>   1
Atom  35C    basis set group =>   1
Atom  36S    basis set group =>   5
Atom  37C    basis set group =>   1
Atom  38C    basis set group =>   1
Atom  39C    basis set group =>   1
Atom  40S    basis set group =>   5
Atom  41C    basis set group =>   1
Atom  42C    basis set group =>   1
Atom  43C    basis set group =>   1
Atom  44S    basis set group =>   5
Atom  45C    basis set group =>   1
Atom  46C    basis set group =>   1
Atom  47C    basis set group =>   1
Atom  48C    basis set group =>   1
Atom  49C    basis set group =>   1
Atom  50C    basis set group =>   1
Atom  51C    basis set group =>   1
Atom  52C    basis set group =>   1
Atom  53C    basis set group =>   1
Atom  54C    basis set group =>   1
Atom  55C    basis set group =>   1
Atom  56C    basis set group =>   1
Atom  57C    basis set group =>   1
Atom  58C    basis set group =>   1
Atom  59C    basis set group =>   1
Atom  60C    basis set group =>   1
Atom  61C    basis set group =>   1
Atom  62C    basis set group =>   1
Atom  63C    basis set group =>   1
Atom  64C    basis set group =>   1
Atom  65C    basis set group =>   1
Atom  66C    basis set group =>   1
Atom  67C    basis set group =>   1
Atom  68C    basis set group =>   1
Atom  69C    basis set group =>   1
Atom  70N    basis set group =>   2
Atom  71C    basis set group =>   1
Atom  72N    basis set group =>   2
Atom  73C    basis set group =>   1
Atom  74C    basis set group =>   1
Atom  75C    basis set group =>   1
Atom  76O    basis set group =>   4
Atom  77C    basis set group =>   1
Atom  78C    basis set group =>   1
Atom  79C    basis set group =>   1
Atom  80C    basis set group =>   1
Atom  81Cl   basis set group =>   3
Atom  82Cl   basis set group =>   3
Atom  83H    basis set group =>   6
Atom  84H    basis set group =>   6
Atom  85H    basis set group =>   6
Atom  86H    basis set group =>   6
Atom  87H    basis set group =>   6
Atom  88H    basis set group =>   6
Atom  89H    basis set group =>   6
Atom  90H    basis set group =>   6
Atom  91H    basis set group =>   6
Atom  92H    basis set group =>   6
Atom  93H    basis set group =>   6
Atom  94H    basis set group =>   6
Atom  95H    basis set group =>   6
Atom  96H    basis set group =>   6
Atom  97H    basis set group =>   6
Atom  98H    basis set group =>   6
Atom  99H    basis set group =>   6
Atom 100H    basis set group =>   6
Atom 101H    basis set group =>   6
Atom 102H    basis set group =>   6
Atom 103H    basis set group =>   6
Atom 104H    basis set group =>   6
Atom 105H    basis set group =>   6
Atom 106H    basis set group =>   6
Atom 107H    basis set group =>   6
Atom 108H    basis set group =>   6
Atom 109H    basis set group =>   6
Atom 110H    basis set group =>   6
Atom 111H    basis set group =>   6
Atom 112H    basis set group =>   6
Atom 113H    basis set group =>   6
Atom 114H    basis set group =>   6
Atom 115H    basis set group =>   6
Atom 116H    basis set group =>   6
Atom 117H    basis set group =>   6
Atom 118H    basis set group =>   6
Atom 119H    basis set group =>   6
Atom 120H    basis set group =>   6
Atom 121H    basis set group =>   6
Atom 122H    basis set group =>   6
Atom 123H    basis set group =>   6
Atom 124H    basis set group =>   6
---------------------------------
AUXILIARY/J BASIS SET INFORMATION
---------------------------------
There are 6 groups of distinct atoms

 Group   1 Type C   : 12s5p4d2f1g contracted to 6s4p3d1f1g pattern {711111/2111/211/2/1}
 Group   2 Type N   : 12s5p4d2f1g contracted to 6s4p3d1f1g pattern {711111/2111/211/2/1}
 Group   3 Type Cl  : 14s5p5d2f1g contracted to 8s4p3d1f1g pattern {71111111/2111/311/2/1}
 Group   4 Type O   : 12s5p4d2f1g contracted to 6s4p3d1f1g pattern {711111/2111/211/2/1}
 Group   5 Type S   : 14s5p5d2f1g contracted to 8s4p3d1f1g pattern {71111111/2111/311/2/1}
 Group   6 Type H   : 5s2p1d contracted to 3s1p1d pattern {311/2/1}

Atom   0C    basis set group =>   1
Atom   1C    basis set group =>   1
Atom   2C    basis set group =>   1
Atom   3N    basis set group =>   2
Atom   4C    basis set group =>   1
Atom   5N    basis set group =>   2
Atom   6C    basis set group =>   1
Atom   7C    basis set group =>   1
Atom   8C    basis set group =>   1
Atom   9C    basis set group =>   1
Atom  10C    basis set group =>   1
Atom  11C    basis set group =>   1
Atom  12Cl   basis set group =>   3
Atom  13Cl   basis set group =>   3
Atom  14C    basis set group =>   1
Atom  15O    basis set group =>   4
Atom  16C    basis set group =>   1
Atom  17C    basis set group =>   1
Atom  18C    basis set group =>   1
Atom  19C    basis set group =>   1
Atom  20C    basis set group =>   1
Atom  21C    basis set group =>   1
Atom  22C    basis set group =>   1
Atom  23C    basis set group =>   1
Atom  24C    basis set group =>   1
Atom  25C    basis set group =>   1
Atom  26C    basis set group =>   1
Atom  27C    basis set group =>   1
Atom  28C    basis set group =>   1
Atom  29C    basis set group =>   1
Atom  30C    basis set group =>   1
Atom  31C    basis set group =>   1
Atom  32C    basis set group =>   1
Atom  33C    basis set group =>   1
Atom  34C    basis set group =>   1
Atom  35C    basis set group =>   1
Atom  36S    basis set group =>   5
Atom  37C    basis set group =>   1
Atom  38C    basis set group =>   1
Atom  39C    basis set group =>   1
Atom  40S    basis set group =>   5
Atom  41C    basis set group =>   1
Atom  42C    basis set group =>   1
Atom  43C    basis set group =>   1
Atom  44S    basis set group =>   5
Atom  45C    basis set group =>   1
Atom  46C    basis set group =>   1
Atom  47C    basis set group =>   1
Atom  48C    basis set group =>   1
Atom  49C    basis set group =>   1
Atom  50C    basis set group =>   1
Atom  51C    basis set group =>   1
Atom  52C    basis set group =>   1
Atom  53C    basis set group =>   1
Atom  54C    basis set group =>   1
Atom  55C    basis set group =>   1
Atom  56C    basis set group =>   1
Atom  57C    basis set group =>   1
Atom  58C    basis set group =>   1
Atom  59C    basis set group =>   1
Atom  60C    basis set group =>   1
Atom  61C    basis set group =>   1
Atom  62C    basis set group =>   1
Atom  63C    basis set group =>   1
Atom  64C    basis set group =>   1
Atom  65C    basis set group =>   1
Atom  66C    basis set group =>   1
Atom  67C    basis set group =>   1
Atom  68C    basis set group =>   1
Atom  69C    basis set group =>   1
Atom  70N    basis set group =>   2
Atom  71C    basis set group =>   1
Atom  72N    basis set group =>   2
Atom  73C    basis set group =>   1
Atom  74C    basis set group =>   1
Atom  75C    basis set group =>   1
Atom  76O    basis set group =>   4
Atom  77C    basis set group =>   1
Atom  78C    basis set group =>   1
Atom  79C    basis set group =>   1
Atom  80C    basis set group =>   1
Atom  81Cl   basis set group =>   3
Atom  82Cl   basis set group =>   3
Atom  83H    basis set group =>   6
Atom  84H    basis set group =>   6
Atom  85H    basis set group =>   6
Atom  86H    basis set group =>   6
Atom  87H    basis set group =>   6
Atom  88H    basis set group =>   6
Atom  89H    basis set group =>   6
Atom  90H    basis set group =>   6
Atom  91H    basis set group =>   6
Atom  92H    basis set group =>   6
Atom  93H    basis set group =>   6
Atom  94H    basis set group =>   6
Atom  95H    basis set group =>   6
Atom  96H    basis set group =>   6
Atom  97H    basis set group =>   6
Atom  98H    basis set group =>   6
Atom  99H    basis set group =>   6
Atom 100H    basis set group =>   6
Atom 101H    basis set group =>   6
Atom 102H    basis set group =>   6
Atom 103H    basis set group =>   6
Atom 104H    basis set group =>   6
Atom 105H    basis set group =>   6
Atom 106H    basis set group =>   6
Atom 107H    basis set group =>   6
Atom 108H    basis set group =>   6
Atom 109H    basis set group =>   6
Atom 110H    basis set group =>   6
Atom 111H    basis set group =>   6
Atom 112H    basis set group =>   6
Atom 113H    basis set group =>   6
Atom 114H    basis set group =>   6
Atom 115H    basis set group =>   6
Atom 116H    basis set group =>   6
Atom 117H    basis set group =>   6
Atom 118H    basis set group =>   6
Atom 119H    basis set group =>   6
Atom 120H    basis set group =>   6
Atom 121H    basis set group =>   6
Atom 122H    basis set group =>   6
Atom 123H    basis set group =>   6
Atom 124H    basis set group =>   6


           ************************************************************
           *        Program running with 6 parallel MPI-processes     *
           *              working on a common directory               *
           ************************************************************
------------------------------------------------------------------------------
                           ORCA GTO INTEGRAL CALCULATION
                           -- RI-GTO INTEGRALS CHOSEN --
------------------------------------------------------------------------------

                         BASIS SET STATISTICS AND STARTUP INFO

Gaussian basis set:
 # of primitive gaussian shells          ... 1248
 # of primitive gaussian functions       ... 2370
 # of contracted shells                  ...  638
 # of contracted basis functions         ... 1400
 Highest angular momentum                ...    2
 Maximum contraction depth               ...    5
Auxiliary gaussian basis set:
 # of primitive gaussian shells          ... 2349
 # of primitive gaussian functions       ... 6531
 # of contracted shells                  ... 1469
 # of contracted aux-basis functions     ... 4543
 Highest angular momentum                ...    4
 Maximum contraction depth               ...    7
Ratio of auxiliary to basis functions    ...  3.25
Integral package used                  ... LIBINT
 One Electron integrals                  ... done
 Ordering auxiliary basis shells         ... done
 Integral threshhold             Thresh  ...  2.500e-11
 Primitive cut-off               TCut    ...  2.500e-12
 Pre-screening matrix                    ... done
 Shell pair data                         ... 
 Ordering of the shell pairs             ... done (   0.012 sec) 55403 of 203841 pairs
 Determination of significant pairs      ... done (   0.000 sec)
 Creation of shell pair data             ... done (   0.007 sec)
 Storage of shell pair data              ... done (   0.081 sec)
 Shell pair data done in (   0.101 sec)
 Computing two index integrals           ... done
 Cholesky decomposition of the V-matrix  ... done


Timings:
 Total evaluation time                   ...   3.394 sec (  0.057 min)
 One electron matrix time                ...   0.863 sec (  0.014 min) = 25.4%
 Schwartz matrix evaluation time         ...   0.906 sec (  0.015 min) = 26.7%
 Two index repulsion integral time       ...   0.524 sec (  0.009 min) = 15.4%
 Cholesky decomposition of V             ...   0.983 sec (  0.016 min) = 29.0%
 Three index repulsion integral time     ...   0.000 sec (  0.000 min) =  0.0%



           ************************************************************
           *        Program running with 6 parallel MPI-processes     *
           *              working on a common directory               *
           ************************************************************
-------------------------------------------------------------------------------
                                 ORCA SCF
-------------------------------------------------------------------------------

------------
SCF SETTINGS
------------
Hamiltonian:
 Density Functional     Method          .... DFT(GTOs)
 Exchange Functional    Exchange        .... WB88
 Correlation Functional Correlation     .... LYP
 LDA part of GGA corr.  LDAOpt          .... VWN-5
 Gradients option       PostSCFGGA      .... off
 Hybrid DFT is turned on
   Fraction HF Exchange ScalHFX         ....  0.190000
   Scaling of DF-GGA-X  ScalDFX         ....  0.350000
   Scaling of DF-GGA-C  ScalDFC         ....  0.810000
   Scaling of DF-LDA-C  ScalLDAC        ....  1.000000
   Perturbative correction              ....  0.000000
   Density functional embedding theory  .... OFF
 Long-range corrected/Screened/Range-Separated Hybrid DFT is turned on
   Amount of maximum screened exact exchange              ....  0.460000
   Range separation parameter mu (erf(mu*r12)/r12)        ....  0.330000
 RI-approximation to the Coulomb term is turned on
   Number of auxiliary basis functions  .... 4543
   RIJ-COSX (HFX calculated with COS-X)).... on


General Settings:
 Integral files         IntName         .... xtbopt
 Hartree-Fock type      HFTyp           .... RHF
 Total Charge           Charge          ....    0
 Multiplicity           Mult            ....    1
 Number of Electrons    NEL             ....  622
 Basis Dimension        Dim             .... 1400
 Nuclear Repulsion      ENuc            ....  12302.9113889340 Eh

Convergence Acceleration:
 DIIS                   CNVDIIS         .... on
   Start iteration      DIISMaxIt       ....    12
   Startup error        DIISStart       ....  0.200000
   # of expansion vecs  DIISMaxEq       ....     5
   Bias factor          DIISBfac        ....   1.050
   Max. coefficient     DIISMaxC        ....  10.000
 Newton-Raphson         CNVNR           .... off
 SOSCF                  CNVSOSCF        .... on
   Start iteration      SOSCFMaxIt      ....   150
   Startup grad/error   SOSCFStart      ....  0.003300
 Level Shifting         CNVShift        .... on
   Level shift para.    LevelShift      ....    0.2500
   Turn off err/grad.   ShiftErr        ....    0.0010
 Zerner damping         CNVZerner       .... off
 Static damping         CNVDamp         .... on
   Fraction old density DampFac         ....    0.7000
   Max. Damping (<1)    DampMax         ....    0.9800
   Min. Damping (>=0)   DampMin         ....    0.0000
   Turn off err/grad.   DampErr         ....    0.1000
 Fernandez-Rico         CNVRico         .... off

SCF Procedure:
 Maximum # iterations   MaxIter         ....   125
 SCF integral mode      SCFMode         .... Direct
   Integral package                     .... LIBINT
 Reset frequency        DirectResetFreq ....    20
 Integral Threshold     Thresh          ....  2.500e-11 Eh
 Primitive CutOff       TCut            ....  2.500e-12 Eh

Convergence Tolerance:
 Convergence Check Mode ConvCheckMode   .... Total+1el-Energy
 Convergence forced     ConvForced      .... 1
 Energy Change          TolE            ....  1.000e-08 Eh
 1-El. energy change                    ....  1.000e-05 Eh
 Orbital Gradient       TolG            ....  1.000e-05
 Orbital Rotation angle TolX            ....  1.000e-05
 DIIS Error             TolErr          ....  5.000e-07


Diagonalization of the overlap matrix:
Smallest eigenvalue                        ... 1.978e-04
Time for diagonalization                   ...    0.314 sec
Threshold for overlap eigenvalues          ... 1.000e-08
Number of eigenvalues below threshold      ... 0
Time for construction of square roots      ...    0.220 sec
Total time needed                          ...    0.539 sec

-------------------
DFT GRID GENERATION
-------------------

General Integration Accuracy     IntAcc      ...  4.670
Radial Grid Type                 RadialGrid  ... Gauss-Chebyshev
Angular Grid (max. acc.)         AngularGrid ... Lebedev-302
Angular grid pruning method      GridPruning ... 3 (G Style)
Weight generation scheme         WeightScheme... Becke
Basis function cutoff            BFCut       ...    1.0000e-11
Integration weight cutoff        WCut        ...    1.0000e-14
Grids for H and He will be reduced by one unit

# of grid points (after initial pruning)     ... 662150 (   0.0 sec)
# of grid points (after weights+screening)   ... 563713 (  12.6 sec)
nearest neighbour list constructed           ...    0.0 sec
Grid point re-assignment to atoms done       ...    0.1 sec
Grid point division into batches done        ...    1.9 sec
Reduced shell lists constructed in    3.1 sec

Total number of grid points                  ...   563713
Total number of batches                      ...     8872
Average number of points per batch           ...       63
Average number of grid points per atom       ...     4510
Average number of shells per batch           ...    89.34 (14.00%)
Average number of basis functions per batch  ...   188.15 (13.44%)
Average number of large shells per batch     ...    55.10 (61.67%)
Average number of large basis fcns per batch ...   118.31 (62.88%)
Maximum spatial batch extension              ...  17.56, 19.63, 20.17 au
Average spatial batch extension              ...   0.37,  0.38,  0.38 au

Time for grid setup =   16.250 sec

------------------------------
INITIAL GUESS: MODEL POTENTIAL
------------------------------
Loading Hartree-Fock densities                     ... done
Calculating cut-offs                               ... done
Setting up the integral package                    ... done
Initializing the effective Hamiltonian             ... done
Starting the Coulomb interaction                   ... done (   1.9 sec)
Reading the grid                                   ... done
Mapping shells                                     ... done
Starting the XC term evaluation                    ... done (   2.1 sec)
  promolecular density results
     # of electrons  =    621.979160969
     EX              =   -597.457457353
     EC              =    -21.694841273
     EX+EC           =   -619.152298626
Transforming the Hamiltonian                       ... done (   0.1 sec)
Diagonalizing the Hamiltonian                      ... done (   0.3 sec)
Back transforming the eigenvectors                 ... done (   0.1 sec)
Now organizing SCF variables                       ... done
                      ------------------
                      INITIAL GUESS DONE (  21.0 sec)
                      ------------------
--------------------
COSX GRID GENERATION
--------------------

General Integration Accuracy     IntAcc      ...  3.340
Radial Grid Type                 RadialGrid  ... Gauss-Chebyshev
Angular Grid (max. acc.)         AngularGrid ... Lebedev-50
Angular grid pruning method      GridPruning ... 3 (G Style)
Weight generation scheme         WeightScheme... Becke
Basis function cutoff            BFCut       ...    1.0000e-11
Integration weight cutoff        WCut        ...    1.0000e-14
Grids for H and He will be reduced by one unit

# of grid points (after initial pruning)     ...  62406 (   0.0 sec)
# of grid points (after weights+screening)   ...  55519 (   1.2 sec)
nearest neighbour list constructed           ...    0.0 sec
Grid point re-assignment to atoms done       ...    0.0 sec
Grid point division into batches done        ...    0.0 sec
Reduced shell lists constructed in    0.2 sec

Total number of grid points                  ...    55519
Total number of batches                      ...      936
Average number of points per batch           ...       59
Average number of grid points per atom       ...      444
Average number of shells per batch           ...   108.36 (16.98%)
Average number of basis functions per batch  ...   230.33 (16.45%)
Average number of large shells per batch     ...    66.91 (61.75%)
Average number of large basis fcns per batch ...   145.57 (63.20%)
Maximum spatial batch extension              ...  16.32, 17.65, 23.49 au
Average spatial batch extension              ...   0.72,  0.73,  0.80 au

Overlap Fitting                  UseSFitting ... on
Constructing numerical overlap ... done (      0.1 sec)
Inverting numerical overlap    ... done (      0.1 sec)
Obtaining analytic overlap     ... done (      0.0 sec)
Final contraction and storage  ... done (      0.1 sec)


General Integration Accuracy     IntAcc      ...  3.670
Radial Grid Type                 RadialGrid  ... Gauss-Chebyshev
Angular Grid (max. acc.)         AngularGrid ... Lebedev-50
Angular grid pruning method      GridPruning ... 3 (G Style)
Weight generation scheme         WeightScheme... Becke
Basis function cutoff            BFCut       ...    1.0000e-11
Integration weight cutoff        WCut        ...    1.0000e-14
Grids for H and He will be reduced by one unit

# of grid points (after initial pruning)     ...  78010 (   0.0 sec)
# of grid points (after weights+screening)   ...  69098 (   1.5 sec)
nearest neighbour list constructed           ...    0.0 sec
Grid point re-assignment to atoms done       ...    0.0 sec
Grid point division into batches done        ...    0.0 sec
Reduced shell lists constructed in    0.2 sec

Total number of grid points                  ...    69098
Total number of batches                      ...     1143
Average number of points per batch           ...       60
Average number of grid points per atom       ...      553
Average number of shells per batch           ...   107.22 (16.81%)
Average number of basis functions per batch  ...   227.57 (16.26%)
Average number of large shells per batch     ...    65.84 (61.41%)
Average number of large basis fcns per batch ...   143.02 (62.84%)
Maximum spatial batch extension              ...  17.49, 19.34, 17.25 au
Average spatial batch extension              ...   0.66,  0.71,  0.73 au

Overlap Fitting                  UseSFitting ... on
Constructing numerical overlap ... done (      0.2 sec)
Inverting numerical overlap    ... done (      0.1 sec)
Obtaining analytic overlap     ... done (      0.0 sec)
Final contraction and storage  ... done (      0.1 sec)


General Integration Accuracy     IntAcc      ...  4.010
Radial Grid Type                 RadialGrid  ... Gauss-Chebyshev
Angular Grid (max. acc.)         AngularGrid ... Lebedev-110
Angular grid pruning method      GridPruning ... 3 (G Style)
Weight generation scheme         WeightScheme... Becke
Basis function cutoff            BFCut       ...    1.0000e-11
Integration weight cutoff        WCut        ...    1.0000e-14
Grids for H and He will be reduced by one unit

# of grid points (after initial pruning)     ... 151052 (   0.0 sec)
# of grid points (after weights+screening)   ... 132637 (   3.0 sec)
nearest neighbour list constructed           ...    0.0 sec
Grid point re-assignment to atoms done       ...    0.0 sec
Grid point division into batches done        ...    0.1 sec
Reduced shell lists constructed in    0.4 sec

Total number of grid points                  ...   132637
Total number of batches                      ...     2143
Average number of points per batch           ...       61
Average number of grid points per atom       ...     1061
Average number of shells per batch           ...    98.50 (15.44%)
Average number of basis functions per batch  ...   209.06 (14.93%)
Average number of large shells per batch     ...    60.89 (61.81%)
Average number of large basis fcns per batch ...   132.03 (63.15%)
Maximum spatial batch extension              ...  18.44, 21.77, 20.44 au
Average spatial batch extension              ...   0.57,  0.60,  0.61 au

Overlap Fitting                  UseSFitting ... on
Constructing numerical overlap ... done (      0.3 sec)
Inverting numerical overlap    ... done (      0.1 sec)
Obtaining analytic overlap     ... done (      0.0 sec)
Final contraction and storage  ... done (      0.1 sec)

Time for X-Grid setup             =    7.902 sec
--------------
SCF ITERATIONS
--------------
ITER       Energy         Delta-E        Max-DP      RMS-DP      [F,P]     Damp
               ***  Starting incremental Fock matrix formation  ***
  0  -6091.2249543958   0.000000000000 0.10089776  0.00088415  0.2297760 0.7000
  1  -6091.8642492459  -0.639294850102 0.06042217  0.00062576  0.0973964 0.7000
                               ***Turning on DIIS***
  2  -6092.1493855979  -0.285136351942 0.10459726  0.00115823  0.0427988 0.0000
  3  -6092.6232513770  -0.473865779159 0.03864167  0.00043210  0.0483531 0.0000
  4  -6092.7014895712  -0.078238194203 0.01667849  0.00013231  0.0240535 0.0000
  5  -6092.7081245458  -0.006634974576 0.00615479  0.00005349  0.0076622 0.0000
                      *** Initiating the SOSCF procedure ***
                           *** Shutting down DIIS ***
                      *** Re-Reading the Fockian *** 
                      *** Removing any level shift *** 
ITER      Energy       Delta-E        Grad      Rot      Max-DP    RMS-DP
  6  -6092.70915056  -0.0010260141  0.002180  0.002180  0.002913  0.000028
               *** Restarting incremental Fock matrix formation ***
  7  -6092.70936059  -0.0002100338  0.001530  0.010628  0.001618  0.000027
  8  -6092.70956561  -0.0002050123  0.000520  0.009239  0.001875  0.000028
  9  -6092.70956848  -0.0000028757  0.000679  0.003724  0.001403  0.000011
 10  -6092.70961619  -0.0000477084  0.000162  0.001168  0.000548  0.000005
 11  -6092.70961434   0.0000018467  0.000153  0.000688  0.000346  0.000003
 12  -6092.70961881  -0.0000044618  0.000014  0.000069  0.000092  0.000001
 13  -6092.70961878   0.0000000294  0.000021  0.000042  0.000049  0.000000
 14  -6092.70961884  -0.0000000689  0.000003  0.000015  0.000020  0.000000
 15  -6092.70961883   0.0000000132  0.000005  0.000009  0.000011  0.000000
                  ***Gradient check signals convergence***
              ***Rediagonalizing the Fockian in SOSCF/NRSCF***

               *****************************************************
               *                     SUCCESS                       *
               *           SCF CONVERGED AFTER  16 CYCLES          *
               *****************************************************

Setting up the final grid:

General Integration Accuracy     IntAcc      ...  5.010
Radial Grid Type                 RadialGrid  ... Gauss-Chebyshev
Angular Grid (max. acc.)         AngularGrid ... Lebedev-434
Angular grid pruning method      GridPruning ... 3 (G Style)
Weight generation scheme         WeightScheme... Becke
Basis function cutoff            BFCut       ...    1.0000e-11
Integration weight cutoff        WCut        ...    1.0000e-14
Grids for H and He will be reduced by one unit

# of grid points (after initial pruning)     ... 1176724 (   0.1 sec)
# of grid points (after weights+screening)   ... 998396 (  21.1 sec)
nearest neighbour list constructed           ...    0.0 sec
Grid point re-assignment to atoms done       ...    0.1 sec
Grid point division into batches done        ...    6.3 sec
Reduced shell lists constructed in    8.3 sec

Total number of grid points                  ...   998396
Total number of batches                      ...    15662
Average number of points per batch           ...       63
Average number of grid points per atom       ...     7987
Average number of shells per batch           ...    87.81 (13.76%)
Average number of basis functions per batch  ...   184.23 (13.16%)
Average number of large shells per batch     ...    54.14 (61.66%)
Average number of large basis fcns per batch ...   115.91 (62.92%)
Maximum spatial batch extension              ...  21.59, 25.64, 20.98 au
Average spatial batch extension              ...   0.30,  0.30,  0.30 au

Final grid set up in   30.3 sec
Final integration                            ... done (   4.6 sec)
Change in XC energy                          ...    -0.000087374
Integrated number of electrons               ...   622.000003108
Previous integrated no of electrons          ...   621.999704039
Old exchange energy                            =   -163.971682853 Eh
New exchange energy                            =   -163.968821366 Eh
Exchange energy change after final integration =      0.002861486 Eh
Total energy after final integration           =  -6092.706844785 Eh
Final COS-X integration done in                =    86.416 sec

----------------
TOTAL SCF ENERGY
----------------

Total Energy       :        -6092.70684478 Eh         -165790.98190 eV

Components:
Nuclear Repulsion  :        12302.91138893 Eh          334779.23874 eV
Electronic Energy  :       -18395.61823372 Eh         -500570.22064 eV
One Electron Energy:       -32844.27565558 Eh         -893738.17736 eV
Two Electron Energy:        14448.65742186 Eh          393167.95672 eV

Virial components:
Potential Energy   :       -12149.20230597 Eh         -330596.60195 eV
Kinetic Energy     :         6056.49546118 Eh          164805.62005 eV
Virial Ratio       :            2.00597893


DFT components:
N(Alpha)           :      311.000001554188 electrons
N(Beta)            :      311.000001554188 electrons
N(Total)           :      622.000003108376 electrons
E(XC)              :     -464.981985432049 Eh       
DFET-embed. en.    :        0.000000000000 Eh       

---------------
SCF CONVERGENCE
---------------

  Last Energy change         ...   -6.5724e-08  Tolerance :   1.0000e-08
  Last MAX-Density change    ...    6.6613e-15  Tolerance :   1.0000e-07
  Last RMS-Density change    ...    3.3729e-17  Tolerance :   5.0000e-09
  Last Orbital Gradient      ...    1.4363e-06  Tolerance :   1.0000e-05
  Last Orbital Rotation      ...    4.6505e-06  Tolerance :   1.0000e-05

             **** THE GBW FILE WAS UPDATED (xtbopt.gbw) ****
             **** DENSITY FILE WAS UPDATED (xtbopt.scfp) ****
             **** ENERGY FILE WAS UPDATED (xtbopt.en.tmp) ****
             **** THE GBW FILE WAS UPDATED (xtbopt.gbw) ****
             **** DENSITY FILE WAS UPDATED (xtbopt.scfp) ****
----------------
ORBITAL ENERGIES
----------------

  NO   OCC          E(Eh)            E(eV) 
   0   2.0000    -101.603695     -2764.7771 
   1   2.0000    -101.602821     -2764.7533 
   2   2.0000    -101.601561     -2764.7190 
   3   2.0000    -101.599673     -2764.6677 
   4   2.0000     -88.960109     -2420.7276 
   5   2.0000     -88.959294     -2420.7054 
   6   2.0000     -88.957591     -2420.6591 
   7   2.0000     -19.223500      -523.0980 
   8   2.0000     -19.221881      -523.0540 
   9   2.0000     -14.422270      -392.4499 
  10   2.0000     -14.419681      -392.3795 
  11   2.0000     -14.419486      -392.3742 
  12   2.0000     -14.418066      -392.3355 
  13   2.0000     -10.374985      -282.3177 
  14   2.0000     -10.374648      -282.3085 
  15   2.0000     -10.360673      -281.9282 
  16   2.0000     -10.360020      -281.9105 
  17   2.0000     -10.357503      -281.8420 
  18   2.0000     -10.357027      -281.8290 
  19   2.0000     -10.351565      -281.6804 
  20   2.0000     -10.349600      -281.6269 
  21   2.0000     -10.347502      -281.5698 
  22   2.0000     -10.345901      -281.5263 
  23   2.0000     -10.324241      -280.9369 
  24   2.0000     -10.322133      -280.8795 
  25   2.0000     -10.321599      -280.8650 
  26   2.0000     -10.321065      -280.8505 
  27   2.0000     -10.320581      -280.8373 
  28   2.0000     -10.319877      -280.8181 
  29   2.0000     -10.319684      -280.8129 
  30   2.0000     -10.316605      -280.7291 
  31   2.0000     -10.313733      -280.6509 
  32   2.0000     -10.313605      -280.6474 
  33   2.0000     -10.310256      -280.5563 
  34   2.0000     -10.309939      -280.5477 
  35   2.0000     -10.307547      -280.4826 
  36   2.0000     -10.306671      -280.4588 
  37   2.0000     -10.306540      -280.4552 
  38   2.0000     -10.306263      -280.4477 
  39   2.0000     -10.304978      -280.4127 
  40   2.0000     -10.302337      -280.3408 
  41   2.0000     -10.301628      -280.3216 
  42   2.0000     -10.301615      -280.3212 
  43   2.0000     -10.301489      -280.3178 
  44   2.0000     -10.301091      -280.3069 
  45   2.0000     -10.292549      -280.0745 
  46   2.0000     -10.292247      -280.0663 
  47   2.0000     -10.291110      -280.0354 
  48   2.0000     -10.286810      -279.9183 
  49   2.0000     -10.286501      -279.9099 
  50   2.0000     -10.286273      -279.9037 
  51   2.0000     -10.286082      -279.8985 
  52   2.0000     -10.285529      -279.8835 
  53   2.0000     -10.285134      -279.8727 
  54   2.0000     -10.284538      -279.8565 
  55   2.0000     -10.284248      -279.8486 
  56   2.0000     -10.283972      -279.8411 
  57   2.0000     -10.283533      -279.8292 
  58   2.0000     -10.283458      -279.8271 
  59   2.0000     -10.282055      -279.7890 
  60   2.0000     -10.281406      -279.7713 
  61   2.0000     -10.279799      -279.7276 
  62   2.0000     -10.278962      -279.7048 
  63   2.0000     -10.278939      -279.7042 
[...]
  10      4.20     295.0   114 -> 118      gap,J,K:    5.407     1.346     0.070
  11      4.22     294.0   113 -> 117      gap,J,K:    5.230     1.039     0.013
  12      4.32     287.2   114 -> 119      gap,J,K:    5.467     1.251     0.051
  13      4.40     281.7   115 -> 121      gap,J,K:    5.745     1.699     0.178
  14      4.54     272.8   114 -> 120      gap,J,K:    5.936     1.720     0.164
  15      4.69     264.5   111 -> 116      gap,J,K:    5.873     1.575     0.195
  16      4.77     259.8   111 -> 117      gap,J,K:    5.904     1.491     0.179
  17      4.78     259.3   113 -> 120      gap,J,K:    6.376     2.072     0.238
  18      4.79     259.1   112 -> 118      gap,J,K:    5.978     1.365     0.086
  19      4.81     257.5   112 -> 119      gap,J,K:    6.038     1.385     0.081
  20      4.82     257.0   113 -> 118      gap,J,K:    5.847     1.101     0.039
  21      4.84     256.3   110 -> 116      gap,J,K:    6.015     1.526     0.174
  22      4.85     255.4   110 -> 117      gap,J,K:    6.047     1.595     0.201
  23      4.87     254.3   109 -> 116      gap,J,K:    6.106     1.444     0.106
  24      4.90     253.1   109 -> 117      gap,J,K:    6.138     1.465     0.113

average / max PT2 energy lowering (eV):       0.038       0.126

CSF included by PT:                   160 
total number of CSF included:         190 
 
sTD-DFT procedure...
setting up A+B and A-B matrices...  done
estimated time (min):    0.000
calculating (A-B)^0.5 ... done
calculating (A+B)*(A-B)^0.5 ... done
calculating (A-B)^0.5 *(A+B)*(A-B)^0.5 ... done
diagonalizing ...using LAPACKE_ssyevr ...done

   40 roots found, lowest/highest eigenvalue :     2.419     4.958

excitation energies, transition moments and amplitudes

molecular weight: 1209.124
state   eV        nm        fL         fV        Rl        RV
   0   2.419     512.6   1.944591   2.009700  -580.304710  -588.472029     0.61 ( 115-> 116)    0.18 ( 114-> 117)    0.05 ( 112-> 116)
   1   2.548     486.6   0.695584   0.730782  627.857287  664.084806     0.60 ( 115-> 117)    0.21 ( 114-> 116)    0.06 ( 112-> 117)
   2   3.099     400.1   0.750554   0.725069  -142.597545  -142.727484     0.37 ( 115-> 118)    0.22 ( 115-> 120)    0.12 ( 114-> 117)
   3   3.244     382.3   0.032431   0.031978   1.525356  -4.470490     0.20 ( 115-> 119)    0.12 ( 115-> 118)    0.11 ( 114-> 118)
   4   3.270     379.1   0.096021   0.098905  223.753274  240.295230     0.21 ( 114-> 116)    0.21 ( 115-> 117)    0.12 ( 112-> 117)
   5   3.321     373.4   0.450950   0.433130  -163.161299  -158.800351     0.22 ( 115-> 119)    0.21 ( 115-> 116)    0.17 ( 114-> 117)
   6   3.457     358.6   0.199659   0.204518  138.404753  134.775663     0.54 ( 115-> 120)    0.13 ( 114-> 119)    0.10 ( 115-> 119)
   7   3.757     330.0   0.032113   0.026859  47.433731  64.690000     0.12 ( 115-> 118)    0.09 ( 111-> 116)    0.06 ( 111-> 118)
   8   3.812     325.3   0.156895   0.136943  -3.023491  -7.573760     0.21 ( 110-> 117)    0.12 ( 109-> 116)    0.10 ( 110-> 116)
   9   3.844     322.6   0.024967   0.021682  -94.869585  -110.254610     0.14 ( 110-> 116)    0.12 ( 109-> 117)    0.10 ( 109-> 116)
  10   3.888     318.9   0.140298   0.123614  48.523284  27.576157     0.13 ( 111-> 116)    0.12 ( 114-> 118)    0.06 ( 113-> 116)
  11   3.936     315.0   0.114375   0.105181  -30.409344  -40.487557     0.18 ( 113-> 116)    0.09 ( 108-> 117)    0.09 ( 105-> 117)
  12   3.960     313.1   0.073435   0.052949  180.515855  154.389561     0.25 ( 105-> 117)    0.18 ( 105-> 116)    0.15 ( 113-> 116)
  13   4.026     308.0   0.127140   0.121825  -157.400952  -146.516731     0.09 ( 114-> 117)    0.08 ( 113-> 116)    0.08 ( 114-> 119)
  14   4.086     303.5   0.342765   0.283852  -59.303491  -55.271986     0.11 ( 114-> 119)    0.08 ( 102-> 117)    0.05 ( 104-> 117)
  15   4.101     302.4   0.007861   0.005646  27.904168  19.424653     0.26 ( 113-> 117)    0.08 ( 112-> 116)    0.08 ( 114-> 117)
  16   4.145     299.1   0.126312   0.107294  -167.902908  -150.563771     0.34 ( 115-> 121)    0.08 ( 114-> 120)    0.07 ( 113-> 116)
  17   4.178     296.8   0.098835   0.092395  -105.387636  -106.970766     0.26 ( 115-> 121)    0.08 ( 113-> 117)    0.07 ( 112-> 117)
  18   4.203     295.0   0.083520   0.062419  -29.675311   0.928748     0.10 ( 101-> 116)    0.07 ( 107-> 116)    0.06 ( 114-> 118)
  19   4.215     294.1   0.041399   0.036793  190.923778  178.747144     0.36 ( 113-> 117)    0.06 ( 114-> 116)    0.06 ( 114-> 117)
  20   4.281     289.6   0.047084   0.040514  91.722090  84.750125     0.12 ( 101-> 116)    0.09 ( 112-> 117)    0.08 ( 112-> 116)
  21   4.333     286.1   0.311255   0.266824  -57.892796  -53.931495     0.14 ( 102-> 119)    0.13 ( 100-> 119)    0.09 ( 110-> 119)
  22   4.363     284.2   0.061301   0.050548  27.259311  46.636074     0.43 ( 114-> 120)    0.06 ( 115-> 121)    0.05 ( 112-> 119)
  23   4.393     282.2   0.031274   0.023069  -31.685943  -23.757165     0.20 ( 106-> 116)    0.16 ( 107-> 116)    0.11 ( 106-> 117)
  24   4.437     279.4   0.008954   0.005310  20.341042  21.775279     0.23 ( 108-> 116)    0.16 ( 108-> 117)    0.08 ( 107-> 117)
  25   4.457     278.2   0.592718   0.499183  -612.827818  -542.870994     0.11 ( 111-> 118)    0.10 ( 110-> 118)    0.07 ( 102-> 116)
  26   4.498     275.6   0.074905   0.054280  205.494440  167.055247     0.36 ( 113-> 120)    0.28 ( 113-> 116)    0.09 ( 113-> 118)
  27   4.539     273.1   0.170222   0.145192  512.139037  462.253292     0.17 ( 100-> 117)    0.12 ( 100-> 116)    0.09 ( 100-> 119)
  28   4.642     267.1   0.327758   0.238594  -22.614902  17.475805     0.13 ( 111-> 118)    0.12 ( 110-> 118)    0.11 ( 102-> 116)
  29   4.676     265.1   0.139299   0.108928  57.238478  47.801456     0.10 ( 114-> 119)    0.07 ( 115-> 122)    0.06 ( 115-> 124)
  30   4.740     261.6   0.093067   0.068726  -52.832208  -47.211115     0.09 ( 110-> 119)    0.08 ( 114-> 119)    0.08 ( 112-> 118)
  31   4.778     259.5   0.014891   0.011308  -278.780799  -255.549294     0.17 ( 115-> 124)    0.09 ( 115-> 122)    0.06 ( 114-> 121)
  32   4.817     257.4   0.019100   0.012901  -4.762655  -0.955349     0.13 ( 114-> 118)    0.09 ( 112-> 119)    0.09 ( 106-> 118)
  33   4.861     255.1   0.066453   0.050772  -294.360219  -257.053823     0.14 ( 113-> 119)    0.09 ( 111-> 117)    0.07 ( 112-> 116)
  34   4.864     254.9   0.181734   0.135541  235.891293  204.834950     0.12 ( 111-> 116)    0.09 ( 112-> 117)    0.07 ( 109-> 118)
  35   4.884     253.8   0.027916   0.024784  37.224721  24.880629     0.12 ( 112-> 120)    0.07 ( 105-> 119)    0.06 ( 115-> 124)
  36   4.903     252.9   0.048295   0.038204   9.060262   9.382829     0.17 ( 105-> 119)    0.11 ( 115-> 122)    0.09 ( 108-> 119)
  37   4.918     252.1   0.062880   0.046350  133.833257  118.583585     0.20 ( 112-> 120)    0.09 ( 113-> 119)    0.08 ( 115-> 122)
  38   4.933     251.3   0.008995   0.006628  -73.565352  -63.411722     0.08 ( 115-> 122)    0.07 ( 108-> 118)    0.06 ( 113-> 119)
  39   4.958     250.1   0.014108   0.012148  -38.072153  -38.728436     0.25 ( 113-> 119)    0.17 ( 115-> 125)    0.07 ( 112-> 120)

-----------------------------------------------------------------------------
         ABSORPTION SPECTRUM VIA TRANSITION ELECTRIC DIPOLE MOMENTS
-----------------------------------------------------------------------------
State   Energy  Wavelength   fosc         T2         TX        TY        TZ  
        (cm-1)    (nm)                  (au**2)     (au)      (au)      (au) 
-----------------------------------------------------------------------------
   0   19507.4    512.6   1.944591354  32.81750  -2.01487  -5.23891   1.14527
   1   20551.2    486.6   0.695584026  11.14264   0.94429  -3.19869  -0.13910
   2   24995.5    400.1   0.750553793   9.88544   1.17042   2.62453  -1.27570
   3   26160.7    382.3   0.032430647   0.40811   0.56997   0.05620   0.28301
   4   26376.1    379.1   0.096020978   1.19848   0.69609  -0.76473  -0.35934
   5   26781.7    373.4   0.450950174   5.54326   0.96147   2.09472  -0.48062
   6   27884.4    358.6   0.199659179   2.35724   0.06507  -1.49575   0.34019
   7   30306.2    330.0   0.032112958   0.34884   0.29519   0.50819   0.05866
   8   30745.2    325.3   0.156895459   1.68000   0.38624   0.61388  -1.07423
   9   31000.4    322.6   0.024967446   0.26514  -0.49449   0.10427   0.09877
  10   31358.6    318.9   0.140298045   1.47289  -1.20566  -0.12624   0.05788
  11   31744.4    315.0   0.114374603   1.18615   0.56186   0.91087  -0.20192
  12   31943.5    313.1   0.073435007   0.75683   0.40050  -0.74374  -0.20802
  13   32469.0    308.0   0.127140035   1.28911  -0.23984  -0.76058   0.80815
  14   32954.1    303.5   0.342765215   3.42423   1.14475   1.11687  -0.93080
  15   33073.3    302.4   0.007861107   0.07825   0.15218   0.08173  -0.22003
  16   33430.7    299.1   0.126312327   1.24387  -0.48674   0.70589   0.71322
  17   33696.5    296.8   0.098835161   0.96561  -0.80978  -0.40317   0.38383
  18   33901.0    295.0   0.083519582   0.81106  -0.67415  -0.49142   0.33925
  19   33999.0    294.1   0.041399367   0.40087   0.42867  -0.23925  -0.39984
  20   34529.1    289.6   0.047084237   0.44892   0.11960  -0.65163   0.09992
  21   34948.1    286.1   0.311254818   2.93203  -0.24571  -1.21506   1.18122
  22   35188.3    284.2   0.061301125   0.57352   0.70349   0.26641  -0.08743
  23   35435.3    282.2   0.031274211   0.29055  -0.26482   0.27511   0.38044
  24   35785.2    279.4   0.008954326   0.08238  -0.01640  -0.26887   0.09909
  25   35951.6    278.2   0.592717747   5.42757  -2.21912  -0.44701   0.55070
  26   36281.4    275.6   0.074905459   0.67968  -0.14656   0.74636   0.31803
  27   36610.6    273.1   0.170221623   1.53068   0.34437  -0.96852   0.68852
  28   37443.3    267.1   0.327757764   2.88174   1.56010  -0.55925  -0.36750
  29   37716.7    265.1   0.139298918   1.21588   0.44186  -1.00874  -0.05551
  30   38230.7    261.6   0.093066909   0.80142  -0.37772   0.78269  -0.21480
  31   38538.1    259.5   0.014891321   0.12721   0.11423  -0.01852   0.33737
  32   38851.1    257.4   0.019100410   0.16185  -0.35779   0.17309   0.06229
  33   39204.3    255.1   0.066452803   0.55803   0.59624   0.44994   0.00874
  34   39230.9    254.9   0.181734302   1.52505   0.34044  -1.18703   0.01027
  35   39395.3    253.8   0.027916078   0.23328   0.24702  -0.35857   0.20902
  36   39546.8    252.9   0.048295377   0.40204  -0.29910  -0.33617   0.44673
  37   39666.8    252.1   0.062880231   0.52187   0.64942  -0.02070  -0.31575
  38   39786.7    251.3   0.008994868   0.07443   0.00193   0.03645  -0.27036
  39   39989.5    250.1   0.014107622   0.11614   0.31578   0.10821  -0.06865

-----------------------------------------------------------------------------
         ABSORPTION SPECTRUM VIA TRANSITION VELOCITY DIPOLE MOMENTS
-----------------------------------------------------------------------------
State   Energy  Wavelength   fosc         P2         PX        PY        PZ  
        (cm-1)    (nm)                  (au**2)     (au)      (au)      (au) 
-----------------------------------------------------------------------------
   0   19507.4    512.6   2.009700444   0.26794  -0.18320  -0.47282   0.10403
   1   20551.2    486.6   0.730781808   0.10264   0.09320  -0.30623  -0.01335
   2   24995.5    400.1   0.725069244   0.12386   0.13142   0.29321  -0.14360
   3   26160.7    382.3   0.031977532   0.00572   0.06835   0.00757   0.03144
   4   26376.1    379.1   0.098904839   0.01783   0.08500  -0.09436  -0.04122
   5   26781.7    373.4   0.433129846   0.07928   0.11303   0.25128  -0.05799
   6   27884.4    358.6   0.204517866   0.03898   0.00534  -0.19252   0.04342
   7   30306.2    330.0   0.026859136   0.00556   0.03588   0.06401   0.01335
   8   30745.2    325.3   0.136943376   0.02878   0.04732   0.08331  -0.13998
   9   31000.4    322.6   0.021682308   0.00459  -0.06368   0.01771   0.01499
  10   31358.6    318.9   0.123613667   0.02649  -0.16168  -0.01650   0.00903
  11   31744.4    315.0   0.105181079   0.02282   0.08078   0.12402  -0.03020
  12   31943.5    313.1   0.052949012   0.01156   0.05050  -0.09265  -0.02063
  13   32469.0    308.0   0.121825410   0.02703  -0.03146  -0.11527   0.11295
  14   32954.1    303.5   0.283852221   0.06393   0.15739   0.15093  -0.12799
  15   33073.3    302.4   0.005646024   0.00128   0.01657   0.01362  -0.02857
  16   33430.7    299.1   0.107293932   0.02451  -0.06737   0.10147   0.09839
  17   33696.5    296.8   0.092394646   0.02128  -0.11876  -0.06213   0.05757
  18   33901.0    295.0   0.062418972   0.01446  -0.08544  -0.07547   0.03828
  19   33999.0    294.1   0.036793483   0.00855   0.06112  -0.03758  -0.05832
  20   34529.1    289.6   0.040514119   0.00956   0.02058  -0.09474   0.01275
  21   34948.1    286.1   0.266823553   0.06373  -0.04030  -0.17685   0.17559
  22   35188.3    284.2   0.050547748   0.01216   0.10159   0.04152  -0.01058
  23   35435.3    282.2   0.023068936   0.00559  -0.03878   0.03519   0.05334
  24   35785.2    279.4   0.005309697   0.00130  -0.00318  -0.03220   0.01586
  25   35951.6    278.2   0.499182708   0.12265  -0.33333  -0.06925   0.08218
  26   36281.4    275.6   0.054280317   0.01346  -0.01746   0.10642   0.04277
  27   36610.6    273.1   0.145191788   0.03633   0.05477  -0.15018   0.10380
  28   37443.3    267.1   0.238594429   0.06106   0.22804  -0.07970  -0.05199
  29   37716.7    265.1   0.108927914   0.02808   0.06469  -0.15436  -0.00825
  30   38230.7    261.6   0.068725714   0.01796  -0.06067   0.11575  -0.02963
  31   38538.1    259.5   0.011308005   0.00298   0.02186   0.00662   0.04957
  32   38851.1    257.4   0.012901098   0.00343  -0.05296   0.02369   0.00772
  33   39204.3    255.1   0.050772113   0.01360   0.08949   0.07469   0.00407
  34   39230.9    254.9   0.135540921   0.03634   0.05374  -0.18289  -0.00202
  35   39395.3    253.8   0.024784213   0.00667   0.04575  -0.06036   0.03061
  36   39546.8    252.9   0.038204031   0.01033  -0.04700  -0.05741   0.06944
  37   39666.8    252.1   0.046349677   0.01257   0.10108  -0.00645  -0.04804
  38   39786.7    251.3   0.006628246   0.00180  -0.00040   0.00595  -0.04203
  39   39989.5    250.1   0.012148241   0.00332   0.05488   0.01302  -0.01181

-------------------------------------------------------------------
                             CD SPECTRUM
-------------------------------------------------------------------
State   Energy Wavelength       R         MX        MY        MZ   
        (cm-1)   (nm)       (1e40*cgs)   (au)      (au)      (au)  
-------------------------------------------------------------------
   0   19507.4    512.6    -580.30471  -0.52177  -0.59737  -1.50101
   1   20551.2    486.6    627.85729  -3.19944   0.09424  -4.73818
   2   24995.5    400.1    -142.59754  -1.69785  -0.14022  -2.32042
   3   26160.7    382.3      1.52536   0.60737  -0.05254  -1.23566
   4   26376.1    379.1    223.75327  -2.29564   0.27009  -2.38020
   5   26781.7    373.4    -163.16130   0.12968   0.63025   1.56610
   6   27884.4    358.6    138.40475  -0.66267  -0.21396  -2.53994
   7   30306.2    330.0     47.43373   0.14103  -0.23852  -2.07361
   8   30745.2    325.3     -3.02349  -1.43108  -0.44493  -0.78075
   9   31000.4    322.6    -94.86958   0.30711   0.80609   4.76125
  10   31358.6    318.9     48.52328   0.44936   1.10563   8.21597
  11   31744.4    315.0    -30.40934   0.05476  -0.46943  -2.60417
  12   31943.5    313.1    180.51585  -0.86214   0.53390   0.11262
  13   32469.0    308.0    -157.40095   1.44403   0.48432   1.71062
  14   32954.1    303.5    -59.30349  -1.70083  -0.21709  -2.62255
  15   33073.3    302.4     27.90417  -0.78484   0.14938   0.05068
  16   33430.7    299.1    -167.90291   3.40960  -0.05040   3.37548
  17   33696.5    296.8    -105.38764   1.11820   0.24340   3.77953
  18   33901.0    295.0    -29.67531   1.79303  -0.10066   3.78833
  19   33999.0    294.1    190.92378  -1.21736   0.38702   0.48897
  20   34529.1    289.6     91.72209  -1.16166   0.06396  -2.08660
  21   34948.1    286.1    -57.89280   1.57819   1.55892   2.13979
  22   35188.3    284.2     27.25931  -0.61163  -0.82297  -6.10663
  23   35435.3    282.2    -31.68594   1.79248  -0.11004   1.68062
  24   35785.2    279.4     20.34104   0.23401  -0.10290  -1.11136
  25   35951.6    278.2    -612.82782   2.67729   1.94917  17.09167
  26   36281.4    275.6    205.49444   1.56557  -0.56843  -0.68569
  27   36610.6    273.1    512.13904   0.50922   0.24717  -3.06251
  28   37443.3    267.1    -22.61490  -3.66443  -1.16073 -14.05082
  29   37716.7    265.1     57.23848  -1.11747  -0.03539  -3.87767
  30   38230.7    261.6    -52.83221  -1.27532  -0.89150  -2.04923
  31   38538.1    259.5    -278.78080   1.64764   0.88236   2.99611
  32   38851.1    257.4     -4.76265   0.22410   0.06400   1.43373
  33   39204.3    255.1    -294.36022   1.78281   0.38020   1.68288
  34   39230.9    254.9    235.89129  -0.67712   0.64950   0.07553
  35   39395.3    253.8     37.22472   0.40316  -0.04013  -1.30079
  36   39546.8    252.9      9.06026   0.81783   0.15179   0.57573
  37   39666.8    252.1    133.83326  -1.19217   0.55588  -0.69028
  38   39786.7    251.3    -73.56535  -0.52746  -0.42385  -1.21524
  39   39989.5    250.1    -38.07215   0.25991  -0.35973  -1.72412

sTD-DFT done

Total run time:        5.659 sec

           *** ORCA-CIS/TD-DFT FINISHED WITHOUT ERROR ***

-------------------------   --------------------
FINAL SINGLE POINT ENERGY     -6092.706844784694
-------------------------   --------------------


                            ***************************************
                            *     ORCA property calculations      *
                            ***************************************

                                    ---------------------
                                    Active property flags
                                    ---------------------
   (+) Dipole Moment


------------------------------------------------------------------------------
                       ORCA ELECTRIC PROPERTIES CALCULATION
------------------------------------------------------------------------------

Dipole Moment Calculation                       ... on
Quadrupole Moment Calculation                   ... off
Polarizability Calculation                      ... off
GBWName                                         ... xtbopt.gbw
Electron density file                           ... xtbopt.scfp
The origin for moment calculation is the CENTER OF MASS  = (-4.217838, -29.001451  2.986677)

-------------
DIPOLE MOMENT
-------------
                                X             Y             Z
Electronic contribution:     33.20283     -36.17068     -24.23318
Nuclear contribution   :    -35.59107      38.33250      23.71615
                        -----------------------------------------
Total Dipole Moment    :     -2.38824       2.16182      -0.51703
                        -----------------------------------------
Magnitude (a.u.)       :      3.26259
Magnitude (Debye)      :      8.29284



--------------------
Rotational spectrum 
--------------------
 
Rotational constants in cm-1:     0.001589     0.000089     0.000085 
Rotational constants in MHz :    47.627757     2.667321     2.557258 

 Dipole components along the rotational axes: 
x,y,z [a.u.] :    -1.322279    -2.547295    -1.551562 
x,y,z [Debye]:    -3.360966    -6.474710    -3.943758 

 

Timings for individual modules:

Sum of individual times         ...      870.461 sec (=  14.508 min)
GTO integral calculation        ...        4.110 sec (=   0.069 min)   0.5 %
SCF iterations                  ...      859.857 sec (=  14.331 min)  98.8 %
CIS module                      ...        6.494 sec (=   0.108 min)   0.7 %
                             ****ORCA TERMINATED NORMALLY****
TOTAL RUN TIME: 0 days 0 hours 14 minutes 31 seconds 671 msec
