
                                 *****************
                                 * O   R   C   A *
                                 *****************

           --- An Ab Initio, DFT and Semiempirical electronic structure package ---

                  #######################################################
                  #                        -***-                        #
                  #          Department of theory and spectroscopy      #
                  #               Directorship: Frank Neese             #
                  #        Max Planck Institute fuer Kohlenforschung    #
                  #                Kaiser Wilhelm Platz 1               #
                  #                 D-45470 Muelheim/Ruhr               #
                  #                      Germany                        #
                  #                                                     #
                  #                  All rights reserved                #
                  #                        -***-                        #
                  #######################################################


                         Program Version 4.2.0 -  RELEASE  -


 With contributions from (in alphabetic order):
   Daniel Aravena         : Magnetic Suceptibility
   Michael Atanasov       : Ab Initio Ligand Field Theory (pilot matlab implementation)
   Alexander A. Auer      : GIAO ZORA, VPT2
   Ute Becker             : Parallelization
   Giovanni Bistoni       : ED, misc. LED, open-shell LED, HFLED
   Martin Brehm           : Molecular dynamics
   Dmytro Bykov           : SCF Hessian
   Vijay G. Chilkuri      : MRCI spin determinant printing, contributions to CSF-ICE
   Dipayan Datta          : RHF DLPNO-CCSD density
   Achintya Kumar Dutta   : EOM-CC, STEOM-CC
   Dmitry Ganyushin       : Spin-Orbit,Spin-Spin,Magnetic field MRCI
   Miquel Garcia          : C-PCM Hessian, Gaussian charge scheme
   Yang Guo               : DLPNO-NEVPT2, CIM, IAO-localization
   Andreas Hansen         : Spin unrestricted coupled pair/coupled cluster methods
   Benjamin Helmich-Paris : CASSCF linear response (MC-RPA)
   Lee Huntington         : MR-EOM, pCC
   Robert Izsak           : Overlap fitted RIJCOSX, COSX-SCS-MP3, EOM
   Christian Kollmar      : KDIIS, OOCD, Brueckner-CCSD(T), CCSD density
   Simone Kossmann        : Meta GGA functionals, TD-DFT gradient, OOMP2, MP2 Hessian
   Martin Krupicka        : AUTO-CI
   Lucas Lang             : DCDCAS
   Dagmar Lenk            : GEPOL surface, SMD
   Dimitrios Liakos       : Extrapolation schemes; Compound Job, initial MDCI parallelization
   Dimitrios Manganas     : Further ROCIS development; embedding schemes
   Dimitrios Pantazis     : SARC Basis sets
   Taras Petrenko         : DFT Hessian,TD-DFT gradient, ASA, ECA, R-Raman, ABS, FL, XAS/XES, NRVS
   Peter Pinski           : DLPNO-MP2, DLPNO-MP2 Gradient
   Christoph Reimann      : Effective Core Potentials
   Marius Retegan         : Local ZFS, SOC
   Christoph Riplinger    : Optimizer, TS searches, QM/MM, DLPNO-CCSD(T), (RO)-DLPNO pert. Triples
   Tobias Risthaus        : Range-separated hybrids, TD-DFT gradient, RPA, STAB
   Michael Roemelt        : Original ROCIS implementation
   Masaaki Saitow         : Open-shell DLPNO-CCSD energy and density
   Barbara Sandhoefer     : DKH picture change effects
   Avijit Sen             : IP-ROCIS
   Kantharuban Sivalingam : CASSCF convergence, NEVPT2, FIC-MRCI
   Bernardo de Souza      : ESD, SOC TD-DFT
   Georgi Stoychev        : AutoAux, RI-MP2 NMR
   Willem Van den Heuvel  : Paramagnetic NMR
   Boris Wezisla          : Elementary symmetry handling
   Frank Wennmohs         : Technical directorship


 We gratefully acknowledge several colleagues who have allowed us to
 interface, adapt or use parts of their codes:
   Stefan Grimme, W. Hujo, H. Kruse,             : VdW corrections, initial TS optimization,
                  C. Bannwarth                     DFT functionals, gCP, sTDA/sTD-DF
   Ed Valeev, F. Pavosevic, A. Kumar             : LibInt (2-el integral package), F12 methods
   Garnet Chan, S. Sharma, J. Yang, R. Olivares  : DMRG
   Ulf Ekstrom                                   : XCFun DFT Library
   Mihaly Kallay                                 : mrcc  (arbitrary order and MRCC methods)
   Andreas Klamt, Michael Diedenhofen            : otool_cosmo (COSMO solvation model)
   Jiri Pittner, Ondrej Demel                    : Mk-CCSD
   Frank Weinhold                                : gennbo (NPA and NBO analysis)
   Christopher J. Cramer and Donald G. Truhlar   : smd solvation model
   Lars Goerigk                                  : TD-DFT with DH, B97 family of functionals
   V. Asgeirsson, H. Jonsson                     : NEB implementation
   FAccTs GmbH                                   : IRC, NEB, NEB-TS, Multilevel, MM, QM/MM, CI optimization
   S Lehtola, MJT Oliveira, MAL Marques          : LibXC Library


 Your calculation uses the libint2 library for the computation of 2-el integrals
 For citations please refer to: http://libint.valeyev.net

 Your ORCA version has been built with support for libXC version: 4.2.3
 For citations please refer to: https://tddft.org/programs/libxc/

 This ORCA versions uses:
   CBLAS   interface :  Fast vector & matrix operations
   LAPACKE interface :  Fast linear algebra routines
   SCALAPACK package :  Parallel linear algebra routines


XCFun DFT library Copyright 2009-2010 Ulf Ekstrom and contributors.
See http://admol.org/xcfun for more information. This is free soft-
ware; see the source code for copying conditions. There is ABSOLUTELY
NO WARRANTY; not even for MERCHANTABILITY or FITNESS FOR A PARTICULAR
PURPOSE. For details see the documentation. Scientific users of this 
library should cite U. Ekstrom, L. Visscher, R. Bast, A. J. Thorvald-
sen and K. Ruud; J.Chem.Theor.Comp. 2010, DOI: 10.1021/ct100117s
XCFun Version 0.99 
----- Orbital basis set information -----
Your calculation utilizes the basis: def2-SVP
   F. Weigend and R. Ahlrichs, Phys. Chem. Chem. Phys. 7, 3297 (2005).

----- AuxJ basis set information -----
Your calculation utilizes the auxiliary basis: def2/J
   F. Weigend, Phys. Chem. Chem. Phys. 8, 1057 (2006).

================================================================================
                                        WARNINGS
                       Please study these warnings very carefully!
================================================================================

INFO   : Checking CIS options ...

WARNING: CIS/ROCIS methods need fully converged wavefunctions
  ===> : Setting SCFConvForced true
         You can overwrite this default with %scf ConvForced false 


INFO   : the flag for use of LIBINT has been found!

================================================================================
                                       INPUT FILE
================================================================================
NAME = 78_25_19_25_78.inp
|  1> # ORCA input file
|  2> # SCF done       -185.174073485660          0.000506461943
|  3> ! CAM-B3LYP def2-SVP def2/J RIJCOSX Grid4 TightSCF
|  4> %maxcore 5000
|  5> %tddft
|  6>     Mode sTDDFT
|  7>     Ethresh 5.0
|  8>     maxcore 5000
|  9> end
| 10> 
| 11> %pal
| 12>   nprocs 6
| 13>   end
| 14> * xyz 0 1
| 15>    C       -2.20653         1.27263         6.69517
| 16>    C       -1.99094         1.36365         8.04182
| 17>    F       -1.69960         2.54527         8.59851
| 18>    C       -2.07173         0.21893         8.86049
| 19>    F       -1.85597         0.33791        10.17644
| 20>    C       -2.36609        -1.00170         8.32045
| 21>    C       -2.59253        -1.12778         6.93616
| 22>    C       -2.51288         0.02883         6.10736
| 23>    C       -2.73863        -0.07239         4.71538
| 24>    C       -3.03363        -1.29321         4.16723
| 25>    C       -3.10458        -2.44267         5.00311
| 26>    C       -2.89460        -2.37682         6.35049
| 27>    C       -3.41828        -3.62106         4.17906
| 28>    O       -3.55753        -4.76319         4.57582
| 29>    C       -3.52006        -3.13796         2.79367
| 30>    C       -3.31092        -1.69902         2.79105
| 31>    C       -3.37924        -0.85047         1.71800
| 32>    C       -3.66966        -1.22070         0.38740
| 33>    N       -3.90167        -1.44077        -0.71560
| 34>    C       -3.17592         0.54438         1.80139
| 35>    N       -3.02249         1.68162         1.80236
| 36>    C       -3.74365        -3.91819         1.69219
| 37>    C       -3.96141        -5.30468         1.58148
| 38>    C       -4.15440        -5.90888         0.33847
| 39>    C       -4.36578        -7.27193         0.44830
| 40>    C       -4.34253        -7.73508         1.77578
| 41>    S       -4.04327        -6.46416         2.90053
| 42>    C       -4.56631        -9.10960         1.88407
| 43>    C       -4.75809        -9.69708         0.65305
| 44>    S       -4.66302        -8.55702        -0.67140
| 45>    C       -5.02516       -11.08596         0.40086
| 46>    C       -5.18734       -11.61734        -0.83953
| 47>    C       -5.46046       -13.01100        -1.00379
| 48>    C       -5.61648       -13.59292        -2.24869
| 49>    C       -5.87987       -14.96511        -2.39242
| 50>    N       -6.09176       -16.08908        -2.49758
| 51>    C       -5.51361       -12.84471        -3.43287
| 52>    N       -5.42632       -12.22602        -4.39658
| 53>    C       -5.56221       -13.76426         0.20736
| 54>    C       -5.38560       -13.16238         1.41245
| 55>    O       -5.10751       -11.83674         1.53274
| 56>    C       -5.47086       -13.84850         2.67244
| 57>    C       -5.24596       -13.30734         3.91952
| 58>    C       -5.42809       -14.25630         4.92592
| 59>    C       -5.79040       -15.52482         4.45275
| 60>    S       -5.90738       -15.54007         2.73177
| 61>    C       -5.96021       -16.47549         5.45756
| 62>    C       -5.77297       -15.93698         6.71511
| 63>    S       -5.31465       -14.23943         6.64397
| 64>    C       -5.83357       -16.65763         7.93612
| 65>    C       -5.99355       -16.19259         9.20111
| 66>    C       -5.56886       -17.03669        10.35621
| 67>    O       -5.31791       -18.21751        10.33438
| 68>    C       -5.46087       -16.09978        11.49285
| 69>    C       -4.98630       -16.33086        12.75210
| 70>    C       -4.94825       -15.26443        13.67804
| 71>    C       -5.39916       -13.97239        13.27802
| 72>    C       -5.34787       -12.91143        14.20440
| 73>    C       -4.87540       -13.12342        15.46907
| 74>    C       -4.43307       -14.40228        15.86485
| 75>    C       -4.46842       -15.45109        14.98923
| 76>    F       -3.97482       -14.58040        17.11008
| 77>    F       -4.82718       -12.11444        16.34720
| 78>    C       -5.89487       -13.76465        11.97078
| 79>    C       -5.93107       -14.81525        11.09378
| 80>    C       -6.41948       -14.90864         9.72178
| 81>    C       -7.34338       -14.07690         9.14905
| 82>    C       -8.00660       -14.37934         7.94071
| 83>    N       -8.59534       -14.62362         6.98652
| 84>    C       -7.79727       -12.88351         9.74692
| 85>    N       -8.17733       -11.89504        10.18843
| 86>    H       -2.14145         2.15881         6.08355
| 87>    H       -2.42412        -1.86822         8.96016
| 88>    H       -2.66933         0.82225         4.11867
| 89>    H       -2.95681        -3.26586         6.95923
| 90>    H       -3.75636        -3.41676         0.73201
| 91>    H       -4.14003        -5.35992        -0.58550
| 92>    H       -4.59104        -9.65512         2.80852
| 93>    H       -5.11020       -10.98457        -1.70965
| 94>    H       -5.77938       -14.81973         0.15979
| 95>    H       -4.96970       -12.28257         4.08070
| 96>    H       -6.24113       -17.49899         5.29198
| 97>    H       -5.65073       -17.72522         7.85412
| 98>    H       -4.64398       -17.31367        13.03813
| 99>    H       -5.68658       -11.92770        13.91927
|100>    H       -4.12609       -16.42325        15.30755
|101>    H       -6.22438       -12.77704        11.68934
|102> *
|103> 
|104>                          ****END OF INPUT****
================================================================================

                       ****************************
                       * Single Point Calculation *
                       ****************************

---------------------------------
CARTESIAN COORDINATES (ANGSTROEM)
---------------------------------
  C     -2.206530    1.272630    6.695170
  C     -1.990940    1.363650    8.041820
  F     -1.699600    2.545270    8.598510
  C     -2.071730    0.218930    8.860490
  F     -1.855970    0.337910   10.176440
  C     -2.366090   -1.001700    8.320450
  C     -2.592530   -1.127780    6.936160
  C     -2.512880    0.028830    6.107360
  C     -2.738630   -0.072390    4.715380
  C     -3.033630   -1.293210    4.167230
  C     -3.104580   -2.442670    5.003110
  C     -2.894600   -2.376820    6.350490
  C     -3.418280   -3.621060    4.179060
  O     -3.557530   -4.763190    4.575820
  C     -3.520060   -3.137960    2.793670
  C     -3.310920   -1.699020    2.791050
  C     -3.379240   -0.850470    1.718000
  C     -3.669660   -1.220700    0.387400
  N     -3.901670   -1.440770   -0.715600
  C     -3.175920    0.544380    1.801390
  N     -3.022490    1.681620    1.802360
  C     -3.743650   -3.918190    1.692190
  C     -3.961410   -5.304680    1.581480
  C     -4.154400   -5.908880    0.338470
  C     -4.365780   -7.271930    0.448300
  C     -4.342530   -7.735080    1.775780
  S     -4.043270   -6.464160    2.900530
  C     -4.566310   -9.109600    1.884070
  C     -4.758090   -9.697080    0.653050
  S     -4.663020   -8.557020   -0.671400
  C     -5.025160  -11.085960    0.400860
  C     -5.187340  -11.617340   -0.839530
  C     -5.460460  -13.011000   -1.003790
  C     -5.616480  -13.592920   -2.248690
  C     -5.879870  -14.965110   -2.392420
  N     -6.091760  -16.089080   -2.497580
  C     -5.513610  -12.844710   -3.432870
  N     -5.426320  -12.226020   -4.396580
  C     -5.562210  -13.764260    0.207360
  C     -5.385600  -13.162380    1.412450
  O     -5.107510  -11.836740    1.532740
  C     -5.470860  -13.848500    2.672440
  C     -5.245960  -13.307340    3.919520
  C     -5.428090  -14.256300    4.925920
  C     -5.790400  -15.524820    4.452750
  S     -5.907380  -15.540070    2.731770
  C     -5.960210  -16.475490    5.457560
  C     -5.772970  -15.936980    6.715110
  S     -5.314650  -14.239430    6.643970
  C     -5.833570  -16.657630    7.936120
  C     -5.993550  -16.192590    9.201110
  C     -5.568860  -17.036690   10.356210
  O     -5.317910  -18.217510   10.334380
  C     -5.460870  -16.099780   11.492850
  C     -4.986300  -16.330860   12.752100
  C     -4.948250  -15.264430   13.678040
  C     -5.399160  -13.972390   13.278020
  C     -5.347870  -12.911430   14.204400
  C     -4.875400  -13.123420   15.469070
  C     -4.433070  -14.402280   15.864850
  C     -4.468420  -15.451090   14.989230
  F     -3.974820  -14.580400   17.110080
  F     -4.827180  -12.114440   16.347200
  C     -5.894870  -13.764650   11.970780
  C     -5.931070  -14.815250   11.093780
  C     -6.419480  -14.908640    9.721780
  C     -7.343380  -14.076900    9.149050
  C     -8.006600  -14.379340    7.940710
  N     -8.595340  -14.623620    6.986520
  C     -7.797270  -12.883510    9.746920
  N     -8.177330  -11.895040   10.188430
  H     -2.141450    2.158810    6.083550
  H     -2.424120   -1.868220    8.960160
  H     -2.669330    0.822250    4.118670
  H     -2.956810   -3.265860    6.959230
  H     -3.756360   -3.416760    0.732010
  H     -4.140030   -5.359920   -0.585500
  H     -4.591040   -9.655120    2.808520
  H     -5.110200  -10.984570   -1.709650
  H     -5.779380  -14.819730    0.159790
  H     -4.969700  -12.282570    4.080700
  H     -6.241130  -17.498990    5.291980
  H     -5.650730  -17.725220    7.854120
  H     -4.643980  -17.313670   13.038130
  H     -5.686580  -11.927700   13.919270
  H     -4.126090  -16.423250   15.307550
  H     -6.224380  -12.777040   11.689340

----------------------------
CARTESIAN COORDINATES (A.U.)
----------------------------
  NO LB      ZA    FRAG     MASS         X           Y           Z
   0 C     6.0000    0    12.011   -4.169737    2.404922   12.652038
   1 C     6.0000    0    12.011   -3.762331    2.576925   15.196837
   2 F     9.0000    0    18.998   -3.211779    4.809863   16.248829
   3 C     6.0000    0    12.011   -3.915002    0.413718   16.743900
   4 F     9.0000    0    18.998   -3.507275    0.638557   19.230685
   5 C     6.0000    0    12.011   -4.471262   -1.892939   15.723372
   6 C     6.0000    0    12.011   -4.899172   -2.131195   13.107443
   7 C     6.0000    0    12.011   -4.748655    0.054481   11.541238
   8 C     6.0000    0    12.011   -5.175261   -0.136797    8.910777
   9 C     6.0000    0    12.011   -5.732730   -2.443813    7.874923
  10 C     6.0000    0    12.011   -5.866806   -4.615977    9.454508
  11 C     6.0000    0    12.011   -5.470001   -4.491539   12.000687
  12 C     6.0000    0    12.011   -6.459613   -6.842812    7.897279
  13 O     8.0000    0    15.999   -6.722757   -9.001125    8.647047
  14 C     6.0000    0    12.011   -6.651949   -5.929885    5.279271
  15 C     6.0000    0    12.011   -6.256732   -3.210682    5.274320
  16 C     6.0000    0    12.011   -6.385838   -1.607155    3.246549
  17 C     6.0000    0    12.011   -6.934652   -2.306789    0.732080
  18 N     7.0000    0    14.007   -7.373088   -2.722661   -1.352288
  19 C     6.0000    0    12.011   -6.001619    1.028729    3.404134
  20 N     7.0000    0    14.007   -5.711678    3.177801    3.405967
  21 C     6.0000    0    12.011   -7.074473   -7.404306    3.197776
  22 C     6.0000    0    12.011   -7.485980  -10.024392    2.988564
  23 C     6.0000    0    12.011   -7.850678  -11.166165    0.639616
  24 C     6.0000    0    12.011   -8.250129  -13.741956    0.847164
  25 C     6.0000    0    12.011   -8.206192  -14.617183    3.355738
  26 S    16.0000    0    32.060   -7.640673  -12.215492    5.481207
  27 C     6.0000    0    12.011   -8.629075  -17.214649    3.560376
  28 C     6.0000    0    12.011   -8.991487  -18.324825    1.234086
  29 S    16.0000    0    32.060   -8.811831  -16.170424   -1.268762
  30 C     6.0000    0    12.011   -9.496176  -20.949428    0.757516
  31 C     6.0000    0    12.011   -9.802652  -21.953591   -1.586482
  32 C     6.0000    0    12.011  -10.318774  -24.587227   -1.896888
  33 C     6.0000    0    12.011  -10.613609  -25.686896   -4.249408
  34 C     6.0000    0    12.011  -11.111344  -28.279959   -4.521019
  35 N     7.0000    0    14.007  -11.511758  -30.403955   -4.719742
  36 C     6.0000    0    12.011  -10.419213  -24.272984   -6.487184
  37 N     7.0000    0    14.007  -10.254259  -23.103830   -8.308332
  38 C     6.0000    0    12.011  -10.511054  -26.010682    0.391854
  39 C     6.0000    0    12.011  -10.177309  -24.873293    2.669144
  40 O     8.0000    0    15.999   -9.651795  -22.368197    2.896459
  41 C     6.0000    0    12.011  -10.338427  -26.169872    5.050180
  42 C     6.0000    0    12.011   -9.913428  -25.147228    7.406819
  43 C     6.0000    0    12.011  -10.257604  -26.940503    9.308640
  44 C     6.0000    0    12.011  -10.942270  -29.337658    8.414478
  45 S    16.0000    0    32.060  -11.163330  -29.366476    5.162297
  46 C     6.0000    0    12.011  -11.263165  -31.134164   10.313294
  47 C     6.0000    0    12.011  -10.909332  -30.116528   12.689719
  48 S    16.0000    0    32.060  -10.043233  -26.908623   12.555284
  49 C     6.0000    0    12.011  -11.023850  -31.478359   14.997093
  50 C     6.0000    0    12.011  -11.326168  -30.599560   17.387578
  51 C     6.0000    0    12.011  -10.523620  -32.194678   19.570401
  52 O     8.0000    0    15.999  -10.049394  -34.426105   19.529148
  53 C     6.0000    0    12.011  -10.319549  -30.424175   21.718339
  54 C     6.0000    0    12.011   -9.422741  -30.860853   24.097977
  55 C     6.0000    0    12.011   -9.350837  -28.845592   25.847750
  56 C     6.0000    0    12.011  -10.202934  -26.403991   25.091821
  57 C     6.0000    0    12.011  -10.106010  -24.399067   26.842426
  58 C     6.0000    0    12.011   -9.213171  -24.799670   29.232306
  59 C     6.0000    0    12.011   -8.377288  -27.216365   29.980222
  60 C     6.0000    0    12.011   -8.444090  -29.198329   28.325540
  61 F     9.0000    0    18.998   -7.511321  -27.552963   32.333365
  62 F     9.0000    0    18.998   -9.122048  -22.892974   30.891731
  63 C     6.0000    0    12.011  -11.139690  -26.011419   22.621496
  64 C     6.0000    0    12.011  -11.208098  -27.996765   20.964206
  65 C     6.0000    0    12.011  -12.131059  -28.173247   18.371502
  66 C     6.0000    0    12.011  -13.876977  -26.601486   17.289199
  67 C     6.0000    0    12.011  -15.130281  -27.173015   15.005767
  68 N     7.0000    0    14.007  -16.242839  -27.634637   13.202609
  69 C     6.0000    0    12.011  -14.734705  -24.346306   18.419009
  70 N     7.0000    0    14.007  -15.452914  -22.478368   19.253342
  71 H     1.0000    0     1.008   -4.046754    4.079560   11.496243
  72 H     1.0000    0     1.008   -4.580923   -3.530424   16.932249
  73 H     1.0000    0     1.008   -5.044303    1.553827    7.783158
  74 H     1.0000    0     1.008   -5.587561   -6.171581   13.151039
  75 H     1.0000    0     1.008   -7.098492   -6.456741    1.383298
  76 H     1.0000    0     1.008   -7.823523  -10.128781   -1.106435
  77 H     1.0000    0     1.008   -8.675808  -18.245533    5.307334
  78 H     1.0000    0     1.008   -9.656878  -20.757829   -3.230770
  79 H     1.0000    0     1.008  -10.921445  -28.005231    0.301959
  80 H     1.0000    0     1.008   -9.391372  -23.210694    7.711405
  81 H     1.0000    0     1.008  -11.794026  -33.068299   10.000393
  82 H     1.0000    0     1.008  -10.678332  -33.495811   14.842136
  83 H     1.0000    0     1.008   -8.775850  -32.718095   24.638495
  84 H     1.0000    0     1.008  -10.746079  -22.540086   26.303608
  85 H     1.0000    0     1.008   -7.797180  -31.035445   28.927077
  86 H     1.0000    0     1.008  -11.762374  -24.145106   22.089651

--------------------------------
INTERNAL COORDINATES (ANGSTROEM)
--------------------------------
 C      0   0   0     0.000000000000     0.00000000     0.00000000
 C      1   0   0     1.366832071251     0.00000000     0.00000000
 F      2   1   0     1.338285685532   120.19628936     0.00000000
 C      2   1   3     1.409656508303   120.60170981   180.01257223
 F      4   2   1     1.338817769713   119.30349432   180.01039722
 C      4   2   1     1.366831594638   120.53590651     0.05403414
 C      6   4   2     1.408343013651   120.19403253     0.00000000
 C      1   2   3     1.409400354264   120.26218793   179.97287111
 C      8   1   2     1.413795201329   120.56519776   179.92454896
 C      9   8   1     1.370363052224   119.47125234   179.93508371
 C     10   9   8     1.423020579085   119.69508933   359.78770311
 C     11  10   9     1.365232832633   122.21429884     0.36301731
 C     11  10   9     1.471757141855   109.17692703   180.64918271
 O     13  11  10     1.217074359684   126.38620454   180.37524336
 C     13  11  10     1.470731189069   106.21064182     0.65924032
 C     15  13  11     1.454061459361   108.46973672   358.41528822
 C     16  15  13     1.369722974692   127.39451310   183.02868065
 C     17  16  15     1.411350555071   125.89751181   359.92655899
 N     18  17  16     1.148419977621   175.81850033   177.44929038
 C     17  16  15     1.412055040358   123.95280903   179.29543243
 N     20  17  16     1.147543691282   176.60764628   180.73265616
 C     15  13  11     1.368213993277   125.61456034   177.05812699
 C     22  15  13     1.407846100183   130.55578529     1.84925227
 C     23  22  15     1.395484374760   121.18726385   180.85440372
 C     24  23  22     1.383708580518   112.14360531   180.67218152
 C     25  24  23     1.406147799984   113.38232115     0.17912304
 S     26  25  24     1.723327234306   112.09305460   359.58535094
 C     26  25  24     1.396821192172   113.24453384   179.54108372
 C     28  26  25     1.377433322960   111.88310044     0.06491648
 S     25  24  23     1.730183809802   134.95373847   179.81943012
 C     29  28  26     1.436632811612   126.51924742   180.67032107
 C     31  29  28     1.359130019130   124.08097621   181.00877438
 C     32  31  29     1.429637743486   120.58301914   180.44766675
 C     33  32  31     1.383021741261   122.35369895   180.76963638
 C     34  33  32     1.404613114384   121.62174522   179.77054975
 N     35  34  33     1.148592424927   179.35182548   345.18046867
 C     34  33  32     1.404522236705   121.76994710     0.07761382
 N     37  34  33     1.148535512860   179.55803419    10.75101721
 C     33  32  31     1.429908393080   115.45535594     0.79237589
 C     39  33  32     1.358562672312   120.57699104   359.10383196
 O     40  39  33     1.359825408573   122.47567188     0.00000000
 C     40  39  33     1.437221180647   123.94786987   180.02554978
 C     42  40  39     1.377912436260   126.60323693   177.01292458
 C     43  42  40     1.395183636121   111.37141841   179.47076149
 C     44  43  42     1.401535363592   113.94328792     0.08728004
 S     45  44  43     1.725018563175   111.24458022     0.00000000
 C     45  44  43     1.393647021702   113.92184535   179.44103942
 C     47  45  44     1.380754808139   111.96816324     1.97241878
 S     44  43  42     1.721873698330   134.78695433   180.23450372
 C     48  47  45     1.419110356033   125.43546628   182.18156739
 C     50  48  47     1.357223453268   129.26948432   198.10665457
 C     51  50  48     1.492354654933   119.60809823   201.01633610
 O     52  51  50     1.207389052377   126.74990094   344.73791037
 C     52  51  50     1.476960621615   104.93202296   161.94700602
 C     54  52  51     1.365402949242   128.88839676   186.85996311
 C     55  54  52     1.412828946122   119.08084536   178.51261847
 C     56  55  54     1.425729003037   119.44851645   359.73164282
 C     57  56  55     1.409413597955   119.09485704   180.50537380
 C     58  57  56     1.366586210197   120.26975034   359.80654694
 C     59  58  57     1.409886710662   120.59440428     0.02512371
 C     60  59  58     1.366734218127   120.53781989     0.06373743
 F     60  59  58     1.338774644890   119.28628465   179.97836634
 F     59  58  57     1.338461096073   120.17638703   179.98185401
 C     57  56  55     1.413421638896   120.23906867     0.75079296
 C     64  57  56     1.369014170854   119.27251130   359.71150817
 C     51  50  48     1.449496883853   132.29445444    14.60230568
 C     66  51  50     1.368722868407   125.89596945    33.99849864
 C     67  66  51     1.411175494969   123.04512007   359.66462159
 N     68  67  66     1.147504275417   177.15222202   119.14384401
 C     67  66  51     1.409838416663   123.65896543   175.05554968
 N     70  67  66     1.147366386382   177.53238121   154.56051016
 H      1   2   3     1.078716562958   119.62983364   359.94306894
 H      6   4   2     1.078634912934   119.64866178   179.98936450
 H      9   8   1     1.077611267434   118.39079467     0.07459496
 H     12  11  10     1.079271325154   120.53440351   179.89409336
 H     22  15  13     1.083300152959   116.84095938   182.18749110
 H     24  23  22     1.074841448494   122.86945103     0.47616558
 H     28  26  25     1.073690572651   124.77865316   180.20924304
 H     32  31  29     1.078636763188   119.88870456     0.42914079
 H     39  33  32     1.078629980438   119.50172459   179.21900031
 H     43  42  40     1.073523233517   123.55868470   359.67911120
 H     47  45  44     1.074190408075   124.79790262   179.70086338
 H     50  48  47     1.086233342197   115.27492717    23.27881204
 H     55  54  52     1.079310724212   120.58078292   358.54534529
 H     58  57  56     1.078771659759   120.08572786   180.10920129
 H     61  60  59     1.078708726626   119.62502819   179.98359431
 H     64  57  56     1.078498412516   118.88774398   180.38469539

---------------------------
INTERNAL COORDINATES (A.U.)
---------------------------
 C      0   0   0     0.000000000000     0.00000000     0.00000000
 C      1   0   0     2.582938285725     0.00000000     0.00000000
 F      2   1   0     2.528993434603   120.19628936     0.00000000
 C      2   1   3     2.663864743592   120.60170981   180.01257223
 F      4   2   1     2.529998927985   119.30349432   180.01039722
 C      4   2   1     2.582937385056   120.53590651     0.05403414
 C      6   4   2     2.661382598422   120.19403253     0.00000000
 C      1   2   3     2.663380682611   120.26218793   179.97287111
 C      8   1   2     2.671685739963   120.56519776   179.92454896
 C      9   8   1     2.589610872747   119.47125234   179.93508371
 C     10   9   8     2.689119177405   119.69508933   359.78770311
 C     11  10   9     2.579916162715   122.21429884     0.36301731
 C     11  10   9     2.781217933748   109.17692703   180.64918271
 O     13  11  10     2.299937224420   126.38620454   180.37524336
 C     13  11  10     2.779279163957   106.21064182     0.65924032
 C     15  13  11     2.747777940083   108.46973672   358.41528822
 C     16  15  13     2.588401301508   127.39451310   183.02868065
 C     17  16  15     2.667066028042   125.89751181   359.92655899
 N     18  17  16     2.170199244428   175.81850033   177.44929038
 C     17  16  15     2.668397312299   123.95280903   179.29543243
 N     20  17  16     2.168543303231   176.60764628   180.73265616
 C     15  13  11     2.585549739893   125.61456034   177.05812699
 C     22  15  13     2.660443568055   130.55578529     1.84925227
 C     23  22  15     2.637083292463   121.18726385   180.85440372
 C     24  23  22     2.614830266337   112.14360531   180.67218152
 C     25  24  23     2.657234245786   113.38232115     0.17912304
 S     26  25  24     3.256616511966   112.09305460   359.58535094
 C     26  25  24     2.639609511262   113.24453384   179.54108372
 C     28  26  25     2.602971748131   111.88310044     0.06491648
 S     25  24  23     3.269573561870   134.95373847   179.81943012
 C     29  28  26     2.714842568952   126.51924742   180.67032107
 C     31  29  28     2.568383516547   124.08097621   181.00877438
 C     32  31  29     2.701623805906   120.58301914   180.44766675
 C     33  32  31     2.613532328242   122.35369895   180.76963638
 C     34  33  32     2.654334110300   121.62174522   179.77054975
 N     35  34  33     2.170525122609   179.35182548   345.18046867
 C     34  33  32     2.654162376376   121.76994710     0.07761382
 N     37  34  33     2.170417574388   179.55803419    10.75101721
 C     33  32  31     2.702135259516   115.45535594     0.79237589
 C     39  33  32     2.567311386438   120.57699104   359.10383196
 O     40  39  33     2.569697612150   122.47567188     0.00000000
 C     40  39  33     2.715954425294   123.94786987   180.02554978
 C     42  40  39     2.603877141056   126.60323693   177.01292458
 C     43  42  40     2.636514978797   111.37141841   179.47076149
 C     44  43  42     2.648518004195   113.94328792     0.08728004
 S     45  44  43     3.259812660332   111.24458022     0.00000000
 C     45  44  43     2.633611198373   113.92184535   179.44103942
 C     47  45  44     2.609248445478   111.96816324     1.97241878
 S     44  43  42     3.253869727045   134.78695433   180.23450372
 C     48  47  45     2.681729926714   125.43546628   182.18156739
 C     50  48  47     2.564780629211   129.26948432   198.10665457
 C     51  50  48     2.820141592506   119.60809823   201.01633610
 O     52  51  50     2.281634646087   126.74990094   344.73791037
 C     52  51  50     2.791051085438   104.93202296   161.94700602
 C     54  52  51     2.580237636517   128.88839676   186.85996311
 C     55  54  52     2.669859782247   119.08084536   178.51261847
 C     56  55  54     2.694237356928   119.44851645   359.73164282
 C     57  56  55     2.663405709559   119.09485704   180.50537380
 C     58  57  56     2.582473675665   120.26975034   359.80654694
 C     59  58  57     2.664299763005   120.59440428     0.02512371
 C     60  59  58     2.582753370120   120.53781989     0.06373743
 F     60  59  58     2.529917433880   119.28628465   179.97836634
 F     59  58  57     2.529324912485   120.17638703   179.98185401
 C     57  56  55     2.670979809272   120.23906867     0.75079296
 C     64  57  56     2.587061856372   119.27251130   359.71150817
 C     51  50  48     2.739152142455   132.29445444    14.60230568
 C     66  51  50     2.586511374524   125.89596945    33.99849864
 C     67  66  51     2.666735212392   123.04512007   359.66462159
 N     68  67  66     2.168468818042   177.15222202   119.14384401
 C     67  66  51     2.664208500575   123.65896543   175.05554968
 N     70  67  66     2.168208245529   177.53238121   154.56051016
 H      1   2   3     2.038478880116   119.62983364   359.94306894
 H      6   4   2     2.038324583931   119.64866178   179.98936450
 H      9   8   1     2.036390174277   118.39079467     0.07459496
 H     12  11  10     2.039527228736   120.53440351   179.89409336
 H     22  15  13     2.047140609927   116.84095938   182.18749110
 H     24  23  22     2.031155975040   122.86945103     0.47616558
 H     28  26  25     2.028981134884   124.77865316   180.20924304
 H     32  31  29     2.038328080404   119.88870456     0.42914079
 H     39  33  32     2.038315262865   119.50172459   179.21900031
 H     43  42  40     2.028664909748   123.55868470   359.67911120
 H     47  45  44     2.029925686947   124.79790262   179.70086338
 H     50  48  47     2.052683534286   115.27492717    23.27881204
 H     55  54  52     2.039601682166   120.58078292   358.54534529
 H     58  57  56     2.038582997981   120.08572786   180.10920129
 H     61  60  59     2.038464071595   119.62502819   179.98359431
 H     64  57  56     2.038066635524   118.88774398   180.38469539

---------------------
BASIS SET INFORMATION
---------------------
There are 6 groups of distinct atoms

 Group   1 Type C   : 7s4p1d contracted to 3s2p1d pattern {511/31/1}
 Group   2 Type F   : 7s4p1d contracted to 3s2p1d pattern {511/31/1}
 Group   3 Type O   : 7s4p1d contracted to 3s2p1d pattern {511/31/1}
 Group   4 Type N   : 7s4p1d contracted to 3s2p1d pattern {511/31/1}
 Group   5 Type S   : 10s7p1d contracted to 4s3p1d pattern {5311/511/1}
 Group   6 Type H   : 4s1p contracted to 2s1p pattern {31/1}

Atom   0C    basis set group =>   1
Atom   1C    basis set group =>   1
Atom   2F    basis set group =>   2
Atom   3C    basis set group =>   1
Atom   4F    basis set group =>   2
Atom   5C    basis set group =>   1
Atom   6C    basis set group =>   1
Atom   7C    basis set group =>   1
Atom   8C    basis set group =>   1
Atom   9C    basis set group =>   1
Atom  10C    basis set group =>   1
Atom  11C    basis set group =>   1
Atom  12C    basis set group =>   1
Atom  13O    basis set group =>   3
Atom  14C    basis set group =>   1
Atom  15C    basis set group =>   1
Atom  16C    basis set group =>   1
Atom  17C    basis set group =>   1
Atom  18N    basis set group =>   4
Atom  19C    basis set group =>   1
Atom  20N    basis set group =>   4
Atom  21C    basis set group =>   1
Atom  22C    basis set group =>   1
Atom  23C    basis set group =>   1
Atom  24C    basis set group =>   1
Atom  25C    basis set group =>   1
Atom  26S    basis set group =>   5
Atom  27C    basis set group =>   1
Atom  28C    basis set group =>   1
Atom  29S    basis set group =>   5
Atom  30C    basis set group =>   1
Atom  31C    basis set group =>   1
Atom  32C    basis set group =>   1
Atom  33C    basis set group =>   1
Atom  34C    basis set group =>   1
Atom  35N    basis set group =>   4
Atom  36C    basis set group =>   1
Atom  37N    basis set group =>   4
Atom  38C    basis set group =>   1
Atom  39C    basis set group =>   1
Atom  40O    basis set group =>   3
Atom  41C    basis set group =>   1
Atom  42C    basis set group =>   1
Atom  43C    basis set group =>   1
Atom  44C    basis set group =>   1
Atom  45S    basis set group =>   5
Atom  46C    basis set group =>   1
Atom  47C    basis set group =>   1
Atom  48S    basis set group =>   5
Atom  49C    basis set group =>   1
Atom  50C    basis set group =>   1
Atom  51C    basis set group =>   1
Atom  52O    basis set group =>   3
Atom  53C    basis set group =>   1
Atom  54C    basis set group =>   1
Atom  55C    basis set group =>   1
Atom  56C    basis set group =>   1
Atom  57C    basis set group =>   1
Atom  58C    basis set group =>   1
Atom  59C    basis set group =>   1
Atom  60C    basis set group =>   1
Atom  61F    basis set group =>   2
Atom  62F    basis set group =>   2
Atom  63C    basis set group =>   1
Atom  64C    basis set group =>   1
Atom  65C    basis set group =>   1
Atom  66C    basis set group =>   1
Atom  67C    basis set group =>   1
Atom  68N    basis set group =>   4
Atom  69C    basis set group =>   1
Atom  70N    basis set group =>   4
Atom  71H    basis set group =>   6
Atom  72H    basis set group =>   6
Atom  73H    basis set group =>   6
Atom  74H    basis set group =>   6
Atom  75H    basis set group =>   6
Atom  76H    basis set group =>   6
Atom  77H    basis set group =>   6
Atom  78H    basis set group =>   6
Atom  79H    basis set group =>   6
Atom  80H    basis set group =>   6
Atom  81H    basis set group =>   6
Atom  82H    basis set group =>   6
Atom  83H    basis set group =>   6
Atom  84H    basis set group =>   6
Atom  85H    basis set group =>   6
Atom  86H    basis set group =>   6
---------------------------------
AUXILIARY/J BASIS SET INFORMATION
---------------------------------
There are 6 groups of distinct atoms

 Group   1 Type C   : 12s5p4d2f1g contracted to 6s4p3d1f1g pattern {711111/2111/211/2/1}
 Group   2 Type F   : 12s5p4d2f1g contracted to 6s4p3d1f1g pattern {711111/2111/211/2/1}
 Group   3 Type O   : 12s5p4d2f1g contracted to 6s4p3d1f1g pattern {711111/2111/211/2/1}
 Group   4 Type N   : 12s5p4d2f1g contracted to 6s4p3d1f1g pattern {711111/2111/211/2/1}
 Group   5 Type S   : 14s5p5d2f1g contracted to 8s4p3d1f1g pattern {71111111/2111/311/2/1}
 Group   6 Type H   : 5s2p1d contracted to 3s1p1d pattern {311/2/1}

Atom   0C    basis set group =>   1
Atom   1C    basis set group =>   1
Atom   2F    basis set group =>   2
Atom   3C    basis set group =>   1
Atom   4F    basis set group =>   2
Atom   5C    basis set group =>   1
Atom   6C    basis set group =>   1
Atom   7C    basis set group =>   1
Atom   8C    basis set group =>   1
Atom   9C    basis set group =>   1
Atom  10C    basis set group =>   1
Atom  11C    basis set group =>   1
Atom  12C    basis set group =>   1
Atom  13O    basis set group =>   3
Atom  14C    basis set group =>   1
Atom  15C    basis set group =>   1
Atom  16C    basis set group =>   1
Atom  17C    basis set group =>   1
Atom  18N    basis set group =>   4
Atom  19C    basis set group =>   1
Atom  20N    basis set group =>   4
Atom  21C    basis set group =>   1
Atom  22C    basis set group =>   1
Atom  23C    basis set group =>   1
Atom  24C    basis set group =>   1
Atom  25C    basis set group =>   1
Atom  26S    basis set group =>   5
Atom  27C    basis set group =>   1
Atom  28C    basis set group =>   1
Atom  29S    basis set group =>   5
Atom  30C    basis set group =>   1
Atom  31C    basis set group =>   1
Atom  32C    basis set group =>   1
Atom  33C    basis set group =>   1
Atom  34C    basis set group =>   1
Atom  35N    basis set group =>   4
Atom  36C    basis set group =>   1
Atom  37N    basis set group =>   4
Atom  38C    basis set group =>   1
Atom  39C    basis set group =>   1
Atom  40O    basis set group =>   3
Atom  41C    basis set group =>   1
Atom  42C    basis set group =>   1
Atom  43C    basis set group =>   1
Atom  44C    basis set group =>   1
Atom  45S    basis set group =>   5
Atom  46C    basis set group =>   1
Atom  47C    basis set group =>   1
Atom  48S    basis set group =>   5
Atom  49C    basis set group =>   1
Atom  50C    basis set group =>   1
Atom  51C    basis set group =>   1
Atom  52O    basis set group =>   3
Atom  53C    basis set group =>   1
Atom  54C    basis set group =>   1
Atom  55C    basis set group =>   1
Atom  56C    basis set group =>   1
Atom  57C    basis set group =>   1
Atom  58C    basis set group =>   1
Atom  59C    basis set group =>   1
Atom  60C    basis set group =>   1
Atom  61F    basis set group =>   2
Atom  62F    basis set group =>   2
Atom  63C    basis set group =>   1
Atom  64C    basis set group =>   1
Atom  65C    basis set group =>   1
Atom  66C    basis set group =>   1
Atom  67C    basis set group =>   1
Atom  68N    basis set group =>   4
Atom  69C    basis set group =>   1
Atom  70N    basis set group =>   4
Atom  71H    basis set group =>   6
Atom  72H    basis set group =>   6
Atom  73H    basis set group =>   6
Atom  74H    basis set group =>   6
Atom  75H    basis set group =>   6
Atom  76H    basis set group =>   6
Atom  77H    basis set group =>   6
Atom  78H    basis set group =>   6
Atom  79H    basis set group =>   6
Atom  80H    basis set group =>   6
Atom  81H    basis set group =>   6
Atom  82H    basis set group =>   6
Atom  83H    basis set group =>   6
Atom  84H    basis set group =>   6
Atom  85H    basis set group =>   6
Atom  86H    basis set group =>   6


           ************************************************************
           *        Program running with 6 parallel MPI-processes     *
           *              working on a common directory               *
           ************************************************************
------------------------------------------------------------------------------
                           ORCA GTO INTEGRAL CALCULATION
                           -- RI-GTO INTEGRALS CHOSEN --
------------------------------------------------------------------------------

                         BASIS SET STATISTICS AND STARTUP INFO

Gaussian basis set:
 # of primitive gaussian shells          ...  956
 # of primitive gaussian functions       ... 1864
 # of contracted shells                  ...  482
 # of contracted basis functions         ... 1090
 Highest angular momentum                ...    2
 Maximum contraction depth               ...    5
Auxiliary gaussian basis set:
 # of primitive gaussian shells          ... 1844
 # of primitive gaussian functions       ... 5254
 # of contracted shells                  ... 1153
 # of contracted aux-basis functions     ... 3663
 Highest angular momentum                ...    4
 Maximum contraction depth               ...    7
Ratio of auxiliary to basis functions    ...  3.36
Integral package used                  ... LIBINT
 One Electron integrals                  ... done
 Ordering auxiliary basis shells         ... done
 Integral threshhold             Thresh  ...  2.500e-11
 Primitive cut-off               TCut    ...  2.500e-12
 Pre-screening matrix                    ... done
 Shell pair data                         ... 
 Ordering of the shell pairs             ... done (   0.008 sec) 35019 of 116403 pairs
 Determination of significant pairs      ... done (   0.000 sec)
 Creation of shell pair data             ... done (   0.005 sec)
 Storage of shell pair data              ... done (   0.032 sec)
 Shell pair data done in (   0.045 sec)
 Computing two index integrals           ... done
 Cholesky decomposition of the V-matrix  ... done


Timings:
 Total evaluation time                   ...   2.079 sec (  0.035 min)
 One electron matrix time                ...   0.430 sec (  0.007 min) = 20.7%
 Schwartz matrix evaluation time         ...   0.628 sec (  0.010 min) = 30.2%
 Two index repulsion integral time       ...   0.350 sec (  0.006 min) = 16.8%
 Cholesky decomposition of V             ...   0.610 sec (  0.010 min) = 29.3%
 Three index repulsion integral time     ...   0.000 sec (  0.000 min) =  0.0%



           ************************************************************
           *        Program running with 6 parallel MPI-processes     *
           *              working on a common directory               *
           ************************************************************
-------------------------------------------------------------------------------
                                 ORCA SCF
-------------------------------------------------------------------------------

------------
SCF SETTINGS
------------
Hamiltonian:
 Density Functional     Method          .... DFT(GTOs)
 Exchange Functional    Exchange        .... WB88
 Correlation Functional Correlation     .... LYP
 LDA part of GGA corr.  LDAOpt          .... VWN-5
 Gradients option       PostSCFGGA      .... off
 Hybrid DFT is turned on
   Fraction HF Exchange ScalHFX         ....  0.190000
   Scaling of DF-GGA-X  ScalDFX         ....  0.350000
   Scaling of DF-GGA-C  ScalDFC         ....  0.810000
   Scaling of DF-LDA-C  ScalLDAC        ....  1.000000
   Perturbative correction              ....  0.000000
   Density functional embedding theory  .... OFF
 Long-range corrected/Screened/Range-Separated Hybrid DFT is turned on
   Amount of maximum screened exact exchange              ....  0.460000
   Range separation parameter mu (erf(mu*r12)/r12)        ....  0.330000
 RI-approximation to the Coulomb term is turned on
   Number of auxiliary basis functions  .... 3663
   RIJ-COSX (HFX calculated with COS-X)).... on


General Settings:
 Integral files         IntName         .... 78_25_19_25_78
 Hartree-Fock type      HFTyp           .... RHF
 Total Charge           Charge          ....    0
 Multiplicity           Mult            ....    1
 Number of Electrons    NEL             ....  506
 Basis Dimension        Dim             .... 1090
 Nuclear Repulsion      ENuc            ....   9714.7694074544 Eh

Convergence Acceleration:
 DIIS                   CNVDIIS         .... on
   Start iteration      DIISMaxIt       ....    12
   Startup error        DIISStart       ....  0.200000
   # of expansion vecs  DIISMaxEq       ....     5
   Bias factor          DIISBfac        ....   1.050
   Max. coefficient     DIISMaxC        ....  10.000
 Newton-Raphson         CNVNR           .... off
 SOSCF                  CNVSOSCF        .... on
   Start iteration      SOSCFMaxIt      ....   150
   Startup grad/error   SOSCFStart      ....  0.003300
 Level Shifting         CNVShift        .... on
   Level shift para.    LevelShift      ....    0.2500
   Turn off err/grad.   ShiftErr        ....    0.0010
 Zerner damping         CNVZerner       .... off
 Static damping         CNVDamp         .... on
   Fraction old density DampFac         ....    0.7000
   Max. Damping (<1)    DampMax         ....    0.9800
   Min. Damping (>=0)   DampMin         ....    0.0000
   Turn off err/grad.   DampErr         ....    0.1000
 Fernandez-Rico         CNVRico         .... off

SCF Procedure:
 Maximum # iterations   MaxIter         ....   125
 SCF integral mode      SCFMode         .... Direct
   Integral package                     .... LIBINT
 Reset frequency        DirectResetFreq ....    20
 Integral Threshold     Thresh          ....  2.500e-11 Eh
 Primitive CutOff       TCut            ....  2.500e-12 Eh

Convergence Tolerance:
 Convergence Check Mode ConvCheckMode   .... Total+1el-Energy
 Convergence forced     ConvForced      .... 1
 Energy Change          TolE            ....  1.000e-08 Eh
 1-El. energy change                    ....  1.000e-05 Eh
 Orbital Gradient       TolG            ....  1.000e-05
 Orbital Rotation angle TolX            ....  1.000e-05
 DIIS Error             TolErr          ....  5.000e-07


Diagonalization of the overlap matrix:
Smallest eigenvalue                        ... 1.878e-04
Time for diagonalization                   ...    0.188 sec
Threshold for overlap eigenvalues          ... 1.000e-08
Number of eigenvalues below threshold      ... 0
Time for construction of square roots      ...    0.152 sec
Total time needed                          ...    0.346 sec

-------------------
DFT GRID GENERATION
-------------------

General Integration Accuracy     IntAcc      ...  4.670
Radial Grid Type                 RadialGrid  ... Gauss-Chebyshev
Angular Grid (max. acc.)         AngularGrid ... Lebedev-302
Angular grid pruning method      GridPruning ... 3 (G Style)
Weight generation scheme         WeightScheme... Becke
Basis function cutoff            BFCut       ...    1.0000e-11
Integration weight cutoff        WCut        ...    1.0000e-14
Grids for H and He will be reduced by one unit

# of grid points (after initial pruning)     ... 498132 (   0.0 sec)
# of grid points (after weights+screening)   ... 432524 (   4.4 sec)
nearest neighbour list constructed           ...    0.0 sec
Grid point re-assignment to atoms done       ...    0.1 sec
Grid point division into batches done        ...    1.6 sec
Reduced shell lists constructed in    2.5 sec

Total number of grid points                  ...   432524
Total number of batches                      ...     6800
Average number of points per batch           ...       63
Average number of grid points per atom       ...     4972
Average number of shells per batch           ...    79.92 (16.58%)
Average number of basis functions per batch  ...   173.99 (15.96%)
Average number of large shells per batch     ...    53.91 (67.45%)
Average number of large basis fcns per batch ...   118.01 (67.83%)
Maximum spatial batch extension              ...  22.99, 14.35, 17.80 au
Average spatial batch extension              ...   0.39,  0.31,  0.32 au

Time for grid setup =    7.287 sec

------------------------------
INITIAL GUESS: MODEL POTENTIAL
------------------------------
Loading Hartree-Fock densities                     ... done
Calculating cut-offs                               ... done
Setting up the integral package                    ... done
Initializing the effective Hamiltonian             ... done
Starting the Coulomb interaction                   ... done (   0.9 sec)
Reading the grid                                   ... done
Mapping shells                                     ... done
Starting the XC term evaluation                    ... done (   1.3 sec)
  promolecular density results
     # of electrons  =    505.991343547
     EX              =   -484.284357299
     EC              =    -17.561051407
     EX+EC           =   -501.845408705
Transforming the Hamiltonian                       ... done (   0.1 sec)
Diagonalizing the Hamiltonian                      ... done (   0.2 sec)
Back transforming the eigenvectors                 ... done (   0.0 sec)
Now organizing SCF variables                       ... done
                      ------------------
                      INITIAL GUESS DONE (  10.0 sec)
                      ------------------
--------------------
COSX GRID GENERATION
--------------------

General Integration Accuracy     IntAcc      ...  3.340
Radial Grid Type                 RadialGrid  ... Gauss-Chebyshev
Angular Grid (max. acc.)         AngularGrid ... Lebedev-50
Angular grid pruning method      GridPruning ... 3 (G Style)
Weight generation scheme         WeightScheme... Becke
Basis function cutoff            BFCut       ...    1.0000e-11
Integration weight cutoff        WCut        ...    1.0000e-14
Grids for H and He will be reduced by one unit

# of grid points (after initial pruning)     ...  46720 (   0.0 sec)
# of grid points (after weights+screening)   ...  42339 (   0.4 sec)
nearest neighbour list constructed           ...    0.0 sec
Grid point re-assignment to atoms done       ...    0.0 sec
Grid point division into batches done        ...    0.0 sec
Reduced shell lists constructed in    0.1 sec

Total number of grid points                  ...    42339
Total number of batches                      ...      706
Average number of points per batch           ...       59
Average number of grid points per atom       ...      487
Average number of shells per batch           ...    94.11 (19.52%)
Average number of basis functions per batch  ...   206.78 (18.97%)
Average number of large shells per batch     ...    63.65 (67.63%)
Average number of large basis fcns per batch ...   141.82 (68.58%)
Maximum spatial batch extension              ...  31.02, 16.86, 13.99 au
Average spatial batch extension              ...   1.05,  0.59,  0.60 au

Overlap Fitting                  UseSFitting ... on
Constructing numerical overlap ... done (      0.1 sec)
Inverting numerical overlap    ... done (      0.1 sec)
Obtaining analytic overlap     ... done (      0.0 sec)
Final contraction and storage  ... done (      0.1 sec)


General Integration Accuracy     IntAcc      ...  3.670
Radial Grid Type                 RadialGrid  ... Gauss-Chebyshev
Angular Grid (max. acc.)         AngularGrid ... Lebedev-50
Angular grid pruning method      GridPruning ... 3 (G Style)
Weight generation scheme         WeightScheme... Becke
Basis function cutoff            BFCut       ...    1.0000e-11
Integration weight cutoff        WCut        ...    1.0000e-14
Grids for H and He will be reduced by one unit

# of grid points (after initial pruning)     ...  57830 (   0.0 sec)
# of grid points (after weights+screening)   ...  52252 (   0.5 sec)
nearest neighbour list constructed           ...    0.0 sec
Grid point re-assignment to atoms done       ...    0.0 sec
Grid point division into batches done        ...    0.0 sec
Reduced shell lists constructed in    0.1 sec

Total number of grid points                  ...    52252
Total number of batches                      ...      866
Average number of points per batch           ...       60
Average number of grid points per atom       ...      601
Average number of shells per batch           ...    93.10 (19.32%)
Average number of basis functions per batch  ...   204.71 (18.78%)
Average number of large shells per batch     ...    63.14 (67.82%)
Average number of large basis fcns per batch ...   140.50 (68.64%)
Maximum spatial batch extension              ...  21.09, 15.24, 15.40 au
Average spatial batch extension              ...   0.97,  0.55,  0.57 au

Overlap Fitting                  UseSFitting ... on
Constructing numerical overlap ... done (      0.1 sec)
Inverting numerical overlap    ... done (      0.0 sec)
Obtaining analytic overlap     ... done (      0.0 sec)
Final contraction and storage  ... done (      0.1 sec)


General Integration Accuracy     IntAcc      ...  4.010
Radial Grid Type                 RadialGrid  ... Gauss-Chebyshev
Angular Grid (max. acc.)         AngularGrid ... Lebedev-110
Angular grid pruning method      GridPruning ... 3 (G Style)
Weight generation scheme         WeightScheme... Becke
Basis function cutoff            BFCut       ...    1.0000e-11
Integration weight cutoff        WCut        ...    1.0000e-14
Grids for H and He will be reduced by one unit

# of grid points (after initial pruning)     ... 115346 (   0.0 sec)
# of grid points (after weights+screening)   ... 102984 (   1.0 sec)
nearest neighbour list constructed           ...    0.0 sec
Grid point re-assignment to atoms done       ...    0.0 sec
Grid point division into batches done        ...    0.1 sec
Reduced shell lists constructed in    0.3 sec

Total number of grid points                  ...   102984
Total number of batches                      ...     1655
Average number of points per batch           ...       62
Average number of grid points per atom       ...     1184
Average number of shells per batch           ...    88.42 (18.34%)
Average number of basis functions per batch  ...   193.87 (17.79%)
Average number of large shells per batch     ...    60.28 (68.17%)
Average number of large basis fcns per batch ...   133.14 (68.67%)
Maximum spatial batch extension              ...  22.65, 18.21, 15.82 au
Average spatial batch extension              ...   0.75,  0.48,  0.48 au

Overlap Fitting                  UseSFitting ... on
Constructing numerical overlap ... done (      0.2 sec)
Inverting numerical overlap    ... done (      0.0 sec)
Obtaining analytic overlap     ... done (      0.0 sec)
Final contraction and storage  ... done (      0.1 sec)

Time for X-Grid setup             =    3.465 sec
--------------
SCF ITERATIONS
--------------
ITER       Energy         Delta-E        Max-DP      RMS-DP      [F,P]     Damp
               ***  Starting incremental Fock matrix formation  ***
  0  -4608.1246579222   0.000000000000 0.08195556  0.00101734  0.2365416 0.7000
  1  -4608.6767757709  -0.552117848652 0.04809297  0.00071110  0.1067577 0.7000
                               ***Turning on DIIS***
  2  -4608.9036596063  -0.226883835463 0.07574605  0.00130416  0.0351821 0.0000
  3  -4609.2969971632  -0.393337556821 0.04041953  0.00049475  0.0528189 0.0000
  4  -4609.3602893771  -0.063292213910 0.01564197  0.00017472  0.0241724 0.0000
  5  -4609.3672457200  -0.006956342919 0.00646441  0.00007156  0.0051309 0.0000
                      *** Initiating the SOSCF procedure ***
                           *** Shutting down DIIS ***
                      *** Re-Reading the Fockian *** 
                      *** Removing any level shift *** 
ITER      Energy       Delta-E        Grad      Rot      Max-DP    RMS-DP
  6  -4609.36815364  -0.0009079242  0.001766  0.001766  0.003001  0.000036
               *** Restarting incremental Fock matrix formation ***
  7  -4609.36848185  -0.0003282021  0.001210  0.006993  0.002485  0.000035
  8  -4609.36869189  -0.0002100452  0.000390  0.006042  0.003302  0.000038
  9  -4609.36869935  -0.0000074616  0.000655  0.001349  0.001361  0.000012
 10  -4609.36874216  -0.0000428078  0.000179  0.000537  0.000688  0.000007
 11  -4609.36874135   0.0000008120  0.000165  0.000350  0.000308  0.000004
 12  -4609.36874472  -0.0000033693  0.000025  0.000093  0.000158  0.000002
 13  -4609.36874468   0.0000000354  0.000023  0.000052  0.000089  0.000001
 14  -4609.36874488  -0.0000001924  0.000004  0.000015  0.000037  0.000000
 15  -4609.36874488  -0.0000000073  0.000005  0.000006  0.000023  0.000000
                  ***Gradient check signals convergence***
              ***Rediagonalizing the Fockian in SOSCF/NRSCF***

               *****************************************************
               *                     SUCCESS                       *
               *           SCF CONVERGED AFTER  16 CYCLES          *
               *****************************************************

Setting up the final grid:

General Integration Accuracy     IntAcc      ...  5.010
Radial Grid Type                 RadialGrid  ... Gauss-Chebyshev
Angular Grid (max. acc.)         AngularGrid ... Lebedev-434
Angular grid pruning method      GridPruning ... 3 (G Style)
Weight generation scheme         WeightScheme... Becke
Basis function cutoff            BFCut       ...    1.0000e-11
Integration weight cutoff        WCut        ...    1.0000e-14
Grids for H and He will be reduced by one unit

# of grid points (after initial pruning)     ... 871062 (   0.0 sec)
# of grid points (after weights+screening)   ... 753954 (   7.6 sec)
nearest neighbour list constructed           ...    0.0 sec
Grid point re-assignment to atoms done       ...    0.1 sec
Grid point division into batches done        ...    5.2 sec
Reduced shell lists constructed in    6.5 sec

Total number of grid points                  ...   753954
Total number of batches                      ...    11822
Average number of points per batch           ...       63
Average number of grid points per atom       ...     8666
Average number of shells per batch           ...    77.93 (16.17%)
Average number of basis functions per batch  ...   169.32 (15.53%)
Average number of large shells per batch     ...    52.50 (67.36%)
Average number of large basis fcns per batch ...   114.76 (67.78%)
Maximum spatial batch extension              ...  22.36, 16.38, 16.56 au
Average spatial batch extension              ...   0.30,  0.26,  0.26 au

Final grid set up in   14.9 sec
Final integration                            ... done (   2.9 sec)
Change in XC energy                          ...    -0.000048412
Integrated number of electrons               ...   505.999916201
Previous integrated no of electrons          ...   505.999497148
Old exchange energy                            =   -132.928194634 Eh
New exchange energy                            =   -132.926037531 Eh
Exchange energy change after final integration =      0.002157103 Eh
Total energy after final integration           =  -4609.366636196 Eh
Final COS-X integration done in                =    48.314 sec

----------------
TOTAL SCF ENERGY
----------------

Total Energy       :        -4609.36663620 Eh         -125427.24277 eV

Components:
Nuclear Repulsion  :         9714.76940745 Eh          264352.31499 eV
Electronic Energy  :       -14324.13604365 Eh         -389779.55776 eV
One Electron Energy:       -25652.47290472 Eh         -698039.27537 eV
Two Electron Energy:        11328.33686107 Eh          308259.71761 eV

Virial components:
Potential Energy   :        -9188.90514088 Eh         -250042.82081 eV
Kinetic Energy     :         4579.53850468 Eh          124615.57805 eV
Virial Ratio       :            2.00651335


DFT components:
N(Alpha)           :      252.999958100585 electrons
N(Beta)            :      252.999958100585 electrons
N(Total)           :      505.999916201169 electrons
E(XC)              :     -376.285263994088 Eh       
DFET-embed. en.    :        0.000000000000 Eh       

---------------
SCF CONVERGENCE
---------------

  Last Energy change         ...   -4.1418e-09  Tolerance :   1.0000e-08
  Last MAX-Density change    ...    6.2172e-15  Tolerance :   1.0000e-07
  Last RMS-Density change    ...    3.7951e-17  Tolerance :   5.0000e-09
  Last Orbital Gradient      ...    1.2570e-06  Tolerance :   1.0000e-05
  Last Orbital Rotation      ...    7.3543e-06  Tolerance :   1.0000e-05

             **** THE GBW FILE WAS UPDATED (78_25_19_25_78.gbw) ****
             **** DENSITY FILE WAS UPDATED (78_25_19_25_78.scfp) ****
             **** ENERGY FILE WAS UPDATED (78_25_19_25_78.en.tmp) ****
             **** THE GBW FILE WAS UPDATED (78_25_19_25_78.gbw) ****
             **** DENSITY FILE WAS UPDATED (78_25_19_25_78.scfp) ****
----------------
ORBITAL ENERGIES
----------------

  NO   OCC          E(Eh)            E(eV) 
   0   2.0000     -88.992259     -2421.6025 
   1   2.0000     -88.988650     -2421.5043 
   2   2.0000     -88.987597     -2421.4756 
   3   2.0000     -88.981007     -2421.2963 
   4   2.0000     -24.805962      -675.0045 
   5   2.0000     -24.805540      -674.9931 
   6   2.0000     -24.805480      -674.9914 
   7   2.0000     -24.804355      -674.9608 
   8   2.0000     -19.334922      -526.1300 
   9   2.0000     -19.234964      -523.4100 
  10   2.0000     -19.228092      -523.2230 
  11   2.0000     -14.428748      -392.6262 
  12   2.0000     -14.428517      -392.6199 
  13   2.0000     -14.425102      -392.5270 
  14   2.0000     -14.424592      -392.5131 
  15   2.0000     -14.402764      -391.9191 
  16   2.0000     -14.402536      -391.9129 
  17   2.0000     -10.399889      -282.9954 
  18   2.0000     -10.399631      -282.9883 
  19   2.0000     -10.389711      -282.7184 
  20   2.0000     -10.389383      -282.7095 
  21   2.0000     -10.389173      -282.7038 
  22   2.0000     -10.388348      -282.6813 
  23   2.0000     -10.383120      -282.5391 
  24   2.0000     -10.379855      -282.4502 
  25   2.0000     -10.357657      -281.8462 
  26   2.0000     -10.354920      -281.7717 
  27   2.0000     -10.354009      -281.7469 
  28   2.0000     -10.353260      -281.7265 
  29   2.0000     -10.345104      -281.5046 
  30   2.0000     -10.344915      -281.4994 
  31   2.0000     -10.344540      -281.4892 
  32   2.0000     -10.339489      -281.3518 
  33   2.0000     -10.337824      -281.3065 
  34   2.0000     -10.336355      -281.2665 
  35   2.0000     -10.336255      -281.2638 
  36   2.0000     -10.334075      -281.2045 
  37   2.0000     -10.332757      -281.1686 
  38   2.0000     -10.330954      -281.1196 
  39   2.0000     -10.330624      -281.1106 
  40   2.0000     -10.328542      -281.0539 
  41   2.0000     -10.327352      -281.0215 
  42   2.0000     -10.326918      -281.0097 
  43   2.0000     -10.325858      -280.9809 
  44   2.0000     -10.324189      -280.9355 
  45   2.0000     -10.321297      -280.8568 
  46   2.0000     -10.321052      -280.8501 
  47   2.0000     -10.320181      -280.8264 
  48   2.0000     -10.319653      -280.8120 
  49   2.0000     -10.318974      -280.7935 
  50   2.0000     -10.318895      -280.7914 
  51   2.0000     -10.318660      -280.7850 
  52   2.0000     -10.318573      -280.7827 
  53   2.0000     -10.318137      -280.7708 
  54   2.0000     -10.316890      -280.7368 
  55   2.0000     -10.316373      -280.7228 
  56   2.0000     -10.315839      -280.7082 
  57   2.0000     -10.313656      -280.6489 
  58   2.0000     -10.312982      -280.6305 
  59   2.0000     -10.312865      -280.6273 
  60   2.0000     -10.312725      -280.6235 
  61   2.0000     -10.312288      -280.6116 
  62   2.0000     -10.311217      -280.5825 
  63   2.0000     -10.309545      -280.5370 
  64   2.0000     -10.308904      -280.5195 
  65   2.0000     -10.308869      -280.5186 
  66   2.0000     -10.307846      -280.4907 
  67   2.0000     -10.306085      -280.4428 
  68   2.0000     -10.305837      -280.4361 
  69   2.0000     -10.304639      -280.4035 
  70   2.0000     -10.303087      -280.3613 
  71   2.0000      -8.087253      -220.0653 
  72   2.0000      -8.083668      -219.9678 
  73   2.0000      -8.082468      -219.9351 
  74   2.0000      -8.074123      -219.7081 
  75   2.0000      -6.056837      -164.8149 
  76   2.0000      -6.053303      -164.7188 
  77   2.0000      -6.052770      -164.7042 
  78   2.0000      -6.052046      -164.6845 
  79   2.0000      -6.049248      -164.6084 
  80   2.0000      -6.048715      -164.5939 
  81   2.0000      -6.047987      -164.5741 
  82   2.0000      -6.045013      -164.4932 
  83   2.0000      -6.043952      -164.4643 
  84   2.0000      -6.043789      -164.4599 
  85   2.0000      -6.039263      -164.3367 
  86   2.0000      -6.035837      -164.2435 
  87   2.0000      -1.329052       -36.1653 
  88   2.0000      -1.328241       -36.1433 
  89   2.0000      -1.314156       -35.7600 
  90   2.0000      -1.313319       -35.7372 
  91   2.0000      -1.244424       -33.8625 
  92   2.0000      -1.150901       -31.3176 
  93   2.0000      -1.144104       -31.1327 
  94   2.0000      -1.042514       -28.3683 
  95   2.0000      -1.036322       -28.1997 
  96   2.0000      -1.031221       -28.0610 
  97   2.0000      -1.030577       -28.0434 
  98   2.0000      -1.014445       -27.6044 
  99   2.0000      -1.014295       -27.6004 
 100   2.0000      -1.005855       -27.3707 
 101   2.0000      -1.004945       -27.3459 
 102   2.0000      -1.004128       -27.3237 
 103   2.0000      -0.994361       -27.0579 
 104   2.0000      -0.992392       -27.0044 
 105   2.0000      -0.988110       -26.8878 
 106   2.0000      -0.981683       -26.7130 
 107   2.0000      -0.979430       -26.6517 
 108   2.0000      -0.966077       -26.2883 
 109   2.0000      -0.945346       -25.7242 
 110   2.0000      -0.941269       -25.6132 
 111   2.0000      -0.934698       -25.4344 
 112   2.0000      -0.916818       -24.9479 
 113   2.0000      -0.913078       -24.8461 
 114   2.0000      -0.902775       -24.5658 
 115   2.0000      -0.901398       -24.5283 
 116   2.0000      -0.895555       -24.3693 
 117   2.0000      -0.893578       -24.3155 
 118   2.0000      -0.888366       -24.1737 
 119   2.0000      -0.883100       -24.0304 
 120   2.0000      -0.882225       -24.0066 
 121   2.0000      -0.850411       -23.1409 
 122   2.0000      -0.849622       -23.1194 
 123   2.0000      -0.845008       -22.9938 
 124   2.0000      -0.838852       -22.8263 
 125   2.0000      -0.831770       -22.6336 
 126   2.0000      -0.829215       -22.5641 
 127   2.0000      -0.811905       -22.0931 
 128   2.0000      -0.807150       -21.9637 
 129   2.0000      -0.781936       -21.2776 
 130   2.0000      -0.778983       -21.1972 
 131   2.0000      -0.776374       -21.1262 
 132   2.0000      -0.768668       -20.9165 
 133   2.0000      -0.747055       -20.3284 
 134   2.0000      -0.745410       -20.2836 
 135   2.0000      -0.730086       -19.8667 
 136   2.0000      -0.728083       -19.8121 
 137   2.0000      -0.724912       -19.7259 
 138   2.0000      -0.719201       -19.5705 
 139   2.0000      -0.701680       -19.0937 
 140   2.0000      -0.697642       -18.9838 
 141   2.0000      -0.695500       -18.9255 
 142   2.0000      -0.693123       -18.8608 
 143   2.0000      -0.682716       -18.5776 
 144   2.0000      -0.680500       -18.5174 
 145   2.0000      -0.677325       -18.4310 
 146   2.0000      -0.668360       -18.1870 
 147   2.0000      -0.664568       -18.0838 
 148   2.0000      -0.660268       -17.9668 
 149   2.0000      -0.653922       -17.7941 
 150   2.0000      -0.652308       -17.7502 
 151   2.0000      -0.650504       -17.7011 
 152   2.0000      -0.642684       -17.4883 
 153   2.0000      -0.638974       -17.3874 
 154   2.0000      -0.631937       -17.1959 
 155   2.0000      -0.625681       -17.0256 
 156   2.0000      -0.623361       -16.9625 
 157   2.0000      -0.609833       -16.5944 
 158   2.0000      -0.608460       -16.5570 
 159   2.0000      -0.604449       -16.4479 
 160   2.0000      -0.600827       -16.3493 
 161   2.0000      -0.600119       -16.3301 
 162   2.0000      -0.598179       -16.2773 
 163   2.0000      -0.596204       -16.2235 
 164   2.0000      -0.593466       -16.1490 
 165   2.0000      -0.592608       -16.1257 
 166   2.0000      -0.590936       -16.0802 
 167   2.0000      -0.585981       -15.9454 
 168   2.0000      -0.584861       -15.9149 
 169   2.0000      -0.583225       -15.8704 
 170   2.0000      -0.564758       -15.3679 
 171   2.0000      -0.564261       -15.3543 
 172   2.0000      -0.560458       -15.2508 
 173   2.0000      -0.559099       -15.2138 
 174   2.0000      -0.554893       -15.0994 
 175   2.0000      -0.553993       -15.0749 
 176   2.0000      -0.553237       -15.0543 
 177   2.0000      -0.548754       -14.9323 
 178   2.0000      -0.545241       -14.8367 
 179   2.0000      -0.543843       -14.7987 
 180   2.0000      -0.540328       -14.7031 
 181   2.0000      -0.539662       -14.6849 
 182   2.0000      -0.539033       -14.6678 
 183   2.0000      -0.537163       -14.6169 
 184   2.0000      -0.535285       -14.5658 
 185   2.0000      -0.529398       -14.4057 
 186   2.0000      -0.525594       -14.3021 
 187   2.0000      -0.525293       -14.2940 
 188   2.0000      -0.519728       -14.1425 
 189   2.0000      -0.517485       -14.0815 
 190   2.0000      -0.512173       -13.9369 
 191   2.0000      -0.511606       -13.9215 
 192   2.0000      -0.510165       -13.8823 
 193   2.0000      -0.508771       -13.8444 
 194   2.0000      -0.503817       -13.7096 
 195   2.0000      -0.503055       -13.6888 
 196   2.0000      -0.500875       -13.6295 
 197   2.0000      -0.498541       -13.5660 
 198   2.0000      -0.497515       -13.5381 
 199   2.0000      -0.495181       -13.4746 
 200   2.0000      -0.493232       -13.4215 
 201   2.0000      -0.488959       -13.3053 
 202   2.0000      -0.481889       -13.1129 
 203   2.0000      -0.479591       -13.0503 
 204   2.0000      -0.478814       -13.0292 
 205   2.0000      -0.475498       -12.9389 
 206   2.0000      -0.472679       -12.8623 
 207   2.0000      -0.472160       -12.8481 
 208   2.0000      -0.465763       -12.6741 
 209   2.0000      -0.463311       -12.6073 
 210   2.0000      -0.460908       -12.5420 
 211   2.0000      -0.459340       -12.4993 
 212   2.0000      -0.458961       -12.4890 
 213   2.0000      -0.455466       -12.3939 
 214   2.0000      -0.454892       -12.3782 
 215   2.0000      -0.453451       -12.3390 
 216   2.0000      -0.453384       -12.3372 
 217   2.0000      -0.442646       -12.0450 
 218   2.0000      -0.441678       -12.0187 
 219   2.0000      -0.438934       -11.9440 
 220   2.0000      -0.438541       -11.9333 
 221   2.0000      -0.437897       -11.9158 
 222   2.0000      -0.437012       -11.8917 
 223   2.0000      -0.436163       -11.8686 
 224   2.0000      -0.433728       -11.8023 
 225   2.0000      -0.432973       -11.7818 
 226   2.0000      -0.427252       -11.6261 
 227   2.0000      -0.424408       -11.5487 
 228   2.0000      -0.422036       -11.4842 
 229   2.0000      -0.419888       -11.4257 
 230   2.0000      -0.417289       -11.3550 
 231   2.0000      -0.416443       -11.3320 
 232   2.0000      -0.415641       -11.3102 
 233   2.0000      -0.406693       -11.0667 
 234   2.0000      -0.404128       -10.9969 
 235   2.0000      -0.398520       -10.8443 
 236   2.0000      -0.396036       -10.7767 
 237   2.0000      -0.393855       -10.7173 
 238   2.0000      -0.387951       -10.5567 
 239   2.0000      -0.383540       -10.4366 
 240   2.0000      -0.366256        -9.9663 
 241   2.0000      -0.353048        -9.6069 
 242   2.0000      -0.349110        -9.4998 
 243   2.0000      -0.345084        -9.3902 
 244   2.0000      -0.327981        -8.9248 
 245   2.0000      -0.327352        -8.9077 
 246   2.0000      -0.323493        -8.8027 
 247   2.0000      -0.320753        -8.7281 
 248   2.0000      -0.312682        -8.5085 
 249   2.0000      -0.310464        -8.4482 
 250   2.0000      -0.304996        -8.2994 
 251   2.0000      -0.285373        -7.7654 
 252   2.0000      -0.277491        -7.5509 
 253   0.0000      -0.115693        -3.1482 
 254   0.0000      -0.111486        -3.0337 
 255   0.0000      -0.078148        -2.1265 
 256   0.0000      -0.072455        -1.9716 
 257   0.0000      -0.065451        -1.7810 
 258   0.0000      -0.056791        -1.5454 
 259   0.0000      -0.035152        -0.9565 
 260   0.0000      -0.026154        -0.7117 
 261   0.0000       0.003834         0.1043 
 262   0.0000       0.016844         0.4583 
 263   0.0000       0.024777         0.6742 
 264   0.0000       0.026524         0.7217 
 265   0.0000       0.028671         0.7802 
 266   0.0000       0.029977         0.8157 
 267   0.0000       0.032684         0.8894 
 268   0.0000       0.035988         0.9793 
 269   0.0000       0.040092         1.0910 
 270   0.0000       0.043675         1.1884 
 271   0.0000       0.048832         1.3288 
 272   0.0000       0.055452         1.5089 
 273   0.0000       0.056223         1.5299 
 274   0.0000       0.066593         1.8121 
 275   0.0000       0.068574         1.8660 
 276   0.0000       0.077006         2.0954 
 277   0.0000       0.080049         2.1783 
 278   0.0000       0.085177         2.3178 
 279   0.0000       0.086521         2.3544 
 280   0.0000       0.087341         2.3767 
 281   0.0000       0.089128         2.4253 
 282   0.0000       0.090685         2.4677 
 283   0.0000       0.093126         2.5341 
 284   0.0000       0.096855         2.6356 
 285   0.0000       0.098974         2.6932 
 286   0.0000       0.100026         2.7218 
 287   0.0000       0.107169         2.9162 
 288   0.0000       0.107485         2.9248 
 289   0.0000       0.112137         3.0514 
 290   0.0000       0.113294         3.0829 
 291   0.0000       0.115578         3.1450 
 292   0.0000       0.121109         3.2955 
 293   0.0000       0.125813         3.4235 
 294   0.0000       0.127145         3.4598 
 295   0.0000       0.135460         3.6860 
 296   0.0000       0.137179         3.7328 
 297   0.0000       0.138783         3.7765 
 298   0.0000       0.142730         3.8839 
 299   0.0000       0.142940         3.8896 
 300   0.0000       0.149284         4.0622 
 301   0.0000       0.150927         4.1069 
 302   0.0000       0.152942         4.1618 
 303   0.0000       0.156603         4.2614 
 304   0.0000       0.159186         4.3317 
 305   0.0000       0.160106         4.3567 
 306   0.0000       0.161052         4.3825 
 307   0.0000       0.163223         4.4415 
 308   0.0000       0.170019         4.6265 
 309   0.0000       0.184927         5.0321 
 310   0.0000       0.188486         5.1290 
 311   0.0000       0.192670         5.2428 
 312   0.0000       0.196403         5.3444 
 313   0.0000       0.205847         5.6014 
 314   0.0000       0.210191         5.7196 
 315   0.0000       0.210623         5.7314 
 316   0.0000       0.212953         5.7947 
 317   0.0000       0.215020         5.8510 
 318   0.0000       0.219875         5.9831 
 319   0.0000       0.221269         6.0210 
 320   0.0000       0.228430         6.2159 
 321   0.0000       0.228910         6.2290 
 322   0.0000       0.229460         6.2439 
 323   0.0000       0.238547         6.4912 
 324   0.0000       0.240064         6.5325 
 325   0.0000       0.243916         6.6373 
 326   0.0000       0.244482         6.6527 
 327   0.0000       0.248067         6.7502 
 328   0.0000       0.250820         6.8252 
 329   0.0000       0.252813         6.8794 
 330   0.0000       0.255211         6.9446 
 331   0.0000       0.257993         7.0204 
 332   0.0000       0.259478         7.0608 
 333   0.0000       0.267337         7.2746 
 334   0.0000       0.270720         7.3667 
 335   0.0000       0.273226         7.4348 
 336   0.0000       0.280094         7.6217 
 337   0.0000       0.282367         7.6836 
 338   0.0000       0.288971         7.8633 
 339   0.0000       0.290457         7.9037 
 340   0.0000       0.291308         7.9269 
 341   0.0000       0.295925         8.0525 
 342   0.0000       0.298365         8.1189 
 343   0.0000       0.301022         8.1912 
 344   0.0000       0.302583         8.2337 
 345   0.0000       0.307899         8.3784 
 346   0.0000       0.308126         8.3845 
 347   0.0000       0.313338         8.5264 
 348   0.0000       0.316853         8.6220 
 349   0.0000       0.319111         8.6835 
 350   0.0000       0.320609         8.7242 
 351   0.0000       0.324940         8.8421 
 352   0.0000       0.326469         8.8837 
 353   0.0000       0.329790         8.9740 
 354   0.0000       0.332632         9.0514 
 355   0.0000       0.332953         9.0601 
 356   0.0000       0.338275         9.2049 
 357   0.0000       0.340231         9.2582 
 358   0.0000       0.343006         9.3337 
 359   0.0000       0.343784         9.3548 
 360   0.0000       0.345966         9.4142 
 361   0.0000       0.350216         9.5299 
 362   0.0000       0.352471         9.5912 
 363   0.0000       0.354830         9.6554 
 364   0.0000       0.358953         9.7676 
 365   0.0000       0.366123         9.9627 
 366   0.0000       0.367282         9.9943 
 367   0.0000       0.370058        10.0698 
 368   0.0000       0.371480        10.1085 
 369   0.0000       0.376078        10.2336 
 370   0.0000       0.377580        10.2745 
 371   0.0000       0.379142        10.3170 
 372   0.0000       0.384736        10.4692 
 373   0.0000       0.387792        10.5524 
 374   0.0000       0.390359        10.6222 
 375   0.0000       0.392525        10.6811 
 376   0.0000       0.395062        10.7502 
 377   0.0000       0.396435        10.7875 
 378   0.0000       0.399725        10.8771 
[...]
  15      4.14     299.5    83 ->  90      gap,J,K:    5.694     1.777     0.111
  16      4.19     295.8    88 ->  92      gap,J,K:    5.579     1.519     0.065
  17      4.29     289.3    87 ->  92      gap,J,K:    5.794     1.739     0.116
  18      4.33     286.6    80 ->  89      gap,J,K:    5.777     1.624     0.087
  19      4.33     286.4    81 ->  90      gap,J,K:    5.874     1.744     0.099
  20      4.34     285.9    78 ->  89      gap,J,K:    6.352     2.017     0.001
  21      4.39     282.7    81 ->  89      gap,J,K:    5.760     1.516     0.071
  22      4.44     279.0    87 ->  93      gap,J,K:    5.984     1.702     0.081
  23      4.47     277.5    88 ->  93      gap,J,K:    5.770     1.540     0.119
  24      4.47     277.1    88 ->  94      gap,J,K:    6.006     1.752     0.111

average / max PT2 energy lowering (eV):       0.034       0.062

CSF included by PT:                   244 
total number of CSF included:         282 
 
sTD-DFT procedure...
setting up A+B and A-B matrices...  done
estimated time (min):    0.001
calculating (A-B)^0.5 ... done
calculating (A+B)*(A-B)^0.5 ... done
calculating (A-B)^0.5 *(A+B)*(A-B)^0.5 ... done
diagonalizing ...using LAPACKE_ssyevr ...done

   41 roots found, lowest/highest eigenvalue :     2.553     4.921

excitation energies, transition moments and amplitudes

molecular weight: 1000.993
state   eV        nm        fL         fV        Rl        RV
   0   2.553     485.7   1.002515   1.067908  648.890507  679.589354     0.56 (  87->  89)    0.30 (  88->  90)    0.04 (  86->  90)
   1   2.670     464.4   1.753681   1.881442  -756.595844  -764.763668     0.67 (  88->  89)    0.25 (  87->  90)    0.02 (  86->  89)
   2   2.989     414.7   0.024465   0.019634  -1.633773  -0.951921     0.53 (  88->  90)    0.26 (  87->  89)    0.04 (  88->  94)
   3   3.111     398.5   0.054729   0.059157  -50.331775  -44.352157     0.49 (  87->  90)    0.26 (  88->  89)    0.08 (  86->  89)
   4   3.295     376.2   0.123178   0.116689  47.703701  29.760102     0.20 (  85->  90)    0.20 (  84->  90)    0.17 (  85->  89)
   5   3.339     371.3   0.100420   0.095578  -37.934081  -41.558578     0.29 (  85->  89)    0.18 (  85->  90)    0.12 (  86->  89)
   6   3.441     360.3   0.046688   0.037803  11.316225  21.421734     0.36 (  82->  89)    0.29 (  82->  90)    0.14 (  83->  90)
   7   3.443     360.1   0.042072   0.031426  -12.565088  -22.335924     0.40 (  83->  89)    0.15 (  82->  90)    0.10 (  83->  90)
   8   3.487     355.6   0.016893   0.015069  12.525169   3.340458     0.19 (  81->  90)    0.14 (  81->  89)    0.12 (  79->  90)
   9   3.495     354.8   0.003023   0.002901  -1.592870   0.301007     0.46 (  78->  89)    0.32 (  78->  90)    0.07 (  78->  92)
  10   3.532     351.1   0.062037   0.060188  -115.070553  -121.363638     0.29 (  87->  91)    0.15 (  88->  92)    0.10 (  86->  90)
  11   3.610     343.4   0.148035   0.148486  127.627094  125.797008     0.13 (  87->  92)    0.09 (  80->  89)    0.07 (  88->  91)
  12   3.657     339.0   0.025726   0.026355  -47.613440  -45.022069     0.13 (  81->  90)    0.10 (  79->  90)    0.10 (  81->  89)
  13   3.709     334.3   0.019178   0.015566  39.541333  34.216457     0.26 (  86->  89)    0.11 (  80->  89)    0.09 (  83->  89)
  14   3.732     332.2   0.924770   0.854079  184.077086  163.981144     0.31 (  88->  91)    0.10 (  87->  92)    0.09 (  80->  89)
  15   3.834     323.4   0.262900   0.241878  -33.859762  -33.967026     0.18 (  86->  90)    0.11 (  88->  92)    0.10 (  84->  90)
  16   3.895     318.3   0.115357   0.100741  -47.310040  -51.549610     0.17 (  88->  93)    0.15 (  88->  91)    0.14 (  87->  91)
  17   4.045     306.5   0.013846   0.011798  -22.637240  -23.737882     0.40 (  87->  93)    0.12 (  88->  93)    0.07 (  87->  91)
  18   4.122     300.8   0.063419   0.058913  96.519554  98.333833     0.38 (  88->  94)    0.12 (  88->  92)    0.06 (  88->  96)
  19   4.149     298.8   0.008572   0.006847  -20.384142  -16.034567     0.32 (  83->  90)    0.16 (  83->  89)    0.05 (  85->  90)
  20   4.186     296.2   0.687426   0.621073  23.009061  21.350179     0.18 (  85->  92)    0.17 (  80->  89)    0.10 (  85->  91)
  21   4.192     295.8   0.219688   0.192209  169.643410  167.452342     0.24 (  82->  89)    0.23 (  82->  90)    0.06 (  82->  91)
  22   4.215     294.2   0.243926   0.226444  -250.845321  -262.144250     0.08 (  79->  93)    0.07 (  77->  93)    0.07 (  81->  90)
  23   4.257     291.2   0.001386   0.001209  -2.676182  -3.384485     0.45 (  78->  92)    0.25 (  78->  91)    0.12 (  78->  93)
  24   4.324     286.7   0.247705   0.217161  -15.672167  11.027907     0.10 (  79->  93)    0.07 (  84->  93)    0.07 (  79->  92)
  25   4.374     283.5   0.016515   0.011055   5.141924   5.238234     0.14 (  85->  89)    0.11 (  84->  90)    0.11 (  87->  94)
  26   4.391     282.3   0.023866   0.019780  -3.541893  -6.630739     0.24 (  87->  94)    0.15 (  85->  89)    0.08 (  84->  90)
  27   4.411     281.1   0.023742   0.020152   3.005664   1.667096     0.35 (  85->  90)    0.16 (  84->  89)    0.10 (  86->  89)
  28   4.563     271.7   0.099737   0.078007  23.813974  18.841564     0.25 (  83->  91)    0.23 (  83->  92)    0.10 (  84->  91)
  29   4.602     269.4   0.004847   0.004510  -29.998226  -32.321441     0.15 (  87->  92)    0.10 (  88->  93)    0.09 (  88->  92)
  30   4.626     268.0   0.011185   0.007741  -26.479438  -26.716710     0.10 (  82->  92)    0.09 (  86->  91)    0.08 (  84->  91)
  31   4.647     266.8   0.024496   0.019784  -46.089567  -38.176269     0.11 (  82->  91)    0.11 (  82->  92)    0.10 (  77->  89)
  32   4.682     264.8   0.056758   0.044211  10.008727  18.060101     0.15 (  88->  92)    0.10 (  87->  93)    0.05 (  88->  94)
  33   4.702     263.7   0.022163   0.020682   0.524595   0.501749     0.13 (  83->  92)    0.10 (  82->  91)    0.08 (  86->  91)
  34   4.743     261.4   0.164429   0.133914  -44.361187  -28.898954     0.19 (  88->  93)    0.16 (  88->  94)    0.10 (  87->  94)
  35   4.778     259.5   0.072710   0.061155  -67.277281  -49.675746     0.09 (  79->  90)    0.09 (  77->  90)    0.08 (  83->  93)
  36   4.799     258.4   0.004331   0.002959  -22.902355  -24.398911     0.12 (  86->  94)    0.09 (  80->  92)    0.09 (  87->  95)
  37   4.828     256.8   0.077018   0.063668  127.224129  117.025051     0.32 (  81->  89)    0.26 (  81->  90)    0.04 (  82->  89)
  38   4.870     254.6   0.027862   0.023036  125.066813  111.855770     0.30 (  80->  90)    0.23 (  80->  89)    0.05 (  81->  90)
  39   4.905     252.8   0.014160   0.011513   8.764069  13.885738     0.21 (  80->  90)    0.12 (  80->  89)    0.06 (  81->  92)
  40   4.921     252.0   0.060999   0.048382  -15.863477  -16.859704     0.10 (  83->  91)    0.10 (  80->  92)    0.08 (  86->  91)

-----------------------------------------------------------------------------
         ABSORPTION SPECTRUM VIA TRANSITION ELECTRIC DIPOLE MOMENTS
-----------------------------------------------------------------------------
State   Energy  Wavelength   fosc         T2         TX        TY        TZ  
        (cm-1)    (nm)                  (au**2)     (au)      (au)      (au) 
-----------------------------------------------------------------------------
   0   20588.6    485.7   1.002514975  16.03023   1.00703   3.16990  -2.22887
   1   21533.0    464.4   1.753681183  26.81155   0.38203   3.59304   3.70887
   2   24111.1    414.7   0.024465024   0.33404   0.07456   0.46568  -0.33410
   3   25092.6    398.5   0.054728746   0.71804  -0.22105   0.80771  -0.12951
   4   26579.4    376.2   0.123178171   1.52568  -0.52696  -0.24089  -1.09085
   5   26930.5    371.3   0.100419886   1.22758  -0.20699  -0.69646  -0.83647
   6   27751.0    360.3   0.046688051   0.55386  -0.04797  -0.15318  -0.72670
   7   27772.9    360.1   0.042072252   0.49871   0.09874   0.69836   0.03535
   8   28122.8    355.6   0.016892956   0.19775   0.11592  -0.38535  -0.18925
   9   28187.6    354.8   0.003023014   0.03531   0.07622   0.02852  -0.16936
  10   28485.7    351.1   0.062036614   0.71696  -0.01054  -0.83430  -0.14421
  11   29117.3    343.4   0.148035467   1.67375   0.31438  -0.10607   1.25046
  12   29495.0    339.0   0.025725550   0.28714  -0.34237   0.16541  -0.37757
  13   29911.4    334.3   0.019178070   0.21108   0.07708  -0.28493   0.35206
  14   30101.7    332.2   0.924769713  10.11390  -0.57610  -0.58094  -3.07319
  15   30924.3    323.4   0.262900039   2.79877  -0.19373   0.46651  -1.59487
  16   31416.7    318.3   0.115357184   1.20881  -0.01184   0.98932  -0.47951
  17   32626.0    306.5   0.013845560   0.13971  -0.32093  -0.09663  -0.16545
  18   33246.9    300.8   0.063419045   0.62798   0.28947   0.55104   0.49045
  19   33465.2    298.8   0.008571722   0.08432  -0.18608   0.21521  -0.05816
  20   33762.8    296.2   0.687426372   6.70292  -0.45875  -0.23157  -2.53749
  21   33807.2    295.8   0.219687982   2.13931   0.45728  -0.14166   1.38208
  22   33992.8    294.2   0.243926225   2.36237   0.79328  -0.40379   1.25301
  23   34337.4    291.2   0.001385521   0.01328   0.02638  -0.01059  -0.11169
  24   34874.2    286.7   0.247704521   2.33833  -0.59548  -0.26205  -1.38386
  25   35275.3    283.5   0.016515060   0.15413   0.07165  -0.38232   0.05317
  26   35418.5    282.3   0.023865738   0.22183  -0.00297   0.04127   0.46917
  27   35574.4    281.1   0.023741922   0.21971  -0.08096  -0.14750  -0.43750
  28   36799.9    271.7   0.099737313   0.89225   0.12098   0.92843  -0.12503
  29   37117.8    269.4   0.004846510   0.04299  -0.16979   0.08873  -0.07927
  30   37314.2    268.0   0.011185155   0.09868  -0.14523  -0.27150   0.06230
  31   37484.4    266.8   0.024495609   0.21514   0.04595  -0.05313  -0.45848
  32   37765.4    264.8   0.056757851   0.49478  -0.13035   0.61032  -0.32449
  33   37921.4    263.7   0.022163107   0.19241  -0.11012  -0.32025  -0.27878
  34   38251.1    261.4   0.164429108   1.41517  -0.05320   1.13565  -0.35021
  35   38535.8    259.5   0.072709662   0.62116  -0.04407  -0.61814  -0.48695
  36   38705.5    258.4   0.004330871   0.03684  -0.03018   0.18182  -0.05356
  37   38941.3    256.8   0.077017605   0.65111  -0.32632   0.11159  -0.72950
  38   39277.6    254.6   0.027862010   0.23353  -0.30325  -0.23393  -0.29470
  39   39559.4    252.8   0.014160394   0.11784   0.30018  -0.05733  -0.15636
  40   39689.3    252.0   0.060999346   0.50597  -0.18150  -0.37742   0.57496

-----------------------------------------------------------------------------
         ABSORPTION SPECTRUM VIA TRANSITION VELOCITY DIPOLE MOMENTS
-----------------------------------------------------------------------------
State   Energy  Wavelength   fosc         P2         PX        PY        PZ  
        (cm-1)    (nm)                  (au**2)     (au)      (au)      (au) 
-----------------------------------------------------------------------------
   0   20588.6    485.7   1.067908117   0.15027   0.09761   0.30562  -0.21757
   1   21533.0    464.4   1.881442460   0.27689   0.03858   0.36603   0.37606
   2   24111.1    414.7   0.019634326   0.00324   0.00715   0.04531  -0.03363
   3   25092.6    398.5   0.059156609   0.01015  -0.02547   0.09583  -0.01769
   4   26579.4    376.2   0.116689270   0.02120  -0.06202  -0.02410  -0.12950
   5   26930.5    371.3   0.095578484   0.01759  -0.02477  -0.08132  -0.10181
   6   27751.0    360.3   0.037802947   0.00717  -0.00196  -0.01378  -0.08352
   7   27772.9    360.1   0.031425517   0.00597   0.00893   0.07578   0.01193
   8   28122.8    355.6   0.015069417   0.00290   0.01355  -0.04461  -0.02688
   9   28187.6    354.8   0.002900699   0.00056   0.01113   0.00291  -0.02065
  10   28485.7    351.1   0.060188498   0.01172  -0.00173  -0.10606  -0.02158
  11   29117.3    343.4   0.148486004   0.02955   0.04011  -0.01732   0.16625
  12   29495.0    339.0   0.026354563   0.00531  -0.04609   0.02238  -0.05184
  13   29911.4    334.3   0.015565951   0.00318   0.00921  -0.03614   0.04233
  14   30101.7    332.2   0.854079386   0.17571  -0.07673  -0.07619  -0.40499
  15   30924.3    323.4   0.241878003   0.05112  -0.02677   0.06209  -0.21575
  16   31416.7    318.3   0.100741272   0.02163  -0.00235   0.13339  -0.06191
  17   32626.0    306.5   0.011797742   0.00263  -0.04464  -0.01627  -0.01932
  18   33246.9    300.8   0.058913428   0.01339   0.04217   0.08551   0.06555
  19   33465.2    298.8   0.006846547   0.00157  -0.02798   0.02699  -0.00741
  20   33762.8    296.2   0.621073215   0.14331  -0.06713  -0.03377  -0.37103
  21   33807.2    295.8   0.192209011   0.04441   0.06795  -0.01625   0.19882
  22   33992.8    294.2   0.226443935   0.05261   0.11621  -0.06513   0.18671
  23   34337.4    291.2   0.001209457   0.00028   0.00283  -0.00300  -0.01634
  24   34874.2    286.7   0.217160594   0.05176  -0.08791  -0.04249  -0.20549
  25   35275.3    283.5   0.011055477   0.00267   0.00980  -0.05013   0.00752
  26   35418.5    282.3   0.019779693   0.00479  -0.00027   0.00205   0.06916
  27   35574.4    281.1   0.020151629   0.00490  -0.01271  -0.02244  -0.06507
  28   36799.9    271.7   0.078007062   0.01962   0.01822   0.13785  -0.01689
  29   37117.8    269.4   0.004509988   0.00114  -0.02805   0.01519  -0.01127
  30   37314.2    268.0   0.007740730   0.00197  -0.02120  -0.03662   0.01356
  31   37484.4    266.8   0.019783773   0.00507   0.01008   0.00135  -0.07046
  32   37765.4    264.8   0.044210866   0.01141  -0.02335   0.09116  -0.05055
  33   37921.4    263.7   0.020681870   0.00536  -0.01693  -0.05074  -0.04999
  34   38251.1    261.4   0.133914007   0.03501  -0.01045   0.17762  -0.05790
  35   38535.8    259.5   0.061155436   0.01611  -0.00591  -0.10295  -0.07398
  36   38705.5    258.4   0.002959116   0.00078  -0.00665   0.02652  -0.00594
  37   38941.3    256.8   0.063668454   0.01695  -0.05245   0.01768  -0.11782
  38   39277.6    254.6   0.023035877   0.00618  -0.04965  -0.03547  -0.04961
  39   39559.4    252.8   0.011512826   0.00311   0.04969  -0.01498  -0.02047
  40   39689.3    252.0   0.048382499   0.01312  -0.02789  -0.05912   0.09408

-------------------------------------------------------------------
                             CD SPECTRUM
-------------------------------------------------------------------
State   Energy Wavelength       R         MX        MY        MZ   
        (cm-1)   (nm)       (1e40*cgs)   (au)      (au)      (au)  
-------------------------------------------------------------------
   0   20588.6    485.7    648.89051  -7.74619   1.85871   0.37871
   1   21533.0    464.4    -756.59584   9.77291  -3.28560   3.04174
   2   24111.1    414.7     -1.63377  -0.71696   0.32662   0.27451
   3   25092.6    398.5    -50.33178   0.46358   0.67972   1.79920
   4   26579.4    376.2     47.70370  -4.22174   2.44087   1.68593
   5   26930.5    371.3    -37.93408  -1.09959   0.73084  -0.52880
   6   27751.0    360.3     11.31622  -2.66108   0.91007   0.04990
   7   27772.9    360.1    -12.56509  -0.13257   0.05772   0.73782
   8   28122.8    355.6     12.52517  -1.36572   0.17240  -0.90681
   9   28187.6    354.8     -1.59287  -0.44851   0.29172  -0.19261
  10   28485.7    351.1    -115.07055   0.09234  -0.33051  -1.47974
  11   29117.3    343.4    127.62709   3.10805  -1.99641  -1.38374
  12   29495.0    339.0    -47.61344  -1.61121   1.76567   1.69955
  13   29911.4    334.3     39.54133  -0.92021  -0.17542  -0.41697
  14   30101.7    332.2    184.07709  -7.25447   4.32004   0.79737
  15   30924.3    323.4    -33.85976  -7.44884   3.28286   1.77504
  16   31416.7    318.3    -47.31004  -0.70423   0.85060   1.35379
  17   32626.0    306.5    -22.63724  -1.20499   0.97633   1.18667
  18   33246.9    300.8     96.51955   0.90017  -0.97807  -0.26728
  19   33465.2    298.8    -20.38414   0.07061   0.80573   1.26857
  20   33762.8    296.2     23.00906  -1.59868   2.78472   0.07336
  21   33807.2    295.8    169.64341   3.03696  -3.01674  -1.83473
  22   33992.8    294.2    -250.84532   5.51257  -4.96633  -4.24117
  23   34337.4    291.2     -2.67618   0.04169  -0.43452  -0.05061
  24   34874.2    286.7    -15.67217  -6.41558   3.92193   1.96994
  25   35275.3    283.5      5.14192  -0.88978  -0.20008  -0.64975
  26   35418.5    282.3     -3.54189   1.02679  -0.53333   0.08543
  27   35574.4    281.1      3.00566  -1.81241   0.91856   0.05484
  28   36799.9    271.7     23.81397   2.04274  -0.28945   0.63524
  29   37117.8    269.4    -29.99823  -0.69665   0.92214   0.91894
  30   37314.2    268.0    -26.47944  -1.24412   0.34581   0.40999
  31   37484.4    266.8    -46.08957  -0.83147   0.01261  -0.51126
  32   37765.4    264.8     10.00873   1.06780   0.84863   1.29804
  33   37921.4    263.7      0.52459  -2.11824   0.89504  -0.18351
  34   38251.1    261.4    -44.36119   0.93323   0.80977   1.94670
  35   38535.8    259.5    -67.27728  -1.98812   0.53010  -1.07910
  36   38705.5    258.4    -22.90236  -1.16284   0.57224   0.78377
  37   38941.3    256.8    127.22413  -1.05771   1.90234   1.50398
  38   39277.6    254.6    125.06681  -0.00103   1.12290   0.91009
  39   39559.4    252.8      8.76407  -1.14366  -0.82146  -1.65666
  40   39689.3    252.0    -15.86348   1.38876  -0.22480   0.40787

sTD-DFT done

Total run time:        2.981 sec

           *** ORCA-CIS/TD-DFT FINISHED WITHOUT ERROR ***

-------------------------   --------------------
FINAL SINGLE POINT ENERGY     -4609.366636195899
-------------------------   --------------------


                            ***************************************
                            *     ORCA property calculations      *
                            ***************************************

                                    ---------------------
                                    Active property flags
                                    ---------------------
   (+) Dipole Moment


------------------------------------------------------------------------------
                       ORCA ELECTRIC PROPERTIES CALCULATION
------------------------------------------------------------------------------

Dipole Moment Calculation                       ... on
Quadrupole Moment Calculation                   ... off
Polarizability Calculation                      ... off
GBWName                                         ... 78_25_19_25_78.gbw
Electron density file                           ... 78_25_19_25_78.scfp
The origin for moment calculation is the CENTER OF MASS  = (-8.849715, -17.915474 10.506879)

-------------
DIPOLE MOMENT
-------------
                                X             Y             Z
Electronic contribution:      4.06762      13.21644      22.46980
Nuclear contribution   :     -2.32822     -13.56610     -18.46034
                        -----------------------------------------
Total Dipole Moment    :      1.73940      -0.34966       4.00946
                        -----------------------------------------
Magnitude (a.u.)       :      4.38447
Magnitude (Debye)      :     11.14443



--------------------
Rotational spectrum 
--------------------
 
Rotational constants in cm-1:     0.000663     0.000385     0.000248 
Rotational constants in MHz :    19.886774    11.531106     7.424266 

 Dipole components along the rotational axes: 
x,y,z [a.u.] :    -1.669904     3.728938    -1.590596 
x,y,z [Debye]:    -4.244558     9.478207    -4.042973 

 

Timings for individual modules:

Sum of individual times         ...      490.908 sec (=   8.182 min)
GTO integral calculation        ...        2.838 sec (=   0.047 min)   0.6 %
SCF iterations                  ...      484.355 sec (=   8.073 min)  98.7 %
CIS module                      ...        3.715 sec (=   0.062 min)   0.8 %
                             ****ORCA TERMINATED NORMALLY****
TOTAL RUN TIME: 0 days 0 hours 8 minutes 11 seconds 915 msec
