
                                 *****************
                                 * O   R   C   A *
                                 *****************

           --- An Ab Initio, DFT and Semiempirical electronic structure package ---

                  #######################################################
                  #                        -***-                        #
                  #          Department of theory and spectroscopy      #
                  #               Directorship: Frank Neese             #
                  #        Max Planck Institute fuer Kohlenforschung    #
                  #                Kaiser Wilhelm Platz 1               #
                  #                 D-45470 Muelheim/Ruhr               #
                  #                      Germany                        #
                  #                                                     #
                  #                  All rights reserved                #
                  #                        -***-                        #
                  #######################################################


                         Program Version 4.2.0 -  RELEASE  -


 With contributions from (in alphabetic order):
   Daniel Aravena         : Magnetic Suceptibility
   Michael Atanasov       : Ab Initio Ligand Field Theory (pilot matlab implementation)
   Alexander A. Auer      : GIAO ZORA, VPT2
   Ute Becker             : Parallelization
   Giovanni Bistoni       : ED, misc. LED, open-shell LED, HFLED
   Martin Brehm           : Molecular dynamics
   Dmytro Bykov           : SCF Hessian
   Vijay G. Chilkuri      : MRCI spin determinant printing, contributions to CSF-ICE
   Dipayan Datta          : RHF DLPNO-CCSD density
   Achintya Kumar Dutta   : EOM-CC, STEOM-CC
   Dmitry Ganyushin       : Spin-Orbit,Spin-Spin,Magnetic field MRCI
   Miquel Garcia          : C-PCM Hessian, Gaussian charge scheme
   Yang Guo               : DLPNO-NEVPT2, CIM, IAO-localization
   Andreas Hansen         : Spin unrestricted coupled pair/coupled cluster methods
   Benjamin Helmich-Paris : CASSCF linear response (MC-RPA)
   Lee Huntington         : MR-EOM, pCC
   Robert Izsak           : Overlap fitted RIJCOSX, COSX-SCS-MP3, EOM
   Christian Kollmar      : KDIIS, OOCD, Brueckner-CCSD(T), CCSD density
   Simone Kossmann        : Meta GGA functionals, TD-DFT gradient, OOMP2, MP2 Hessian
   Martin Krupicka        : AUTO-CI
   Lucas Lang             : DCDCAS
   Dagmar Lenk            : GEPOL surface, SMD
   Dimitrios Liakos       : Extrapolation schemes; Compound Job, initial MDCI parallelization
   Dimitrios Manganas     : Further ROCIS development; embedding schemes
   Dimitrios Pantazis     : SARC Basis sets
   Taras Petrenko         : DFT Hessian,TD-DFT gradient, ASA, ECA, R-Raman, ABS, FL, XAS/XES, NRVS
   Peter Pinski           : DLPNO-MP2, DLPNO-MP2 Gradient
   Christoph Reimann      : Effective Core Potentials
   Marius Retegan         : Local ZFS, SOC
   Christoph Riplinger    : Optimizer, TS searches, QM/MM, DLPNO-CCSD(T), (RO)-DLPNO pert. Triples
   Tobias Risthaus        : Range-separated hybrids, TD-DFT gradient, RPA, STAB
   Michael Roemelt        : Original ROCIS implementation
   Masaaki Saitow         : Open-shell DLPNO-CCSD energy and density
   Barbara Sandhoefer     : DKH picture change effects
   Avijit Sen             : IP-ROCIS
   Kantharuban Sivalingam : CASSCF convergence, NEVPT2, FIC-MRCI
   Bernardo de Souza      : ESD, SOC TD-DFT
   Georgi Stoychev        : AutoAux, RI-MP2 NMR
   Willem Van den Heuvel  : Paramagnetic NMR
   Boris Wezisla          : Elementary symmetry handling
   Frank Wennmohs         : Technical directorship


 We gratefully acknowledge several colleagues who have allowed us to
 interface, adapt or use parts of their codes:
   Stefan Grimme, W. Hujo, H. Kruse,             : VdW corrections, initial TS optimization,
                  C. Bannwarth                     DFT functionals, gCP, sTDA/sTD-DF
   Ed Valeev, F. Pavosevic, A. Kumar             : LibInt (2-el integral package), F12 methods
   Garnet Chan, S. Sharma, J. Yang, R. Olivares  : DMRG
   Ulf Ekstrom                                   : XCFun DFT Library
   Mihaly Kallay                                 : mrcc  (arbitrary order and MRCC methods)
   Andreas Klamt, Michael Diedenhofen            : otool_cosmo (COSMO solvation model)
   Jiri Pittner, Ondrej Demel                    : Mk-CCSD
   Frank Weinhold                                : gennbo (NPA and NBO analysis)
   Christopher J. Cramer and Donald G. Truhlar   : smd solvation model
   Lars Goerigk                                  : TD-DFT with DH, B97 family of functionals
   V. Asgeirsson, H. Jonsson                     : NEB implementation
   FAccTs GmbH                                   : IRC, NEB, NEB-TS, Multilevel, MM, QM/MM, CI optimization
   S Lehtola, MJT Oliveira, MAL Marques          : LibXC Library


 Your calculation uses the libint2 library for the computation of 2-el integrals
 For citations please refer to: http://libint.valeyev.net

 Your ORCA version has been built with support for libXC version: 4.2.3
 For citations please refer to: https://tddft.org/programs/libxc/

 This ORCA versions uses:
   CBLAS   interface :  Fast vector & matrix operations
   LAPACKE interface :  Fast linear algebra routines
   SCALAPACK package :  Parallel linear algebra routines


XCFun DFT library Copyright 2009-2010 Ulf Ekstrom and contributors.
See http://admol.org/xcfun for more information. This is free soft-
ware; see the source code for copying conditions. There is ABSOLUTELY
NO WARRANTY; not even for MERCHANTABILITY or FITNESS FOR A PARTICULAR
PURPOSE. For details see the documentation. Scientific users of this 
library should cite U. Ekstrom, L. Visscher, R. Bast, A. J. Thorvald-
sen and K. Ruud; J.Chem.Theor.Comp. 2010, DOI: 10.1021/ct100117s
XCFun Version 0.99 
----- Orbital basis set information -----
Your calculation utilizes the basis: def2-SVP
   F. Weigend and R. Ahlrichs, Phys. Chem. Chem. Phys. 7, 3297 (2005).

----- AuxJ basis set information -----
Your calculation utilizes the auxiliary basis: def2/J
   F. Weigend, Phys. Chem. Chem. Phys. 8, 1057 (2006).

================================================================================
                                        WARNINGS
                       Please study these warnings very carefully!
================================================================================

INFO   : Checking CIS options ...

WARNING: CIS/ROCIS methods need fully converged wavefunctions
  ===> : Setting SCFConvForced true
         You can overwrite this default with %scf ConvForced false 


INFO   : the flag for use of LIBINT has been found!

================================================================================
                                       INPUT FILE
================================================================================
NAME = 90_30_19_30_90.inp
|  1> # ORCA input file
|  2> # SCF done       -251.484034088925          0.000814671372
|  3> ! CAM-B3LYP def2-SVP def2/J RIJCOSX Grid4 TightSCF
|  4> %maxcore 5000
|  5> %tddft
|  6>     Mode sTDDFT
|  7>     Ethresh 5.0
|  8>     maxcore 5000
|  9> end
| 10> 
| 11> %pal
| 12>   nprocs 6
| 13>   end
| 14> * xyz 0 1
| 15>    C        7.13499         5.11503         3.08930
| 16>    C        6.96427         4.04845         3.93142
| 17>    C        8.02902         3.28975         4.46255
| 18>    N        8.84958         2.63939         4.93324
| 19>    C        5.72416         3.51713         4.34647
| 20>    N        4.76135         3.00652         4.70880
| 21>    C        8.41387         5.58353         2.57221
| 22>    C        8.15934         6.55174         1.56112
| 23>    C        9.16915         7.17257         0.88412
| 24>    C       10.50804         6.85534         1.20369
| 25>    C       10.77208         5.89295         2.22084
| 26>    C        9.70451         5.25993         2.89796
| 27>    C       12.11223         5.58992         2.53653
| 28>    C       13.14278         6.20701         1.88120
| 29>    C       12.88152         7.15452         0.88014
| 30>    C       11.59224         7.47090         0.54788
| 31>    C        6.70671         6.74391         1.41216
| 32>    O        6.16778         7.43572         0.57319
| 33>    C        6.08479         5.92624         2.48589
| 34>    C        4.81597         5.99212         2.98427
| 35>    C        3.68917         6.73887         2.56656
| 36>    C        3.43440         7.47597         1.43741
| 37>    C        2.16345         8.08324         1.43011
| 38>    C        1.60972         8.89357         0.41137
| 39>    C        2.27218         9.04377        -0.86171
| 40>    C        2.95033         8.09064        -1.57504
| 41>    C        3.46498         8.56835        -2.79310
| 42>    C        3.19492         9.88468        -3.01840
| 43>    S        2.27265        10.56239        -1.71895
| 44>    C        3.57816        10.72229        -4.18317
| 45>    C        0.40317         9.51395         0.71600
| 46>    C       -0.30078         9.29607         1.92717
| 47>    C        0.18267         8.37460         2.88143
| 48>    C        1.43599         7.82721         2.62340
| 49>    S        2.31484         6.75631         3.67006
| 50>    C       -0.61545         7.98894         4.02449
| 51>    C       -1.96606         7.76733         4.05807
| 52>    C       -2.42835         7.32068         5.31039
| 53>    C       -1.44116         7.20425         6.24222
| 54>    S        0.09782         7.64890         5.57749
| 55>    C       -1.55026         6.74532         7.65191
| 56>    C       -1.45660        10.10871         2.01358
| 57>    C       -1.66767        10.87045         0.90018
| 58>    S       -0.44596        10.62862        -0.32104
| 59>    C       -2.72823        11.82011         0.68283
| 60>    C       -3.02949        12.35887        -0.52642
| 61>    C       -4.10568        13.29186        -0.65870
| 62>    C       -4.46044        13.84110        -1.87746
| 63>    C       -5.51991        14.75443        -1.99668
| 64>    N       -6.38729        15.50249        -2.08767
| 65>    C       -3.78182        13.51175        -3.06151
| 66>    N       -3.22309        13.23896        -4.02786
| 67>    C       -4.78085        13.62751         0.55632
| 68>    C       -4.40626        13.06035         1.73190
| 69>    O       -3.41058        12.13813         1.81317
| 70>    C       -4.98202        13.38361         3.00945
| 71>    C       -4.53051        12.95881         4.22572
| 72>    C       -5.26622        13.48339         5.31312
| 73>    C       -5.05282        13.24458         6.68656
| 74>    C       -4.04175        12.30817         7.12790
| 75>    C       -3.72805        11.08972         6.59062
| 76>    C       -2.65485        10.45344         7.24174
| 77>    C       -2.14073        11.17864         8.27270
| 78>    S       -2.99562        12.67207         8.47331
| 79>    C       -1.01478        10.82634         9.17587
| 80>    C       -5.85011        13.96766         7.56564
| 81>    C       -6.86970        14.86052         7.13704
| 82>    C       -7.13077        15.04330         5.75738
| 83>    C       -6.28984        14.36390         4.88174
| 84>    S       -6.34822        14.46031         3.14001
| 85>    C       -8.21465        15.88289         5.30522
| 86>    C       -9.46056        16.03403         5.85479
| 87>    C      -10.27721        16.93026         5.14232
| 88>    C       -9.66722        17.47632         4.05330
| 89>    S       -8.05431        16.87200         3.87574
| 90>    C      -10.21083        18.45909         3.08161
| 91>    C       -7.49695        15.50645         8.22003
| 92>    C       -7.03434        15.10634         9.45000
| 93>    S       -5.75376        13.90526         9.29671
| 94>    C       -7.35250        15.50833        10.76766
| 95>    C       -8.34734        16.30796        11.25449
| 96>    C       -8.47946        16.65328        12.66423
| 97>    C       -7.55914        16.44192        13.65774
| 98>    C       -7.75394        16.81606        15.00475
| 99>    N       -7.84383        17.08609        16.11698
|100>    C       -6.28158        15.85982        13.51143
|101>    N       -5.22233        15.41496        13.49608
|102>    C       -9.75461        17.33701        12.84174
|103>    C      -10.37260        17.47473        11.56793
|104>    C       -9.51896        16.86719        10.53399
|105>    O       -9.77118        16.82486         9.34672
|106>    C      -11.58101        18.09054        11.41182
|107>    C      -12.24282        18.60597        12.54817
|108>    C      -11.63532        18.46571        13.82921
|109>    C      -10.38238        17.82386        13.95813
|110>    C      -12.30530        18.97985        14.95807
|111>    C      -13.51601        19.60425        14.82943
|112>    C      -14.11276        19.74267        13.56731
|113>    C      -13.48970        19.25430        12.45102
|114>    H        8.94860         7.90151         0.11836
|115>    H        9.93715         4.54078         3.66714
|116>    H       12.30859         4.85888         3.30703
|117>    H       14.16575         5.96853         2.13092
|118>    H       13.70683         7.63277         0.37417
|119>    H       11.38462         8.19984        -0.22186
|120>    H        4.62612         5.41660         3.88367
|121>    H        4.16041         7.60617         0.65729
|122>    H        3.03702         7.06707        -1.25846
|123>    H        4.02010         7.95527        -3.48044
|124>    H        4.19013        10.14503        -4.87181
|125>    H        4.13995        11.59777        -3.85954
|126>    H        2.69142        11.07409        -4.71018
|127>    H       -2.60040         7.86992         3.19578
|128>    H       -3.45910         7.08831         5.51281
|129>    H       -2.59600         6.67661         7.94287
|130>    H       -1.03897         7.42981         8.32740
|131>    H       -1.09124         5.76302         7.76668
|132>    H       -2.09580        10.14775         2.87632
|133>    H       -2.45835        12.07630        -1.39665
|134>    H       -5.58185        14.34970         0.54147
|135>    H       -3.67094        12.32448         4.33601
|136>    H       -4.27897        10.64164         5.78273
|137>    H       -2.27590         9.49168         6.94846
|138>    H       -1.38855        10.52844        10.15620
|139>    H       -0.35360        11.67914         9.31837
|140>    H       -0.44311        10.00238         8.75472
|141>    H       -9.79912        15.49281         6.71906
|142>    H      -11.28638        17.16357         5.43106
|143>    H      -11.23448        18.71503         3.34377
|144>    H      -10.19610        18.04906         2.07219
|145>    H       -9.61017        19.36835         3.07773
|146>    H       -8.24683        16.26551         8.10710
|147>    H       -6.68162        15.08153        11.50438
|148>    H      -12.02553        18.18393        10.43197
|149>    H       -9.95351        17.73123        14.94290
|150>    H      -11.84118        18.87198        15.92743
|151>    H      -14.02078        19.99550        15.69998
|152>    H      -15.06861        20.23800        13.48421
|153>    H      -13.94439        19.35788        11.47659
|154> *
|155> 
|156>                          ****END OF INPUT****
================================================================================

                       ****************************
                       * Single Point Calculation *
                       ****************************

---------------------------------
CARTESIAN COORDINATES (ANGSTROEM)
---------------------------------
  C      7.134990    5.115030    3.089300
  C      6.964270    4.048450    3.931420
  C      8.029020    3.289750    4.462550
  N      8.849580    2.639390    4.933240
  C      5.724160    3.517130    4.346470
  N      4.761350    3.006520    4.708800
  C      8.413870    5.583530    2.572210
  C      8.159340    6.551740    1.561120
  C      9.169150    7.172570    0.884120
  C     10.508040    6.855340    1.203690
  C     10.772080    5.892950    2.220840
  C      9.704510    5.259930    2.897960
  C     12.112230    5.589920    2.536530
  C     13.142780    6.207010    1.881200
  C     12.881520    7.154520    0.880140
  C     11.592240    7.470900    0.547880
  C      6.706710    6.743910    1.412160
  O      6.167780    7.435720    0.573190
  C      6.084790    5.926240    2.485890
  C      4.815970    5.992120    2.984270
  C      3.689170    6.738870    2.566560
  C      3.434400    7.475970    1.437410
  C      2.163450    8.083240    1.430110
  C      1.609720    8.893570    0.411370
  C      2.272180    9.043770   -0.861710
  C      2.950330    8.090640   -1.575040
  C      3.464980    8.568350   -2.793100
  C      3.194920    9.884680   -3.018400
  S      2.272650   10.562390   -1.718950
  C      3.578160   10.722290   -4.183170
  C      0.403170    9.513950    0.716000
  C     -0.300780    9.296070    1.927170
  C      0.182670    8.374600    2.881430
  C      1.435990    7.827210    2.623400
  S      2.314840    6.756310    3.670060
  C     -0.615450    7.988940    4.024490
  C     -1.966060    7.767330    4.058070
  C     -2.428350    7.320680    5.310390
  C     -1.441160    7.204250    6.242220
  S      0.097820    7.648900    5.577490
  C     -1.550260    6.745320    7.651910
  C     -1.456600   10.108710    2.013580
  C     -1.667670   10.870450    0.900180
  S     -0.445960   10.628620   -0.321040
  C     -2.728230   11.820110    0.682830
  C     -3.029490   12.358870   -0.526420
  C     -4.105680   13.291860   -0.658700
  C     -4.460440   13.841100   -1.877460
  C     -5.519910   14.754430   -1.996680
  N     -6.387290   15.502490   -2.087670
  C     -3.781820   13.511750   -3.061510
  N     -3.223090   13.238960   -4.027860
  C     -4.780850   13.627510    0.556320
  C     -4.406260   13.060350    1.731900
  O     -3.410580   12.138130    1.813170
  C     -4.982020   13.383610    3.009450
  C     -4.530510   12.958810    4.225720
  C     -5.266220   13.483390    5.313120
  C     -5.052820   13.244580    6.686560
  C     -4.041750   12.308170    7.127900
  C     -3.728050   11.089720    6.590620
  C     -2.654850   10.453440    7.241740
  C     -2.140730   11.178640    8.272700
  S     -2.995620   12.672070    8.473310
  C     -1.014780   10.826340    9.175870
  C     -5.850110   13.967660    7.565640
  C     -6.869700   14.860520    7.137040
  C     -7.130770   15.043300    5.757380
  C     -6.289840   14.363900    4.881740
  S     -6.348220   14.460310    3.140010
  C     -8.214650   15.882890    5.305220
  C     -9.460560   16.034030    5.854790
  C    -10.277210   16.930260    5.142320
  C     -9.667220   17.476320    4.053300
  S     -8.054310   16.872000    3.875740
  C    -10.210830   18.459090    3.081610
  C     -7.496950   15.506450    8.220030
  C     -7.034340   15.106340    9.450000
  S     -5.753760   13.905260    9.296710
  C     -7.352500   15.508330   10.767660
  C     -8.347340   16.307960   11.254490
  C     -8.479460   16.653280   12.664230
  C     -7.559140   16.441920   13.657740
  C     -7.753940   16.816060   15.004750
  N     -7.843830   17.086090   16.116980
  C     -6.281580   15.859820   13.511430
  N     -5.222330   15.414960   13.496080
  C     -9.754610   17.337010   12.841740
  C    -10.372600   17.474730   11.567930
  C     -9.518960   16.867190   10.533990
  O     -9.771180   16.824860    9.346720
  C    -11.581010   18.090540   11.411820
  C    -12.242820   18.605970   12.548170
  C    -11.635320   18.465710   13.829210
  C    -10.382380   17.823860   13.958130
  C    -12.305300   18.979850   14.958070
  C    -13.516010   19.604250   14.829430
  C    -14.112760   19.742670   13.567310
  C    -13.489700   19.254300   12.451020
  H      8.948600    7.901510    0.118360
  H      9.937150    4.540780    3.667140
  H     12.308590    4.858880    3.307030
  H     14.165750    5.968530    2.130920
  H     13.706830    7.632770    0.374170
  H     11.384620    8.199840   -0.221860
  H      4.626120    5.416600    3.883670
  H      4.160410    7.606170    0.657290
  H      3.037020    7.067070   -1.258460
  H      4.020100    7.955270   -3.480440
  H      4.190130   10.145030   -4.871810
  H      4.139950   11.597770   -3.859540
  H      2.691420   11.074090   -4.710180
  H     -2.600400    7.869920    3.195780
  H     -3.459100    7.088310    5.512810
  H     -2.596000    6.676610    7.942870
  H     -1.038970    7.429810    8.327400
  H     -1.091240    5.763020    7.766680
  H     -2.095800   10.147750    2.876320
  H     -2.458350   12.076300   -1.396650
  H     -5.581850   14.349700    0.541470
  H     -3.670940   12.324480    4.336010
  H     -4.278970   10.641640    5.782730
  H     -2.275900    9.491680    6.948460
  H     -1.388550   10.528440   10.156200
  H     -0.353600   11.679140    9.318370
  H     -0.443110   10.002380    8.754720
  H     -9.799120   15.492810    6.719060
  H    -11.286380   17.163570    5.431060
  H    -11.234480   18.715030    3.343770
  H    -10.196100   18.049060    2.072190
  H     -9.610170   19.368350    3.077730
  H     -8.246830   16.265510    8.107100
  H     -6.681620   15.081530   11.504380
  H    -12.025530   18.183930   10.431970
  H     -9.953510   17.731230   14.942900
  H    -11.841180   18.871980   15.927430
  H    -14.020780   19.995500   15.699980
  H    -15.068610   20.238000   13.484210
  H    -13.944390   19.357880   11.476590

----------------------------
CARTESIAN COORDINATES (A.U.)
----------------------------
  NO LB      ZA    FRAG     MASS         X           Y           Z
   0 C     6.0000    0    12.011   13.483177    9.666006    5.837931
   1 C     6.0000    0    12.011   13.160563    7.650462    7.429307
   2 C     6.0000    0    12.011   15.172649    6.216727    8.432997
   3 N     7.0000    0    14.007   16.723283    4.987724    9.322473
   4 C     6.0000    0    12.011   10.817095    6.646412    8.213638
   5 N     7.0000    0    14.007    8.997648    5.681499    8.898342
   6 C     6.0000    0    12.011   15.899910   10.551343    4.860772
   7 C     6.0000    0    12.011   15.418918   12.380994    2.950089
   8 C     6.0000    0    12.011   17.327182   13.554193    1.670745
   9 C     6.0000    0    12.011   19.857318   12.954715    2.274644
  10 C     6.0000    0    12.011   20.356281   11.136062    4.196779
  11 C     6.0000    0    12.011   18.338866    9.939827    5.476351
  12 C     6.0000    0    12.011   22.888798   10.563418    4.793347
  13 C     6.0000    0    12.011   24.836255   11.729549    3.554953
  14 C     6.0000    0    12.011   24.342545   13.520083    1.663224
  15 C     6.0000    0    12.011   21.906159   14.117955    1.035343
  16 C     6.0000    0    12.011   12.673845   12.744143    2.668596
  17 O     8.0000    0    15.999   11.655415   14.051474    1.083172
  18 C     6.0000    0    12.011   11.498587   11.198971    4.697651
  19 C     6.0000    0    12.011    9.100864   11.323466    5.639453
  20 C     6.0000    0    12.011    6.971521   12.734619    4.850096
  21 C     6.0000    0    12.011    6.490075   14.127536    2.716311
  22 C     6.0000    0    12.011    4.088328   15.275110    2.702516
  23 C     6.0000    0    12.011    3.041930   16.806412    0.777377
  24 C     6.0000    0    12.011    4.293798   17.090249   -1.628396
  25 C     6.0000    0    12.011    5.575316   15.289094   -2.976394
  26 C     6.0000    0    12.011    6.547863   16.191835   -5.278194
  27 C     6.0000    0    12.011    6.037524   18.679338   -5.703949
  28 S    16.0000    0    32.060    4.294686   19.960024   -3.248345
  29 C     6.0000    0    12.011    6.761742   20.262192   -7.905046
  30 C     6.0000    0    12.011    0.761881   17.978760    1.353044
  31 C     6.0000    0    12.011   -0.568392   17.567026    3.641824
  32 C     6.0000    0    12.011    0.345196   15.825700    5.445114
  33 C     6.0000    0    12.011    2.713628   14.791283    4.957508
  34 S    16.0000    0    32.060    4.374414   12.767576    6.935408
  35 C     6.0000    0    12.011   -1.163032   15.096909    7.605184
  36 C     6.0000    0    12.011   -3.715315   14.678126    7.668641
  37 C     6.0000    0    12.011   -4.588916   13.834080   10.035183
  38 C     6.0000    0    12.011   -2.723398   13.614060   11.796086
  39 S    16.0000    0    32.060    0.184853   14.454326   10.539929
  40 C     6.0000    0    12.011   -2.929567   12.746807   14.460014
  41 C     6.0000    0    12.011   -2.752575   19.102693    3.805115
  42 C     6.0000    0    12.011   -3.151440   20.542173    1.701094
  43 S    16.0000    0    32.060   -0.842742   20.085181   -0.606678
  44 C     6.0000    0    12.011   -5.155608   22.336771    1.290362
  45 C     6.0000    0    12.011   -5.724906   23.354880   -0.994790
  46 C     6.0000    0    12.011   -7.758611   25.117975   -1.244763
  47 C     6.0000    0    12.011   -8.429010   26.155888   -3.547885
  48 C     6.0000    0    12.011  -10.431118   27.881832   -3.773178
  49 N     7.0000    0    14.007  -12.070229   29.295460   -3.945125
  50 C     6.0000    0    12.011   -7.146604   25.533507   -5.785415
  51 N     7.0000    0    14.007   -6.090757   25.018009   -7.611552
  52 C     6.0000    0    12.011   -9.034497   25.752262    1.051292
  53 C     6.0000    0    12.011   -8.326625   24.680485    3.272817
  54 O     8.0000    0    15.999   -6.445062   22.937741    3.426395
  55 C     6.0000    0    12.011   -9.414653   25.291358    5.687036
  56 C     6.0000    0    12.011   -8.561423   24.488602    7.985454
  57 C     6.0000    0    12.011   -9.951714   25.479914   10.040342
  58 C     6.0000    0    12.011   -9.548446   25.028629   12.635767
  59 C     6.0000    0    12.011   -7.637801   23.259071   13.469779
  60 C     6.0000    0    12.011   -7.044994   20.956534   12.454467
  61 C     6.0000    0    12.011   -5.016939   19.754139   13.684905
  62 C     6.0000    0    12.011   -4.045393   21.124568   15.633137
  63 S    16.0000    0    32.060   -5.660901   23.946742   16.012235
  64 C     6.0000    0    12.011   -1.917656   20.458818   17.339881
  65 C     6.0000    0    12.011  -11.055106   26.395052   14.296988
  66 C     6.0000    0    12.011  -12.981852   28.082313   13.487051
  67 C     6.0000    0    12.011  -13.475202   28.427717   10.879871
  68 C     6.0000    0    12.011  -11.886075   27.143837    9.225152
  69 S    16.0000    0    32.060  -11.996397   27.326026    5.933759
  70 C     6.0000    0    12.011  -15.523439   30.014312   10.025413
  71 C     6.0000    0    12.011  -17.877867   30.299926   11.063950
  72 C     6.0000    0    12.011  -19.421112   31.993555    9.717576
  73 C     6.0000    0    12.011  -18.268398   33.025459    7.659627
  74 S    16.0000    0    32.060  -15.220440   31.883459    7.324087
  75 C     6.0000    0    12.011  -19.295672   34.882625    5.823399
  76 C     6.0000    0    12.011  -14.167182   29.302944   15.533606
  77 C     6.0000    0    12.011  -13.292976   28.546845   17.857912
  78 S    16.0000    0    32.060  -10.873031   26.277133   17.568236
  79 C     6.0000    0    12.011  -13.894211   29.306496   20.347929
  80 C     6.0000    0    12.011  -15.774187   30.817578   21.267904
  81 C     6.0000    0    12.011  -16.023857   31.470138   23.931926
  82 C     6.0000    0    12.011  -14.284704   31.070726   25.809388
  83 C     6.0000    0    12.011  -14.652823   31.777748   28.354868
  84 N     7.0000    0    14.007  -14.822691   32.288031   30.456678
  85 C     6.0000    0    12.011  -11.870466   29.970716   25.532902
  86 N     7.0000    0    14.007   -9.868773   29.130053   25.503895
  87 C     6.0000    0    12.011  -18.433541   32.762201   24.267372
  88 C     6.0000    0    12.011  -19.601373   33.022454   21.860220
  89 C     6.0000    0    12.011  -17.988227   31.874370   19.906356
  90 O     8.0000    0    15.999  -18.464854   31.794378   17.662741
  91 C     6.0000    0    12.011  -21.884937   34.186166   21.565214
  92 C     6.0000    0    12.011  -23.135577   35.160188   23.712605
  93 C     6.0000    0    12.011  -21.987568   34.895135   26.133420
  94 C     6.0000    0    12.011  -19.619855   33.682214   26.377043
  95 C     6.0000    0    12.011  -23.253647   35.866719   28.266656
  96 C     6.0000    0    12.011  -25.541557   37.046664   28.023561
  97 C     6.0000    0    12.011  -26.669251   37.308239   25.638500
  98 C     6.0000    0    12.011  -25.491839   36.385354   23.529018
  99 H     1.0000    0     1.008   16.910403   14.931690    0.223668
 100 H     1.0000    0     1.008   18.778492    8.580831    6.929890
 101 H     1.0000    0     1.008   23.259864    9.181953    6.249381
 102 H     1.0000    0     1.008   26.769388   11.278887    4.026855
 103 H     1.0000    0     1.008   25.902155   14.423845    0.707079
 104 H     1.0000    0     1.008   21.513814   15.495452   -0.419255
 105 H     1.0000    0     1.008    8.742100   10.235891    7.339073
 106 H     1.0000    0     1.008    7.862036   14.373578    1.242098
 107 H     1.0000    0     1.008    5.739136   13.354827   -2.378145
 108 H     1.0000    0     1.008    7.596888   15.033282   -6.577078
 109 H     1.0000    0     1.008    7.918198   19.171328   -9.206387
 110 H     1.0000    0     1.008    7.823372   21.916609   -7.293474
 111 H     1.0000    0     1.008    5.086047   20.926997   -8.900950
 112 H     1.0000    0     1.008   -4.914044   14.871993    6.039149
 113 H     1.0000    0     1.008   -6.536752   13.394965   10.417701
 114 H     1.0000    0     1.008   -4.905729   12.616964   15.009849
 115 H     1.0000    0     1.008   -1.963369   14.040306   15.736505
 116 H     1.0000    0     1.008   -2.062145   10.890530   14.676898
 117 H     1.0000    0     1.008   -3.960488   19.176468    5.435457
 118 H     1.0000    0     1.008   -4.645608   22.820900   -2.639286
 119 H     1.0000    0     1.008  -10.548168   27.117003    1.023230
 120 H     1.0000    0     1.008   -6.937071   23.289892    8.193871
 121 H     1.0000    0     1.008   -8.086081   20.109785   10.927776
 122 H     1.0000    0     1.008   -4.300828   17.936676   13.130686
 123 H     1.0000    0     1.008   -2.623979   19.895868   19.192437
 124 H     1.0000    0     1.008   -0.668207   22.070376   17.609167
 125 H     1.0000    0     1.008   -0.837357   18.901759   16.544023
 126 H     1.0000    0     1.008  -18.517653   29.277168   12.697183
 127 H     1.0000    0     1.008  -21.328167   32.434447   10.263216
 128 H     1.0000    0     1.008  -21.230090   35.366281    6.318810
 129 H     1.0000    0     1.008  -19.267837   34.107780    3.915872
 130 H     1.0000    0     1.008  -18.160589   36.600877    5.816067
 131 H     1.0000    0     1.008  -15.584250   30.737359   15.320199
 132 H     1.0000    0     1.008  -12.626432   28.499961   21.740128
 133 H     1.0000    0     1.008  -22.724958   34.362648   19.713566
 134 H     1.0000    0     1.008  -18.809408   33.507169   28.237989
 135 H     1.0000    0     1.008  -22.376587   35.662874   30.098481
 136 H     1.0000    0     1.008  -26.495434   37.786019   29.668663
 137 H     1.0000    0     1.008  -28.475546   38.244277   25.481464
 138 H     1.0000    0     1.008  -26.351078   36.581092   21.687612

--------------------------------
INTERNAL COORDINATES (ANGSTROEM)
--------------------------------
 C      0   0   0     0.000000000000     0.00000000     0.00000000
 C      1   0   0     1.369636560990     0.00000000     0.00000000
 C      2   1   0     1.411175867637   123.78245888     0.00000000
 N      3   2   1     1.147970347744   176.58831820   173.29448764
 C      2   1   3     1.411538259134   125.69167285   182.77900142
 N      5   2   1     1.148481039069   175.29955588   161.81973828
 C      1   2   3     1.456848781617   125.31565132     2.97229804
 C      7   1   2     1.422855970610   108.30136903   170.02520589
 C      8   7   1     1.365091617804   121.97556327   180.18366452
 C      9   8   7     1.412581427706   119.13155223   359.39242965
 C     10   9   8     1.424958159456   119.26107205     0.19893100
 C      7   1   2     1.369883802408   131.81221449   349.57008499
 C     11  10   9     1.409783451279   118.76107571   180.35601006
 C     13  11  10     1.368316768698   120.78158686     0.04173302
 C     14  13  11     1.402908803629   120.40303582   359.96926845
 C     15  14  13     1.368479422717   120.32089443   359.95443138
 C      8   7   1     1.472838180996   109.69946667     0.68056820
 O     17   8   7     1.213638035783   125.60960282   185.18892518
 C      1   2   3     1.457767242121   126.73038264   178.82315442
 C     19   1   2     1.364780931578   123.05676266    20.53709565
 C     20  19   1     1.414848206204   131.15357551   178.02613195
 C     21  20  19     1.372298759527   132.39759206    11.08420361
 C     22  21  20     1.408596480686   113.78711532   180.71330551
 C     23  22  21     1.414596341505   127.14830919   180.34704676
 C     24  23  22     1.442964302400   121.01713462     8.29211714
 C     25  24  23     1.370103612250   127.89136683    37.88700614
 C     26  25  24     1.405966439927   113.32013874   179.23599765
 C     27  26  25     1.362504004581   113.51333707     0.38932457
 S     28  27  26     1.731601310781   111.07518874   359.39417418
 C     28  27  26     1.484975610103   128.57136916   179.81624931
 C     24  23  22     1.390479659614   115.94216157   187.89398102
 C     31  24  23     1.417727077332   123.32925603   355.75380585
 C     32  31  24     1.411893413470   120.50954117   357.53904128
 C     33  32  31     1.391770927775   116.08697018     6.80459770
 S     34  33  32     1.736289517362   125.91848994   175.71424943
 C     33  32  31     1.446483782695   121.27687069   189.38951924
 C     36  33  32     1.369082167220   127.36282677    38.63329644
 C     37  36  33     1.407662476945   113.40074093   176.17470839
 C     38  37  36     1.362500344917   113.42860452     0.32066957
 S     39  38  37     1.734369924728   111.03188861   359.92451835
 C     39  38  37     1.486521258173   128.44543759   181.06587310
 C     32  31  24     1.415545947718   111.67571234   176.59871270
 C     42  32  31     1.365451548939   113.37220567     2.67303831
 S     31  24  23     1.743262151083   125.28301283   176.48770774
 C     43  42  32     1.440098139607   127.21352618   181.57561534
 C     45  43  42     1.357683868837   124.02265225   192.84387622
 C     46  45  43     1.430438133790   120.53934181   179.65169941
 C     47  46  45     1.383074536242   122.24102323   181.35195768
 C     48  47  46     1.403873846968   121.78699397   179.89470939
 N     49  48  47     1.149008706712   179.67023306    11.14718681
 C     48  47  46     1.403912721432   121.73873654     0.06157979
 N     51  48  47     1.149097872028   179.73187620   359.01723693
 C     47  46  45     1.429961206397   115.45185908     1.93119498
 C     53  47  46     1.357930951890   120.48431109   359.06900864
 O     45  43  42     1.358089377950   113.50441949    13.00903150
 C     54  53  47     1.438099651519   124.38428359   176.87285467
 C     56  54  53     1.365147989414   126.09429682   188.33828082
 C     57  56  54     1.413821820634   113.43313861   177.53074911
 C     58  57  56     1.410286215525   127.40580581   180.22315670
 C     59  58  57     1.447033941758   120.81955318   355.79426446
 C     60  59  58     1.368100102661   128.08088506   319.35970698
 C     61  60  59     1.407326448554   113.31735487   177.93842317
 C     62  61  60     1.361290907925   113.42456473   359.80342679
 S     63  62  61     1.732459075736   111.13465658     0.68135956
 C     63  62  61     1.485797678488   128.33432689   180.00090252
 C     59  58  57     1.389711364601   116.17523939   174.97574246
 C     66  59  58     1.421429107518   123.20350386     2.65416754
 C     67  66  59     1.415990038418   120.47245578     0.69662630
 C     68  67  66     1.391219980629   116.02564221   356.53000374
 S     56  54  53     1.744371303249   121.25187508     5.68905522
 C     68  67  66     1.443660586184   121.24262068   176.19656175
 C     71  68  67     1.370095694687   128.40805017   322.44792258
 C     72  71  68     1.406328175178   113.27532286   180.64218675
 C     73  72  71     1.362436744990   113.60192760   359.62867360
 S     74  73  72     1.731533679748   111.04690516     0.59823253
 C     74  73  72     1.485102744291   128.63306883   180.49307136
 C     67  66  59     1.408380441323   112.06680165   182.27064943
 C     77  67  66     1.373652876494   113.88810080   357.65923671
 S     66  59  58     1.734871876364   125.49275671   182.26894936
 C     78  77  67     1.413877512835   132.52170492   178.20135054
 C     80  78  77     1.366059373307   131.48521567     9.61189849
 C     81  80  78     1.457418424613   123.32788245   182.62531797
 C     82  81  80     1.370665558078   127.13679506    11.53755391
 C     83  82  81     1.411511147565   123.92984987   179.41083379
 N     84  83  82     1.148064451980   176.08515879   175.81943283
 C     83  82  81     1.411526329793   126.59637628     0.94454190
 N     86  83  82     1.148976328999   174.54086152   171.57582979
 C     82  81  80     1.457739357876   107.95190316   188.73586256
 C     88  82  81     1.422487382932   108.44497775   357.21771154
 C     89  88  82     1.472018350701   109.69938026     0.71099817
 O     90  89  88     1.214502700779   125.49270007   180.05890646
 C     89  88  82     1.365227825786   122.04647875   180.61326984
 C     92  89  88     1.412427656023   119.16652637   359.87061783
 C     93  92  89     1.424707899606   119.18850505   359.75631709
 C     88  82  81     1.370198791234   131.80839518   177.40122217
 C     94  93  92     1.409800709178   118.77917893   180.18557351
 C     96  94  93     1.368299058576   120.77297779   359.91454298
 C     97  96  94     1.402931770722   120.39591845     0.03811877
 C     98  97  96     1.368507356429   120.32858179     0.00000000
 H      9   8   7     1.079992686873   120.49979871   179.77744412
 H     12   7   1     1.078395087387   122.03178266   359.69230451
 H     13  11  10     1.080114337096   118.55719021   180.08925922
 H     14  13  11     1.079676067022   120.21248393   179.95053674
 H     15  14  13     1.079752425096   119.41799055   179.91665950
 H     16  15  14     1.080258883602   120.66910237   179.98363548
 H     20  19   1     1.084521393473   116.10190598     1.31785921
 H     22  21  20     1.073605967988   122.51242601   358.19399255
 H     26  25  24     1.074910971848   123.29956003     2.18246103
 H     27  26  25     1.075389034908   123.29720675   180.27158693
 H     30  28  27     1.087180499319   110.03588435   356.87062578
 H     30  28  27     1.089407917816   110.69336736   236.40066459
 H     30  28  27     1.089867243154   110.57173678   117.14826007
 H     37  36  33     1.075386436496   123.14802489   359.53620367
 H     38  37  36     1.075832345582   123.40612732   180.62941123
 H     41  39  38     1.087635478136   110.10603939   349.02381413
 H     41  39  38     1.089142214910   111.07989853   228.21411005
 H     41  39  38     1.090314084702   110.30804084   108.92398665
 H     42  32  31     1.074439886266   123.75442370   184.19655415
 H     46  45  43     1.078585628219   119.81211557     0.11921507
 H     53  47  46     1.078600907936   119.74263962   177.97031690
 H     57  56  54     1.073964160436   122.68389168     0.20860053
 H     61  60  59     1.075627623716   123.26642662   355.05002070
 H     62  61  60     1.074522479290   123.18415671   180.14960047
 H     65  63  62     1.090639872644   110.57581158   255.18190553
 H     65  63  62     1.088454446635   110.74046284   135.84494715
 H     65  63  62     1.087696645669   110.03188832    15.32040996
 H     72  71  68     1.074478754978   123.61509598   358.17585681
 H     73  72  71     1.075280629696   123.17717283   179.74322200
 H     76  74  73     1.087240760687   110.03816634   359.49533874
 H     76  74  73     1.089619341880   110.61973786   239.06436727
 H     76  74  73     1.089752833261   110.65371880   119.85053703
 H     77  67  66     1.072960988527   123.69606710   175.82249366
 H     80  78  77     1.083971666050   112.46876968   188.62390567
 H     92  89  88     1.080011918916   120.46803438   179.79675003
 H     95  88  82     1.078091715347   122.10351563   359.16099352
 H     96  94  93     1.080139861731   118.55359910   180.03211478
 H     97  96  94     1.079688204020   120.21388404   180.05779933
 H     98  97  96     1.079771569083   119.40893192   179.98724632
 H     99  98  97     1.080271094402   120.65927418   179.99540843

---------------------------
INTERNAL COORDINATES (A.U.)
---------------------------
 C      0   0   0     0.000000000000     0.00000000     0.00000000
 C      1   0   0     2.588238003276     0.00000000     0.00000000
 C      2   1   0     2.666735916632   123.78245888     0.00000000
 N      3   2   1     2.169349567099   176.58831820   173.29448764
 C      2   1   3     2.667420737316   125.69167285   182.77900142
 N      5   2   1     2.170314633841   175.29955588   161.81973828
 C      1   2   3     2.753045215794   125.31565132     2.97229804
 C      7   1   2     2.688808112467   108.30136903   170.02520589
 C      8   7   1     2.579649305362   121.97556327   180.18366452
 C      9   8   7     2.669392040228   119.13155223   359.39242965
 C     10   9   8     2.692780673668   119.26107205     0.19893100
 C      7   1   2     2.588705221846   131.81221449   349.57008499
 C     11  10   9     2.664104631052   118.76107571   180.35601006
 C     13  11  10     2.585743957291   120.78158686     0.04173302
 C     14  13  11     2.651113429726   120.40303582   359.96926845
 C     15  14  13     2.586051328842   120.32089443   359.95443138
 C      8   7   1     2.783260801665   109.69946667     0.68056820
 O     17   8   7     2.293443513341   125.60960282   185.18892518
 C      1   2   3     2.754780854610   126.73038264   178.82315442
 C     19   1   2     2.579062193481   123.05676266    20.53709565
 C     20  19   1     2.673675630796   131.15357551   178.02613195
 C     21  20  19     2.593268829426   132.39759206    11.08420361
 C     22  21  20     2.661861581701   113.78711532   180.71330551
 C     23  22  21     2.673199675492   127.14830919   180.34704676
 C     24  23  22     2.726807352560   121.01713462     8.29211714
 C     25  24  23     2.589120602248   127.89136683    37.88700614
 C     26  25  24     2.656891524946   113.32013874   179.23599765
 C     27  26  25     2.574759425030   113.51333707     0.38932457
 S     28  27  26     3.272252250516   111.07518874   359.39417418
 C     28  27  26     2.806197218647   128.57136916   179.81624931
 C     24  23  22     2.627625751458   115.94216157   187.89398102
 C     31  24  23     2.679115908802   123.32925603   355.75380585
 C     32  31  24     2.668091881746   120.50954117   357.53904128
 C     33  32  31     2.630065894648   116.08697018     6.80459770
 S     34  33  32     3.281111677012   125.91848994   175.71424943
 C     33  32  31     2.733458206452   121.27687069   189.38951924
 C     36  33  32     2.587190350881   127.36282677    38.63329644
 C     37  36  33     2.660096570424   113.40074093   176.17470839
 C     38  37  36     2.574752509267   113.42860452     0.32066957
 S     39  38  37     3.277484172645   111.03188861   359.92451835
 C     39  38  37     2.809118070199   128.44543759   181.06587310
 C     32  31  24     2.674994171168   111.67571234   176.59871270
 C     42  32  31     2.580329476633   113.37220567     2.67303831
 S     31  24  23     3.294288045178   125.28301283   176.48770774
 C     43  42  32     2.721391089827   127.21352618   181.57561534
 C     45  43  42     2.565650688544   124.02265225   192.84387622
 C     46  45  43     2.703136324380   120.53934181   179.65169941
 C     47  46  45     2.613632096297   122.24102323   181.35195768
 C     48  47  46     2.652937097343   121.78699397   179.89470939
 N     49  48  47     2.171311781177   179.67023306    11.14718681
 C     48  47  46     2.653010559435   121.73873654     0.06157979
 N     51  48  47     2.171480279205   179.73187620   359.01723693
 C     47  46  45     2.702235062222   115.45185908     1.93119498
 C     53  47  46     2.566117607846   120.48431109   359.06900864
 O     45  43  42     2.566416989713   113.50441949    13.00903150
 C     54  53  47     2.717614494659   124.38428359   176.87285467
 C     56  54  53     2.579755832265   126.09429682   188.33828082
 C     57  56  54     2.671736043160   113.43313861   177.53074911
 C     58  57  56     2.665054717787   127.40580581   180.22315670
 C     59  58  57     2.734497856411   120.81955318   355.79426446
 C     60  59  58     2.585334517818   128.08088506   319.35970698
 C     61  60  59     2.659461568791   113.31735487   177.93842317
 C     62  61  60     2.572467004576   113.42456473   359.80342679
 S     63  62  61     3.273873191367   111.13465658     0.68135956
 C     63  62  61     2.807750702758   128.33432689   180.00090252
 C     59  58  57     2.626173884293   116.17523939   174.97574246
 C     66  59  58     2.686111731994   123.20350386     2.65416754
 C     67  66  59     2.675833380971   120.47245578     0.69662630
 C     68  67  66     2.629024755427   116.02564221   356.53000374
 S     56  54  53     3.296384039013   121.25187508     5.68905522
 C     68  67  66     2.728123138223   121.24262068   176.19656175
 C     71  68  67     2.589105640223   128.40805017   322.44792258
 C     72  71  68     2.657575105504   113.27532286   180.64218675
 C     73  72  71     2.574632322823   113.60192760   359.62867360
 S     74  73  72     3.272124446384   111.04690516     0.59823253
 C     74  73  72     2.806437467444   128.63306883   180.49307136
 C     67  66  59     2.661453326471   112.06680165   182.27064943
 C     77  67  66     2.595827739647   113.88810080   357.65923671
 S     66  59  58     3.278432723771   125.49275671   182.26894936
 C     78  77  67     2.671841286168   132.52170492   178.20135054
 C     80  78  77     2.581478098226   131.48521567     9.61189849
 C     81  80  78     2.754121685049   123.32788245   182.62531797
 C     82  81  80     2.590182525965   127.13679506    11.53755391
 C     83  82  81     2.667369503875   123.92984987   179.41083379
 N     84  83  82     2.169527398332   176.08515879   175.81943283
 C     83  82  81     2.667398194129   126.59637628     0.94454190
 N     86  83  82     2.171250596166   174.54086152   171.57582979
 C     82  81  80     2.754728161023   107.95190316   188.73586256
 C     88  82  81     2.688111582699   108.44497775   357.21771154
 C     89  88  82     2.781711546931   109.69938026     0.71099817
 O     90  89  88     2.295077493380   125.49270007   180.05890646
 C     89  88  82     2.579906701144   122.04647875   180.61326984
 C     92  89  88     2.669101453861   119.16652637   359.87061783
 C     93  92  89     2.692307751090   119.18850505   359.75631709
 C     88  82  81     2.589300464463   131.80839518   177.40122217
 C     94  93  92     2.664137243755   118.77917893   180.18557351
 C     96  94  93     2.585710490011   120.77297779   359.91454298
 C     97  96  94     2.651156831241   120.39591845     0.03811877
 C     98  97  96     2.586104115907   120.32858179     0.00000000
 H      9   8   7     2.040890404828   120.49979871   179.77744412
 H     12   7   1     2.037871379327   122.03178266   359.69230451
 H     13  11  10     2.041120290433   118.55719021   180.08925922
 H     14  13  11     2.040292080021   120.21248393   179.95053674
 H     15  14  13     2.040436375868   119.41799055   179.91665950
 H     16  15  14     2.041393443742   120.66910237   179.98363548
 H     20  19   1     2.049448420042   116.10190598     1.31785921
 H     22  21  20     2.028821255241   122.51242601   358.19399255
 H     26  25  24     2.031287355141   123.29956003     2.18246103
 H     27  26  25     2.032190763398   123.29720675   180.27158693
 H     30  28  27     2.054473401853   110.03588435   356.87062578
 H     30  28  27     2.058682612797   110.69336736   236.40066459
 H     30  28  27     2.059550611893   110.57173678   117.14826007
 H     37  36  33     2.032185853111   123.14802489   359.53620367
 H     38  37  36     2.033028499164   123.40612732   180.62941123
 H     41  39  38     2.055333187213   110.10603939   349.02381413
 H     41  39  38     2.058180507073   111.07989853   228.21411005
 H     41  39  38     2.060395020044   110.30804084   108.92398665
 H     42  32  31     2.030397132405   123.75442370   184.19655415
 H     46  45  43     2.038231449317   119.81211557     0.11921507
 H     53  47  46     2.038260323798   119.74263962   177.97031690
 H     57  56  54     2.029498140870   122.68389168     0.20860053
 H     61  60  59     2.032641630903   123.26642662   355.05002070
 H     62  61  60     2.030553210601   123.18415671   180.14960047
 H     65  63  62     2.061010670031   110.57581158   255.18190553
 H     65  63  62     2.056880813389   110.74046284   135.84494715
 H     65  63  62     2.055448777100   110.03188832    15.32040996
 H     72  71  68     2.030470583626   123.61509598   358.17585681
 H     73  72  71     2.031985907236   123.17717283   179.74322200
 H     76  74  73     2.054587279335   110.03816634   359.49533874
 H     76  74  73     2.059082146378   110.61973786   239.06436727
 H     76  74  73     2.059334408528   110.65371880   119.85053703
 H     77  67  66     2.027602420697   123.69606710   175.82249366
 H     80  78  77     2.048409585766   112.46876968   188.62390567
 H     92  89  88     2.040926748121   120.46803438   179.79675003
 H     95  88  82     2.037298089255   122.10351563   359.16099352
 H     96  94  93     2.041168525003   118.55359910   180.03211478
 H     97  96  94     2.040315015623   120.21388404   180.05779933
 H     98  97  96     2.040472552761   119.40893192   179.98724632
 H     99  98  97     2.041416518811   120.65927418   179.99540843

---------------------
BASIS SET INFORMATION
---------------------
There are 5 groups of distinct atoms

 Group   1 Type C   : 7s4p1d contracted to 3s2p1d pattern {511/31/1}
 Group   2 Type N   : 7s4p1d contracted to 3s2p1d pattern {511/31/1}
 Group   3 Type O   : 7s4p1d contracted to 3s2p1d pattern {511/31/1}
 Group   4 Type S   : 10s7p1d contracted to 4s3p1d pattern {5311/511/1}
 Group   5 Type H   : 4s1p contracted to 2s1p pattern {31/1}

Atom   0C    basis set group =>   1
Atom   1C    basis set group =>   1
Atom   2C    basis set group =>   1
Atom   3N    basis set group =>   2
Atom   4C    basis set group =>   1
Atom   5N    basis set group =>   2
Atom   6C    basis set group =>   1
Atom   7C    basis set group =>   1
Atom   8C    basis set group =>   1
Atom   9C    basis set group =>   1
Atom  10C    basis set group =>   1
Atom  11C    basis set group =>   1
Atom  12C    basis set group =>   1
Atom  13C    basis set group =>   1
Atom  14C    basis set group =>   1
Atom  15C    basis set group =>   1
Atom  16C    basis set group =>   1
Atom  17O    basis set group =>   3
Atom  18C    basis set group =>   1
Atom  19C    basis set group =>   1
Atom  20C    basis set group =>   1
Atom  21C    basis set group =>   1
Atom  22C    basis set group =>   1
Atom  23C    basis set group =>   1
Atom  24C    basis set group =>   1
Atom  25C    basis set group =>   1
Atom  26C    basis set group =>   1
Atom  27C    basis set group =>   1
Atom  28S    basis set group =>   4
Atom  29C    basis set group =>   1
Atom  30C    basis set group =>   1
Atom  31C    basis set group =>   1
Atom  32C    basis set group =>   1
Atom  33C    basis set group =>   1
Atom  34S    basis set group =>   4
Atom  35C    basis set group =>   1
Atom  36C    basis set group =>   1
Atom  37C    basis set group =>   1
Atom  38C    basis set group =>   1
Atom  39S    basis set group =>   4
Atom  40C    basis set group =>   1
Atom  41C    basis set group =>   1
Atom  42C    basis set group =>   1
Atom  43S    basis set group =>   4
Atom  44C    basis set group =>   1
Atom  45C    basis set group =>   1
Atom  46C    basis set group =>   1
Atom  47C    basis set group =>   1
Atom  48C    basis set group =>   1
Atom  49N    basis set group =>   2
Atom  50C    basis set group =>   1
Atom  51N    basis set group =>   2
Atom  52C    basis set group =>   1
Atom  53C    basis set group =>   1
Atom  54O    basis set group =>   3
Atom  55C    basis set group =>   1
Atom  56C    basis set group =>   1
Atom  57C    basis set group =>   1
Atom  58C    basis set group =>   1
Atom  59C    basis set group =>   1
Atom  60C    basis set group =>   1
Atom  61C    basis set group =>   1
Atom  62C    basis set group =>   1
Atom  63S    basis set group =>   4
Atom  64C    basis set group =>   1
Atom  65C    basis set group =>   1
Atom  66C    basis set group =>   1
Atom  67C    basis set group =>   1
Atom  68C    basis set group =>   1
Atom  69S    basis set group =>   4
Atom  70C    basis set group =>   1
Atom  71C    basis set group =>   1
Atom  72C    basis set group =>   1
Atom  73C    basis set group =>   1
Atom  74S    basis set group =>   4
Atom  75C    basis set group =>   1
Atom  76C    basis set group =>   1
Atom  77C    basis set group =>   1
Atom  78S    basis set group =>   4
Atom  79C    basis set group =>   1
Atom  80C    basis set group =>   1
Atom  81C    basis set group =>   1
Atom  82C    basis set group =>   1
Atom  83C    basis set group =>   1
Atom  84N    basis set group =>   2
Atom  85C    basis set group =>   1
Atom  86N    basis set group =>   2
Atom  87C    basis set group =>   1
Atom  88C    basis set group =>   1
Atom  89C    basis set group =>   1
Atom  90O    basis set group =>   3
Atom  91C    basis set group =>   1
Atom  92C    basis set group =>   1
Atom  93C    basis set group =>   1
Atom  94C    basis set group =>   1
Atom  95C    basis set group =>   1
Atom  96C    basis set group =>   1
Atom  97C    basis set group =>   1
Atom  98C    basis set group =>   1
Atom  99H    basis set group =>   5
Atom 100H    basis set group =>   5
Atom 101H    basis set group =>   5
Atom 102H    basis set group =>   5
Atom 103H    basis set group =>   5
Atom 104H    basis set group =>   5
Atom 105H    basis set group =>   5
Atom 106H    basis set group =>   5
Atom 107H    basis set group =>   5
Atom 108H    basis set group =>   5
Atom 109H    basis set group =>   5
Atom 110H    basis set group =>   5
Atom 111H    basis set group =>   5
Atom 112H    basis set group =>   5
Atom 113H    basis set group =>   5
Atom 114H    basis set group =>   5
Atom 115H    basis set group =>   5
Atom 116H    basis set group =>   5
Atom 117H    basis set group =>   5
Atom 118H    basis set group =>   5
Atom 119H    basis set group =>   5
Atom 120H    basis set group =>   5
Atom 121H    basis set group =>   5
Atom 122H    basis set group =>   5
Atom 123H    basis set group =>   5
Atom 124H    basis set group =>   5
Atom 125H    basis set group =>   5
Atom 126H    basis set group =>   5
Atom 127H    basis set group =>   5
Atom 128H    basis set group =>   5
Atom 129H    basis set group =>   5
Atom 130H    basis set group =>   5
Atom 131H    basis set group =>   5
Atom 132H    basis set group =>   5
Atom 133H    basis set group =>   5
Atom 134H    basis set group =>   5
Atom 135H    basis set group =>   5
Atom 136H    basis set group =>   5
Atom 137H    basis set group =>   5
Atom 138H    basis set group =>   5
---------------------------------
AUXILIARY/J BASIS SET INFORMATION
---------------------------------
There are 5 groups of distinct atoms

 Group   1 Type C   : 12s5p4d2f1g contracted to 6s4p3d1f1g pattern {711111/2111/211/2/1}
 Group   2 Type N   : 12s5p4d2f1g contracted to 6s4p3d1f1g pattern {711111/2111/211/2/1}
 Group   3 Type O   : 12s5p4d2f1g contracted to 6s4p3d1f1g pattern {711111/2111/211/2/1}
 Group   4 Type S   : 14s5p5d2f1g contracted to 8s4p3d1f1g pattern {71111111/2111/311/2/1}
 Group   5 Type H   : 5s2p1d contracted to 3s1p1d pattern {311/2/1}

Atom   0C    basis set group =>   1
Atom   1C    basis set group =>   1
Atom   2C    basis set group =>   1
Atom   3N    basis set group =>   2
Atom   4C    basis set group =>   1
Atom   5N    basis set group =>   2
Atom   6C    basis set group =>   1
Atom   7C    basis set group =>   1
Atom   8C    basis set group =>   1
Atom   9C    basis set group =>   1
Atom  10C    basis set group =>   1
Atom  11C    basis set group =>   1
Atom  12C    basis set group =>   1
Atom  13C    basis set group =>   1
Atom  14C    basis set group =>   1
Atom  15C    basis set group =>   1
Atom  16C    basis set group =>   1
Atom  17O    basis set group =>   3
Atom  18C    basis set group =>   1
Atom  19C    basis set group =>   1
Atom  20C    basis set group =>   1
Atom  21C    basis set group =>   1
Atom  22C    basis set group =>   1
Atom  23C    basis set group =>   1
Atom  24C    basis set group =>   1
Atom  25C    basis set group =>   1
Atom  26C    basis set group =>   1
Atom  27C    basis set group =>   1
Atom  28S    basis set group =>   4
Atom  29C    basis set group =>   1
Atom  30C    basis set group =>   1
Atom  31C    basis set group =>   1
Atom  32C    basis set group =>   1
Atom  33C    basis set group =>   1
Atom  34S    basis set group =>   4
Atom  35C    basis set group =>   1
Atom  36C    basis set group =>   1
Atom  37C    basis set group =>   1
Atom  38C    basis set group =>   1
Atom  39S    basis set group =>   4
Atom  40C    basis set group =>   1
Atom  41C    basis set group =>   1
Atom  42C    basis set group =>   1
Atom  43S    basis set group =>   4
Atom  44C    basis set group =>   1
Atom  45C    basis set group =>   1
Atom  46C    basis set group =>   1
Atom  47C    basis set group =>   1
Atom  48C    basis set group =>   1
Atom  49N    basis set group =>   2
Atom  50C    basis set group =>   1
Atom  51N    basis set group =>   2
Atom  52C    basis set group =>   1
Atom  53C    basis set group =>   1
Atom  54O    basis set group =>   3
Atom  55C    basis set group =>   1
Atom  56C    basis set group =>   1
Atom  57C    basis set group =>   1
Atom  58C    basis set group =>   1
Atom  59C    basis set group =>   1
Atom  60C    basis set group =>   1
Atom  61C    basis set group =>   1
Atom  62C    basis set group =>   1
Atom  63S    basis set group =>   4
Atom  64C    basis set group =>   1
Atom  65C    basis set group =>   1
Atom  66C    basis set group =>   1
Atom  67C    basis set group =>   1
Atom  68C    basis set group =>   1
Atom  69S    basis set group =>   4
Atom  70C    basis set group =>   1
Atom  71C    basis set group =>   1
Atom  72C    basis set group =>   1
Atom  73C    basis set group =>   1
Atom  74S    basis set group =>   4
Atom  75C    basis set group =>   1
Atom  76C    basis set group =>   1
Atom  77C    basis set group =>   1
Atom  78S    basis set group =>   4
Atom  79C    basis set group =>   1
Atom  80C    basis set group =>   1
Atom  81C    basis set group =>   1
Atom  82C    basis set group =>   1
Atom  83C    basis set group =>   1
Atom  84N    basis set group =>   2
Atom  85C    basis set group =>   1
Atom  86N    basis set group =>   2
Atom  87C    basis set group =>   1
Atom  88C    basis set group =>   1
Atom  89C    basis set group =>   1
Atom  90O    basis set group =>   3
Atom  91C    basis set group =>   1
Atom  92C    basis set group =>   1
Atom  93C    basis set group =>   1
Atom  94C    basis set group =>   1
Atom  95C    basis set group =>   1
Atom  96C    basis set group =>   1
Atom  97C    basis set group =>   1
Atom  98C    basis set group =>   1
Atom  99H    basis set group =>   5
Atom 100H    basis set group =>   5
Atom 101H    basis set group =>   5
Atom 102H    basis set group =>   5
Atom 103H    basis set group =>   5
Atom 104H    basis set group =>   5
Atom 105H    basis set group =>   5
Atom 106H    basis set group =>   5
Atom 107H    basis set group =>   5
Atom 108H    basis set group =>   5
Atom 109H    basis set group =>   5
Atom 110H    basis set group =>   5
Atom 111H    basis set group =>   5
Atom 112H    basis set group =>   5
Atom 113H    basis set group =>   5
Atom 114H    basis set group =>   5
Atom 115H    basis set group =>   5
Atom 116H    basis set group =>   5
Atom 117H    basis set group =>   5
Atom 118H    basis set group =>   5
Atom 119H    basis set group =>   5
Atom 120H    basis set group =>   5
Atom 121H    basis set group =>   5
Atom 122H    basis set group =>   5
Atom 123H    basis set group =>   5
Atom 124H    basis set group =>   5
Atom 125H    basis set group =>   5
Atom 126H    basis set group =>   5
Atom 127H    basis set group =>   5
Atom 128H    basis set group =>   5
Atom 129H    basis set group =>   5
Atom 130H    basis set group =>   5
Atom 131H    basis set group =>   5
Atom 132H    basis set group =>   5
Atom 133H    basis set group =>   5
Atom 134H    basis set group =>   5
Atom 135H    basis set group =>   5
Atom 136H    basis set group =>   5
Atom 137H    basis set group =>   5
Atom 138H    basis set group =>   5


           ************************************************************
           *        Program running with 6 parallel MPI-processes     *
           *              working on a common directory               *
           ************************************************************
------------------------------------------------------------------------------
                           ORCA GTO INTEGRAL CALCULATION
                           -- RI-GTO INTEGRALS CHOSEN --
------------------------------------------------------------------------------

                         BASIS SET STATISTICS AND STARTUP INFO

Gaussian basis set:
 # of primitive gaussian shells          ... 1436
 # of primitive gaussian functions       ... 2752
 # of contracted shells                  ...  730
 # of contracted basis functions         ... 1618
 Highest angular momentum                ...    2
 Maximum contraction depth               ...    5
Auxiliary gaussian basis set:
 # of primitive gaussian shells          ... 2720
 # of primitive gaussian functions       ... 7626
 # of contracted shells                  ... 1701
 # of contracted aux-basis functions     ... 5307
 Highest angular momentum                ...    4
 Maximum contraction depth               ...    7
Ratio of auxiliary to basis functions    ...  3.28
Integral package used                  ... LIBINT
 One Electron integrals                  ... done
 Ordering auxiliary basis shells         ... done
 Integral threshhold             Thresh  ...  2.500e-11
 Primitive cut-off               TCut    ...  2.500e-12
 Pre-screening matrix                    ... done
 Shell pair data                         ... 
 Ordering of the shell pairs             ... done (   0.015 sec) 68599 of 266815 pairs
 Determination of significant pairs      ... done (   0.000 sec)
 Creation of shell pair data             ... done (   0.008 sec)
 Storage of shell pair data              ... done (   0.014 sec)
 Shell pair data done in (   0.038 sec)
 Computing two index integrals           ... done
 Cholesky decomposition of the V-matrix  ... done


Timings:
 Total evaluation time                   ...   4.194 sec (  0.070 min)
 One electron matrix time                ...   1.090 sec (  0.018 min) = 26.0%
 Schwartz matrix evaluation time         ...   1.169 sec (  0.019 min) = 27.9%
 Two index repulsion integral time       ...   0.647 sec (  0.011 min) = 15.4%
 Cholesky decomposition of V             ...   1.232 sec (  0.021 min) = 29.4%
 Three index repulsion integral time     ...   0.000 sec (  0.000 min) =  0.0%



           ************************************************************
           *        Program running with 6 parallel MPI-processes     *
           *              working on a common directory               *
           ************************************************************
-------------------------------------------------------------------------------
                                 ORCA SCF
-------------------------------------------------------------------------------

------------
SCF SETTINGS
------------
Hamiltonian:
 Density Functional     Method          .... DFT(GTOs)
 Exchange Functional    Exchange        .... WB88
 Correlation Functional Correlation     .... LYP
 LDA part of GGA corr.  LDAOpt          .... VWN-5
 Gradients option       PostSCFGGA      .... off
 Hybrid DFT is turned on
   Fraction HF Exchange ScalHFX         ....  0.190000
   Scaling of DF-GGA-X  ScalDFX         ....  0.350000
   Scaling of DF-GGA-C  ScalDFC         ....  0.810000
   Scaling of DF-LDA-C  ScalLDAC        ....  1.000000
   Perturbative correction              ....  0.000000
   Density functional embedding theory  .... OFF
 Long-range corrected/Screened/Range-Separated Hybrid DFT is turned on
   Amount of maximum screened exact exchange              ....  0.460000
   Range separation parameter mu (erf(mu*r12)/r12)        ....  0.330000
 RI-approximation to the Coulomb term is turned on
   Number of auxiliary basis functions  .... 5307
   RIJ-COSX (HFX calculated with COS-X)).... on


General Settings:
 Integral files         IntName         .... 90_30_19_30_90
 Hartree-Fock type      HFTyp           .... RHF
 Total Charge           Charge          ....    0
 Multiplicity           Mult            ....    1
 Number of Electrons    NEL             ....  726
 Basis Dimension        Dim             .... 1618
 Nuclear Repulsion      ENuc            ....  17959.0187526152 Eh

Convergence Acceleration:
 DIIS                   CNVDIIS         .... on
   Start iteration      DIISMaxIt       ....    12
   Startup error        DIISStart       ....  0.200000
   # of expansion vecs  DIISMaxEq       ....     5
   Bias factor          DIISBfac        ....   1.050
   Max. coefficient     DIISMaxC        ....  10.000
 Newton-Raphson         CNVNR           .... off
 SOSCF                  CNVSOSCF        .... on
   Start iteration      SOSCFMaxIt      ....   150
   Startup grad/error   SOSCFStart      ....  0.003300
 Level Shifting         CNVShift        .... on
   Level shift para.    LevelShift      ....    0.2500
   Turn off err/grad.   ShiftErr        ....    0.0010
 Zerner damping         CNVZerner       .... off
 Static damping         CNVDamp         .... on
   Fraction old density DampFac         ....    0.7000
   Max. Damping (<1)    DampMax         ....    0.9800
   Min. Damping (>=0)   DampMin         ....    0.0000
   Turn off err/grad.   DampErr         ....    0.1000
 Fernandez-Rico         CNVRico         .... off

SCF Procedure:
 Maximum # iterations   MaxIter         ....   125
 SCF integral mode      SCFMode         .... Direct
   Integral package                     .... LIBINT
 Reset frequency        DirectResetFreq ....    20
 Integral Threshold     Thresh          ....  2.500e-11 Eh
 Primitive CutOff       TCut            ....  2.500e-12 Eh

Convergence Tolerance:
 Convergence Check Mode ConvCheckMode   .... Total+1el-Energy
 Convergence forced     ConvForced      .... 1
 Energy Change          TolE            ....  1.000e-08 Eh
 1-El. energy change                    ....  1.000e-05 Eh
 Orbital Gradient       TolG            ....  1.000e-05
 Orbital Rotation angle TolX            ....  1.000e-05
 DIIS Error             TolErr          ....  5.000e-07


Diagonalization of the overlap matrix:
Smallest eigenvalue                        ... 1.808e-04
Time for diagonalization                   ...    0.411 sec
Threshold for overlap eigenvalues          ... 1.000e-08
Number of eigenvalues below threshold      ... 0
Time for construction of square roots      ...    0.304 sec
Total time needed                          ...    0.721 sec

-------------------
DFT GRID GENERATION
-------------------

General Integration Accuracy     IntAcc      ...  4.670
Radial Grid Type                 RadialGrid  ... Gauss-Chebyshev
Angular Grid (max. acc.)         AngularGrid ... Lebedev-302
Angular grid pruning method      GridPruning ... 3 (G Style)
Weight generation scheme         WeightScheme... Becke
Basis function cutoff            BFCut       ...    1.0000e-11
Integration weight cutoff        WCut        ...    1.0000e-14
Grids for H and He will be reduced by one unit

# of grid points (after initial pruning)     ... 755820 (   0.1 sec)
# of grid points (after weights+screening)   ... 643456 (  17.2 sec)
nearest neighbour list constructed           ...    0.0 sec
Grid point re-assignment to atoms done       ...    0.1 sec
Grid point division into batches done        ...    2.2 sec
Reduced shell lists constructed in    3.7 sec

Total number of grid points                  ...   643456
Total number of batches                      ...    10127
Average number of points per batch           ...       63
Average number of grid points per atom       ...     4629
Average number of shells per batch           ...    96.44 (13.21%)
Average number of basis functions per batch  ...   203.61 (12.58%)
Average number of large shells per batch     ...    59.81 (62.02%)
Average number of large basis fcns per batch ...   128.70 (63.21%)
Maximum spatial batch extension              ...  15.80, 17.28, 17.90 au
Average spatial batch extension              ...   0.29,  0.34,  0.34 au

Time for grid setup =   21.374 sec

------------------------------
INITIAL GUESS: MODEL POTENTIAL
------------------------------
Loading Hartree-Fock densities                     ... done
Calculating cut-offs                               ... done
Setting up the integral package                    ... done
Initializing the effective Hamiltonian             ... done
Starting the Coulomb interaction                   ... done (   2.7 sec)
Reading the grid                                   ... done
Mapping shells                                     ... done
Starting the XC term evaluation                    ... done (   1.9 sec)
  promolecular density results
     # of electrons  =    725.979238902
     EX              =   -694.442605947
     EC              =    -25.283802401
     EX+EC           =   -719.726408348
Transforming the Hamiltonian                       ... done (   0.2 sec)
Diagonalizing the Hamiltonian                      ... done (   0.4 sec)
Back transforming the eigenvectors                 ... done (   0.1 sec)
Now organizing SCF variables                       ... done
                      ------------------
                      INITIAL GUESS DONE (  26.9 sec)
                      ------------------
--------------------
COSX GRID GENERATION
--------------------

General Integration Accuracy     IntAcc      ...  3.340
Radial Grid Type                 RadialGrid  ... Gauss-Chebyshev
Angular Grid (max. acc.)         AngularGrid ... Lebedev-50
Angular grid pruning method      GridPruning ... 3 (G Style)
Weight generation scheme         WeightScheme... Becke
Basis function cutoff            BFCut       ...    1.0000e-11
Integration weight cutoff        WCut        ...    1.0000e-14
Grids for H and He will be reduced by one unit

# of grid points (after initial pruning)     ...  71144 (   0.0 sec)
# of grid points (after weights+screening)   ...  63440 (   1.6 sec)
nearest neighbour list constructed           ...    0.0 sec
Grid point re-assignment to atoms done       ...    0.0 sec
Grid point division into batches done        ...    0.0 sec
Reduced shell lists constructed in    0.2 sec

Total number of grid points                  ...    63440
Total number of batches                      ...     1065
Average number of points per batch           ...       59
Average number of grid points per atom       ...      456
Average number of shells per batch           ...   114.11 (15.63%)
Average number of basis functions per batch  ...   242.83 (15.01%)
Average number of large shells per batch     ...    70.21 (61.53%)
Average number of large basis fcns per batch ...   153.11 (63.05%)
Maximum spatial batch extension              ...  15.06, 17.91, 18.65 au
Average spatial batch extension              ...   0.52,  0.90,  0.88 au

Overlap Fitting                  UseSFitting ... on
Constructing numerical overlap ... done (      0.1 sec)
Inverting numerical overlap    ... done (      0.1 sec)
Obtaining analytic overlap     ... done (      0.0 sec)
Final contraction and storage  ... done (      0.2 sec)


General Integration Accuracy     IntAcc      ...  3.670
Radial Grid Type                 RadialGrid  ... Gauss-Chebyshev
Angular Grid (max. acc.)         AngularGrid ... Lebedev-50
Angular grid pruning method      GridPruning ... 3 (G Style)
Weight generation scheme         WeightScheme... Becke
Basis function cutoff            BFCut       ...    1.0000e-11
Integration weight cutoff        WCut        ...    1.0000e-14
Grids for H and He will be reduced by one unit

# of grid points (after initial pruning)     ...  88718 (   0.0 sec)
# of grid points (after weights+screening)   ...  78787 (   2.0 sec)
nearest neighbour list constructed           ...    0.0 sec
Grid point re-assignment to atoms done       ...    0.0 sec
Grid point division into batches done        ...    0.0 sec
Reduced shell lists constructed in    0.3 sec

Total number of grid points                  ...    78787
Total number of batches                      ...     1307
Average number of points per batch           ...       60
Average number of grid points per atom       ...      567
Average number of shells per batch           ...   112.59 (15.42%)
Average number of basis functions per batch  ...   239.48 (14.80%)
Average number of large shells per batch     ...    69.36 (61.60%)
Average number of large basis fcns per batch ...   151.49 (63.26%)
Maximum spatial batch extension              ...  16.30, 19.98, 20.60 au
Average spatial batch extension              ...   0.51,  0.83,  0.82 au

Overlap Fitting                  UseSFitting ... on
Constructing numerical overlap ... done (      0.2 sec)
Inverting numerical overlap    ... done (      0.1 sec)
Obtaining analytic overlap     ... done (      0.0 sec)
Final contraction and storage  ... done (      0.1 sec)


General Integration Accuracy     IntAcc      ...  4.010
Radial Grid Type                 RadialGrid  ... Gauss-Chebyshev
Angular Grid (max. acc.)         AngularGrid ... Lebedev-110
Angular grid pruning method      GridPruning ... 3 (G Style)
Weight generation scheme         WeightScheme... Becke
Basis function cutoff            BFCut       ...    1.0000e-11
Integration weight cutoff        WCut        ...    1.0000e-14
Grids for H and He will be reduced by one unit

# of grid points (after initial pruning)     ... 173226 (   0.0 sec)
# of grid points (after weights+screening)   ... 152178 (   4.1 sec)
nearest neighbour list constructed           ...    0.0 sec
Grid point re-assignment to atoms done       ...    0.0 sec
Grid point division into batches done        ...    0.1 sec
Reduced shell lists constructed in    0.5 sec

Total number of grid points                  ...   152178
Total number of batches                      ...     2449
Average number of points per batch           ...       62
Average number of grid points per atom       ...     1095
Average number of shells per batch           ...   106.11 (14.54%)
Average number of basis functions per batch  ...   225.22 (13.92%)
Average number of large shells per batch     ...    65.92 (62.12%)
Average number of large basis fcns per batch ...   143.22 (63.59%)
Maximum spatial batch extension              ...  17.60, 20.74, 17.51 au
Average spatial batch extension              ...   0.44,  0.61,  0.60 au

Overlap Fitting                  UseSFitting ... on
Constructing numerical overlap ... done (      0.3 sec)
Inverting numerical overlap    ... done (      0.1 sec)
Obtaining analytic overlap     ... done (      0.0 sec)
Final contraction and storage  ... done (      0.1 sec)

Time for X-Grid setup             =   10.332 sec
--------------
SCF ITERATIONS
--------------
ITER       Energy         Delta-E        Max-DP      RMS-DP      [F,P]     Damp
               ***  Starting incremental Fock matrix formation  ***
  0  -6880.8046073389   0.000000000000 0.08172553  0.00087981  0.2362559 0.7000
  1  -6881.6937208848  -0.889113545876 0.04482415  0.00060191  0.1060984 0.7000
                               ***Turning on DIIS***
  2  -6882.0599830851  -0.366262200310 0.08743073  0.00105972  0.0415147 0.0000
  3  -6882.6532920609  -0.593308975807 0.04051379  0.00050174  0.0511187 0.0000
  4  -6882.7768798098  -0.123587748858 0.01615843  0.00013455  0.0223422 0.0000
  5  -6882.7850454253  -0.008165615531 0.00721108  0.00005120  0.0092495 0.0000
                      *** Initiating the SOSCF procedure ***
                           *** Shutting down DIIS ***
                      *** Re-Reading the Fockian *** 
                      *** Removing any level shift *** 
ITER      Energy       Delta-E        Grad      Rot      Max-DP    RMS-DP
  6  -6882.78650894  -0.0014635140  0.001668  0.001668  0.002956  0.000030
               *** Restarting incremental Fock matrix formation ***
  7  -6882.78689536  -0.0003864188  0.001009  0.005111  0.002225  0.000025
  8  -6882.78714720  -0.0002518399  0.000435  0.004427  0.002082  0.000027
  9  -6882.78715507  -0.0000078702  0.000931  0.001376  0.001290  0.000010
 10  -6882.78720838  -0.0000533159  0.000218  0.000559  0.000500  0.000005
 11  -6882.78720785   0.0000005307  0.000121  0.000311  0.000294  0.000003
 12  -6882.78721184  -0.0000039907  0.000029  0.000103  0.000131  0.000001
 13  -6882.78721176   0.0000000794  0.000027  0.000065  0.000079  0.000001
 14  -6882.78721205  -0.0000002863  0.000003  0.000013  0.000018  0.000000
 15  -6882.78721206  -0.0000000089  0.000004  0.000006  0.000010  0.000000
                  ***Gradient check signals convergence***
              ***Rediagonalizing the Fockian in SOSCF/NRSCF***

               *****************************************************
               *                     SUCCESS                       *
               *           SCF CONVERGED AFTER  16 CYCLES          *
               *****************************************************

Setting up the final grid:

General Integration Accuracy     IntAcc      ...  5.010
Radial Grid Type                 RadialGrid  ... Gauss-Chebyshev
Angular Grid (max. acc.)         AngularGrid ... Lebedev-434
Angular grid pruning method      GridPruning ... 3 (G Style)
Weight generation scheme         WeightScheme... Becke
Basis function cutoff            BFCut       ...    1.0000e-11
Integration weight cutoff        WCut        ...    1.0000e-14
Grids for H and He will be reduced by one unit

# of grid points (after initial pruning)     ... 1334902 (   0.1 sec)
# of grid points (after weights+screening)   ... 1132871 (  29.7 sec)
nearest neighbour list constructed           ...    0.0 sec
Grid point re-assignment to atoms done       ...    0.2 sec
Grid point division into batches done        ...    7.2 sec
Reduced shell lists constructed in    9.7 sec

Total number of grid points                  ...  1132871
Total number of batches                      ...    17769
Average number of points per batch           ...       63
Average number of grid points per atom       ...     8150
Average number of shells per batch           ...    94.17 (12.90%)
Average number of basis functions per batch  ...   198.57 (12.27%)
Average number of large shells per batch     ...    58.38 (61.99%)
Average number of large basis fcns per batch ...   125.44 (63.17%)
Maximum spatial batch extension              ...  15.16, 19.03, 16.84 au
Average spatial batch extension              ...   0.24,  0.27,  0.27 au

Final grid set up in   40.0 sec
Final integration                            ... done (   4.3 sec)
[...]
   6   25214.4    396.6   0.064831689   0.84647  -0.20615   0.02389  -0.89633
   7   25676.2    389.5   0.078366635   1.00479   0.47581  -0.63980   0.60750
   8   26017.5    384.4   0.281744800   3.56505   0.18906   0.42803  -1.82923
   9   26310.1    380.1   0.121164407   1.51610   0.79779  -0.62029   0.70347
  10   26713.6    374.3   0.057055206   0.70314  -0.18526   0.25861   0.77585
  11   26949.4    371.1   0.160102347   1.95580   1.29750  -0.50280  -0.13961
  12   27051.9    369.7   0.048383221   0.58881   0.74681  -0.12475   0.12461
  13   27328.4    365.9   0.044493834   0.53600  -0.52287  -0.47187   0.19984
  14   27628.2    361.9   0.189285684   2.25549  -1.29571   0.46387   0.60120
  15   28026.0    356.8   0.017510420   0.20569   0.03979   0.20214  -0.40403
  16   28312.3    353.2   0.101213623   1.17690  -0.79431   0.52517   0.51978
  17   28861.8    346.5   0.016551209   0.18879  -0.37534  -0.19716  -0.09508
  18   29297.0    341.3   0.032205426   0.36189  -0.52018   0.29271   0.07502
  19   29493.7    339.1   0.007757575   0.08659  -0.24856  -0.11473   0.10791
  20   29556.7    338.3   0.019455139   0.21670   0.38404   0.19290  -0.17889
  21   29861.2    334.9   0.051338075   0.56599  -0.53065   0.42037  -0.32817
  22   30208.6    331.0   0.130549261   1.42272   0.66541   0.37869  -0.91463
  23   30304.2    330.0   0.014498584   0.15751  -0.16220   0.10935  -0.34531
  24   31244.4    320.1   0.020499821   0.21600  -0.32920   0.24108   0.22251
  25   31351.1    319.0   0.018658889   0.19593  -0.25624   0.36088  -0.00627
  26   31669.2    315.8   0.334762912   3.47997   0.15233   0.31696  -1.83202
  27   31815.4    314.3   0.044437154   0.45982   0.62571   0.03281  -0.25929
  28   31988.1    312.6   0.244011733   2.51129   1.18932  -0.79469  -0.68211
  29   32101.2    311.5   0.573673780   5.88328   2.16214  -1.04255  -0.34861
  30   32336.9    309.2   0.165256180   1.68242  -0.92751   0.32591   0.84613
  31   32706.6    305.7   0.018279369   0.18399  -0.29042  -0.16417   0.26962
  32   32845.1    304.5   0.217635507   2.18140   0.64815  -1.14223   0.67573
  33   33097.6    302.1   0.729071398   7.25185  -2.50158   0.98283  -0.16734
  34   33357.2    299.8   0.713276713   7.03954  -2.12473  -0.98078   1.25025
  35   33569.3    297.9   0.041738814   0.40933   0.17211   0.46324  -0.40634
  36   33832.1    295.6   0.123432095   1.20109   0.06426  -0.71633   0.82694
  37   34190.8    292.5   0.246296657   2.37151   1.24757  -0.86054  -0.27303
  38   34307.8    291.5   0.025468445   0.24439  -0.48810  -0.07750  -0.01190
  39   34433.0    290.4   0.031881620   0.30482  -0.15497  -0.37750   0.37188
  40   34460.8    290.2   0.199520033   1.90606  -1.34888  -0.25416   0.14830
  41   34621.7    288.8   0.006656422   0.06329   0.00565  -0.11859  -0.22181
  42   34658.6    288.5   0.087732622   0.83335   0.77432   0.18433  -0.44698
  43   34795.1    287.4   0.040438338   0.38261   0.60259  -0.13953   0.00444
  44   35004.1    285.7   0.007430935   0.06989  -0.06167  -0.07409   0.24616
  45   35169.6    284.3   0.014937964   0.13983   0.26293  -0.01939  -0.26518
  46   35328.4    283.1   0.087781327   0.81800   0.53732  -0.70275  -0.18822
  47   35547.9    281.3   0.018026331   0.16694  -0.11516   0.37971   0.09747
  48   35915.7    278.4   0.017139349   0.15710   0.02457  -0.15475  -0.36408
  49   36007.4    277.7   0.006507467   0.05950  -0.16645   0.07544   0.16155
  50   36174.9    276.4   0.009600269   0.08737  -0.07388  -0.28618   0.00315
  51   36335.4    275.2   0.002372152   0.02149  -0.06840   0.04016   0.12329
  52   36610.3    273.1   0.005870683   0.05279   0.14859  -0.03208   0.17229
  53   36925.4    270.8   0.050156095   0.44717  -0.38565   0.40534  -0.36625
  54   36971.8    270.5   0.035238146   0.31377   0.29423   0.00186  -0.47665
  55   37183.3    268.9   0.007912864   0.07006   0.19404  -0.17274  -0.05069
  56   37302.6    268.1   0.002027799   0.01790   0.11591  -0.04360  -0.05060
  57   37382.0    267.5   0.012602362   0.11099   0.07106   0.00205  -0.32547
  58   37923.4    263.7   0.030239580   0.26251  -0.32896   0.23001  -0.31842
  59   38204.7    261.7   0.024945989   0.21496   0.43680   0.09953  -0.11943
  60   38305.3    261.1   0.062762699   0.53941  -0.20471  -0.37668   0.59634
  61   38445.9    260.1   0.124624222   1.06716   0.28543  -0.59348   0.79591
  62   38530.4    259.5   0.003632601   0.03104  -0.16649   0.04401   0.03715
  63   38736.9    258.2   0.017435739   0.14818  -0.06237   0.34039  -0.16860
  64   38841.8    257.5   0.019959537   0.16917  -0.39559   0.08289  -0.07621
  65   38903.7    257.0   0.049245961   0.41673  -0.13479  -0.59036  -0.22370
  66   39124.8    255.6   0.002616515   0.02202   0.07151  -0.06604  -0.11199
  67   39239.1    254.8   0.002780201   0.02333  -0.05247   0.09177  -0.11023
  68   39321.5    254.3   0.040619699   0.34008   0.24249  -0.20232   0.49025
  69   39458.5    253.4   0.028281203   0.23596  -0.17942   0.19149  -0.40878
  70   39625.5    252.4   0.005464578   0.04540  -0.03795  -0.00426  -0.20962
  71   39743.4    251.6   0.017532900   0.14523  -0.06398   0.17245   0.33377
  72   39768.0    251.5   0.011884358   0.09838  -0.05476   0.30409  -0.05399
  73   39881.4    250.7   0.093774315   0.77409  -0.29025   0.19017  -0.80850
  74   40067.0    249.6   0.026093819   0.21440   0.29078  -0.33866  -0.12313
  75   40186.4    248.8   0.124931957   1.02346   0.27471  -0.23193   0.94562

-----------------------------------------------------------------------------
         ABSORPTION SPECTRUM VIA TRANSITION VELOCITY DIPOLE MOMENTS
-----------------------------------------------------------------------------
State   Energy  Wavelength   fosc         P2         PX        PY        PZ  
        (cm-1)    (nm)                  (au**2)     (au)      (au)      (au) 
-----------------------------------------------------------------------------
   0   16892.9    592.0   0.417681621   0.04822   0.04816  -0.04956  -0.20844
   1   17484.8    571.9   0.714649282   0.08540   0.14580  -0.14563   0.20721
   2   22342.4    447.6   0.012034175   0.00184   0.00807   0.00166  -0.04207
   3   22911.6    436.5   0.023050381   0.00361   0.02400  -0.05236   0.01707
   4   23324.8    428.7   1.558594747   0.24846  -0.28094   0.21167   0.35317
   5   23777.4    420.6   0.951547199   0.15463   0.32232  -0.17295   0.14434
   6   25214.4    396.6   0.065634310   0.01131  -0.01972   0.00172  -0.10449
   7   25676.2    389.5   0.082030730   0.01440   0.05681  -0.07675   0.07265
   8   26017.5    384.4   0.277904555   0.04942   0.02199   0.05327  -0.21470
   9   26310.1    380.1   0.116703060   0.02099   0.09556  -0.07276   0.08099
  10   26713.6    374.3   0.050194337   0.00916  -0.02291   0.03065   0.08775
  11   26949.4    371.1   0.146710497   0.02702   0.15287  -0.05843  -0.01541
  12   27051.9    369.7   0.039955809   0.00739   0.08378  -0.01111   0.01565
  13   27328.4    365.9   0.041549376   0.00776  -0.06275  -0.05653   0.02503
  14   27628.2    361.9   0.164198392   0.03100  -0.15209   0.05342   0.07084
  15   28026.0    356.8   0.018762800   0.00359   0.00508   0.02725  -0.05316
  16   28312.3    353.2   0.084322013   0.01632  -0.09487   0.06011   0.06085
  17   28861.8    346.5   0.015246858   0.00301  -0.04602  -0.02786  -0.01068
  18   29297.0    341.3   0.030879646   0.00618  -0.06759   0.03959   0.00689
  19   29493.7    339.1   0.008244655   0.00166  -0.03575  -0.01199   0.01549
  20   29556.7    338.3   0.016343322   0.00330   0.04513   0.02679  -0.02340
  21   29861.2    334.9   0.043443563   0.00887  -0.06563   0.05279  -0.04210
  22   30208.6    331.0   0.120765708   0.02493   0.08937   0.04897  -0.12061
  23   30304.2    330.0   0.012292557   0.00255  -0.02556   0.01448  -0.04103
  24   31244.4    320.1   0.018649672   0.00398  -0.04370   0.03382   0.03048
  25   31351.1    319.0   0.017204368   0.00369  -0.03828   0.04712   0.00082
  26   31669.2    315.8   0.313324329   0.06782   0.02161   0.04556  -0.25549
  27   31815.4    314.3   0.042512690   0.00924   0.08841   0.00037  -0.03778
  28   31988.1    312.6   0.226827486   0.04959   0.16717  -0.11279  -0.09445
  29   32101.2    311.5   0.519800849   0.11404   0.30171  -0.14326  -0.04991
  30   32336.9    309.2   0.148835053   0.03289  -0.12942   0.04444   0.11903
  31   32706.6    305.7   0.016228984   0.00363  -0.04043  -0.02115   0.03932
  32   32845.1    304.5   0.197548443   0.04435   0.08955  -0.16113   0.10180
  33   33097.6    302.1   0.641340683   0.14508  -0.35347   0.13915  -0.02770
  34   33357.2    299.8   0.618313699   0.14096  -0.29642  -0.14510   0.17901
  35   33569.3    297.9   0.036849886   0.00845   0.02320   0.06569  -0.06001
  36   33832.1    295.6   0.111836761   0.02586   0.01094  -0.10519   0.12114
  37   34190.8    292.5   0.220980526   0.05164   0.18341  -0.12821  -0.03950
  38   34307.8    291.5   0.021539204   0.00505  -0.07017  -0.01115  -0.00148
  39   34433.0    290.4   0.029819494   0.00702  -0.03078  -0.05040   0.05941
  40   34460.8    290.2   0.179912153   0.04237  -0.20081  -0.03868   0.02353
  41   34621.7    288.8   0.004601403   0.00109  -0.00177  -0.01579  -0.02892
  42   34658.6    288.5   0.075122038   0.01779   0.11351   0.02720  -0.06458
  43   34795.1    287.4   0.037004177   0.00880   0.09123  -0.02182   0.00124
  44   35004.1    285.7   0.007920118   0.00189  -0.00795  -0.01447   0.04028
  45   35169.6    284.3   0.014146059   0.00340   0.04058  -0.00305  -0.04176
  46   35328.4    283.1   0.078228566   0.01889   0.08215  -0.10598  -0.03013
  47   35547.9    281.3   0.016621491   0.00404  -0.01916   0.05958   0.01100
  48   35915.7    278.4   0.017483459   0.00429   0.00452  -0.02459  -0.06055
  49   36007.4    277.7   0.004760719   0.00117  -0.02227   0.00789   0.02477
  50   36174.9    276.4   0.007937540   0.00196  -0.00823  -0.04344  -0.00280
  51   36335.4    275.2   0.002215280   0.00055  -0.01452   0.01194   0.01402
  52   36610.3    273.1   0.004284935   0.00107   0.02239  -0.00256   0.02376
  53   36925.4    270.8   0.039227918   0.00990  -0.05877   0.05942  -0.05399
  54   36971.8    270.5   0.026887864   0.00679   0.04181   0.00092  -0.07103
  55   37183.3    268.9   0.006170114   0.00157   0.03002  -0.02499  -0.00651
  56   37302.6    268.1   0.001622873   0.00041   0.01809  -0.00595  -0.00714
  57   37382.0    267.5   0.008914514   0.00228   0.00994  -0.00097  -0.04667
  58   37923.4    263.7   0.024624760   0.00638  -0.05126   0.03625  -0.04941
  59   38204.7    261.7   0.019256679   0.00503   0.06689   0.01323  -0.01946
  60   38305.3    261.1   0.051066084   0.01337  -0.03166  -0.05975   0.09379
  61   38445.9    260.1   0.097936957   0.02573   0.04616  -0.09338   0.12200
  62   38530.4    259.5   0.002242053   0.00059  -0.02373   0.00375   0.00364
  63   38736.9    258.2   0.012040480   0.00319  -0.00761   0.05063  -0.02380
  64   38841.8    257.5   0.014693220   0.00390  -0.06025   0.01031  -0.01283
  65   38903.7    257.0   0.039694634   0.01055  -0.01800  -0.09335  -0.03893
  66   39124.8    255.6   0.002319544   0.00062   0.01215  -0.01090  -0.01881
  67   39239.1    254.8   0.002314922   0.00062  -0.00894   0.01440  -0.01826
  68   39321.5    254.3   0.034210925   0.00919   0.04037  -0.03434   0.07991
  69   39458.5    253.4   0.026215926   0.00707  -0.02955   0.03279  -0.07157
  70   39625.5    252.4   0.004261037   0.00115  -0.00617  -0.00117  -0.03339
  71   39743.4    251.6   0.014055162   0.00382  -0.00800   0.02567   0.05563
  72   39768.0    251.5   0.009246409   0.00251  -0.00559   0.04843  -0.01170
  73   39881.4    250.7   0.078724054   0.02146  -0.05009   0.03224  -0.13383
  74   40067.0    249.6   0.020414793   0.00559   0.04483  -0.05754  -0.01645
  75   40186.4    248.8   0.101731222   0.02794   0.04447  -0.03991   0.15611

-------------------------------------------------------------------
                             CD SPECTRUM
-------------------------------------------------------------------
State   Energy Wavelength       R         MX        MY        MZ   
        (cm-1)   (nm)       (1e40*cgs)   (au)      (au)      (au)  
-------------------------------------------------------------------
   0   16892.9    592.0     36.32867   5.68583   2.60211   0.77471
   1   17484.8    571.9      1.28099  -4.46250  -0.95529   2.45346
   2   22342.4    447.6      1.23484   1.25705   0.50905   0.28067
   3   22911.6    436.5     14.25532  -0.40751   0.04321   0.37745
   4   23324.8    428.7    -297.35636  -7.21507  -1.61785  -4.53667
   5   23777.4    420.6    215.90252  -3.64766  -1.90591   5.52436
   6   25214.4    396.6    128.51020   3.33375   1.73051  -0.11239
   7   25676.2    389.5    -48.80303  -1.53875  -0.34418   1.18351
   8   26017.5    384.4     16.46438   4.92533   0.85694   0.74777
   9   26310.1    380.1     94.36558  -2.01709  -0.71951   1.08403
  10   26713.6    374.3     27.42250  -1.69502  -0.12889  -0.51172
  11   26949.4    371.1     -2.02518  -0.33343  -1.72731   3.06056
  12   27051.9    369.7     -7.26576  -0.08886   0.11501   0.89503
  13   27328.4    365.9     -4.89773  -0.52659   0.41053  -0.30447
  14   27628.2    361.9    -21.46834  -0.78000   1.03201  -2.32586
  15   28026.0    356.8    -46.34532   1.30169   0.45345  -0.13155
  16   28312.3    353.2    -25.46586  -0.99087   0.32200  -1.63171
  17   28861.8    346.5     10.60497   0.10858   0.40518  -0.79563
  18   29297.0    341.3      5.98051   0.60321   1.40405  -1.63387
  19   29493.7    339.1      7.23998  -0.14894   0.38273  -0.22076
  20   29556.7    338.3     -1.79433   0.36545  -0.61330   0.08068
  21   29861.2    334.9      1.04378   1.99722   1.55743  -1.22102
  22   30208.6    331.0     16.68428   1.92818  -0.70911   1.18657
  23   30304.2    330.0     19.07660   1.31688   0.69763  -0.16329
  24   31244.4    320.1     30.77663   0.12255   0.04410  -0.45325
  25   31351.1    319.0    -20.80495   0.71002   0.74718  -0.08775
  26   31669.2    315.8    377.33879   5.43840   0.51955   1.41587
  27   31815.4    314.3     74.67452   0.18157  -0.75949   1.56382
  28   31988.1    312.6    -11.50228   0.71646  -0.87606   2.19832
  29   32101.2    311.5    117.21087  -0.58077  -2.44262   5.12918
  30   32336.9    309.2    -10.98686  -2.01723   0.67316  -2.41546
  31   32706.6    305.7    -59.15328  -1.24763  -0.17719  -0.52106
  32   32845.1    304.5    -1040.43144  -4.36647  -3.97072   4.00819
  33   33097.6    302.1    451.47685   3.54946   6.05726  -6.03957
  34   33357.2    299.8    666.87923  -2.04137   4.46031  -2.23302
  35   33569.3    297.9    -111.33670   1.57895   0.18183  -0.28632
  36   33832.1    295.6    -648.39902  -3.86777  -2.07106   1.83289
  37   34190.8    292.5    -105.26321  -1.59341  -4.41468   4.99792
  38   34307.8    291.5     20.46821   0.04453   0.94775  -0.70155
  39   34433.0    290.4    -122.73124  -1.69502  -0.28759   0.40178
  40   34460.8    290.2    283.41587   0.22756   2.86677  -1.12456
  41   34621.7    288.8     12.97618   0.92513   0.84433  -0.17970
  42   34658.6    288.5     16.46697   1.04761  -1.75125   1.24891
  43   34795.1    287.4     55.81272  -0.84000  -1.87506   1.75275
  44   35004.1    285.7    -61.53709  -0.95909  -0.35952   0.71203
  45   35169.6    284.3    -24.91972   0.68114  -0.47728   0.31159
  46   35328.4    283.1    113.51876   0.48823   0.52462   1.99363
  47   35547.9    281.3     69.59537  -0.32750  -0.90317   0.10246
  48   35915.7    278.4     66.17402   1.78873   1.41603   0.28990
  49   36007.4    277.7      8.01814  -0.47222  -0.12161  -0.64029
  50   36174.9    276.4    117.16496   0.57696   1.59606   0.74184
  51   36335.4    275.2    -14.61224  -0.88917  -0.68872   0.23382
  52   36610.3    273.1      1.58574  -0.87401  -0.56133   0.61020
  53   36925.4    270.8    -51.82724   1.71852   0.92103  -1.39050
  54   36971.8    270.5    -29.39726   1.14023  -0.18301   0.44149
  55   37183.3    268.9     -4.62325  -0.17890  -0.47805   0.55734
  56   37302.6    268.1      1.34720  -0.01045  -0.30315   0.35022
  57   37382.0    267.5    -12.00848   0.81098  -0.03403   0.02033
  58   37923.4    263.7    -21.46775   2.02604   1.77128  -1.09965
  59   38204.7    261.7     45.30625  -0.02606  -1.09783   0.59911
  60   38305.3    261.1    -55.65535  -1.87917   0.40088   0.00407
  61   38445.9    260.1    -551.72507  -4.04967  -2.56834   2.47796
  62   38530.4    259.5     21.08886   0.70289   1.03551  -0.48478
  63   38736.9    258.2    -68.76698   0.99924   0.29940  -1.49545
  64   38841.8    257.5     65.48148   1.16444   1.65416  -0.60019
  65   38903.7    257.0    613.43451   2.02399   3.77158   0.46035
  66   39124.8    255.6      2.04333   0.46578   0.23157   0.23826
  67   39239.1    254.8     -3.22143   0.23282  -0.26700  -0.45710
  68   39321.5    254.3    -122.88831  -1.82621  -0.26756   1.85624
  69   39458.5    253.4     22.80808   1.60980   0.23863  -0.35807
  70   39625.5    252.4     -6.71638   1.15442   1.08342  -0.36690
  71   39743.4    251.6     80.88880  -1.48516  -1.35345  -0.61352
  72   39768.0    251.5    106.43486  -0.38690  -1.61137  -0.32011
  73   39881.4    250.7    -156.55371   3.86741   2.50072  -1.62163
  74   40067.0    249.6     31.58628   0.66639   0.93776   0.08277
  75   40186.4    248.8    -223.40845  -3.87166  -1.60725   1.73282

sTD-DFT done

Total run time:        8.034 sec

           *** ORCA-CIS/TD-DFT FINISHED WITHOUT ERROR ***

-------------------------   --------------------
FINAL SINGLE POINT ENERGY     -6882.784479126602
-------------------------   --------------------


                            ***************************************
                            *     ORCA property calculations      *
                            ***************************************

                                    ---------------------
                                    Active property flags
                                    ---------------------
   (+) Dipole Moment


------------------------------------------------------------------------------
                       ORCA ELECTRIC PROPERTIES CALCULATION
------------------------------------------------------------------------------

Dipole Moment Calculation                       ... on
Quadrupole Moment Calculation                   ... off
Polarizability Calculation                      ... off
GBWName                                         ... 90_30_19_30_90.gbw
Electron density file                           ... 90_30_19_30_90.scfp
The origin for moment calculation is the CENTER OF MASS  = (-3.815417, 22.045213  9.091128)

-------------
DIPOLE MOMENT
-------------
                                X             Y             Z
Electronic contribution:     -0.81575      -3.03693      -4.79074
Nuclear contribution   :      0.86731       3.67130       5.41141
                        -----------------------------------------
Total Dipole Moment    :      0.05156       0.63437       0.62067
                        -----------------------------------------
Magnitude (a.u.)       :      0.88900
Magnitude (Debye)      :      2.25966



--------------------
Rotational spectrum 
--------------------
 
Rotational constants in cm-1:     0.000754     0.000161     0.000139 
Rotational constants in MHz :    22.616942     4.839055     4.179560 

 Dipole components along the rotational axes: 
x,y,z [a.u.] :     0.537584     0.400223    -0.584079 
x,y,z [Debye]:     1.366429     1.017286    -1.484611 

 

Timings for individual modules:

Sum of individual times         ...     1070.749 sec (=  17.846 min)
GTO integral calculation        ...        4.889 sec (=   0.081 min)   0.5 %
SCF iterations                  ...     1057.104 sec (=  17.618 min)  98.7 %
CIS module                      ...        8.756 sec (=   0.146 min)   0.8 %
                             ****ORCA TERMINATED NORMALLY****
TOTAL RUN TIME: 0 days 0 hours 17 minutes 52 seconds 84 msec
