
                                 *****************
                                 * O   R   C   A *
                                 *****************

           --- An Ab Initio, DFT and Semiempirical electronic structure package ---

                  #######################################################
                  #                        -***-                        #
                  #          Department of theory and spectroscopy      #
                  #               Directorship: Frank Neese             #
                  #        Max Planck Institute fuer Kohlenforschung    #
                  #                Kaiser Wilhelm Platz 1               #
                  #                 D-45470 Muelheim/Ruhr               #
                  #                      Germany                        #
                  #                                                     #
                  #                  All rights reserved                #
                  #                        -***-                        #
                  #######################################################


                         Program Version 4.2.0 -  RELEASE  -


 With contributions from (in alphabetic order):
   Daniel Aravena         : Magnetic Suceptibility
   Michael Atanasov       : Ab Initio Ligand Field Theory (pilot matlab implementation)
   Alexander A. Auer      : GIAO ZORA, VPT2
   Ute Becker             : Parallelization
   Giovanni Bistoni       : ED, misc. LED, open-shell LED, HFLED
   Martin Brehm           : Molecular dynamics
   Dmytro Bykov           : SCF Hessian
   Vijay G. Chilkuri      : MRCI spin determinant printing, contributions to CSF-ICE
   Dipayan Datta          : RHF DLPNO-CCSD density
   Achintya Kumar Dutta   : EOM-CC, STEOM-CC
   Dmitry Ganyushin       : Spin-Orbit,Spin-Spin,Magnetic field MRCI
   Miquel Garcia          : C-PCM Hessian, Gaussian charge scheme
   Yang Guo               : DLPNO-NEVPT2, CIM, IAO-localization
   Andreas Hansen         : Spin unrestricted coupled pair/coupled cluster methods
   Benjamin Helmich-Paris : CASSCF linear response (MC-RPA)
   Lee Huntington         : MR-EOM, pCC
   Robert Izsak           : Overlap fitted RIJCOSX, COSX-SCS-MP3, EOM
   Christian Kollmar      : KDIIS, OOCD, Brueckner-CCSD(T), CCSD density
   Simone Kossmann        : Meta GGA functionals, TD-DFT gradient, OOMP2, MP2 Hessian
   Martin Krupicka        : AUTO-CI
   Lucas Lang             : DCDCAS
   Dagmar Lenk            : GEPOL surface, SMD
   Dimitrios Liakos       : Extrapolation schemes; Compound Job, initial MDCI parallelization
   Dimitrios Manganas     : Further ROCIS development; embedding schemes
   Dimitrios Pantazis     : SARC Basis sets
   Taras Petrenko         : DFT Hessian,TD-DFT gradient, ASA, ECA, R-Raman, ABS, FL, XAS/XES, NRVS
   Peter Pinski           : DLPNO-MP2, DLPNO-MP2 Gradient
   Christoph Reimann      : Effective Core Potentials
   Marius Retegan         : Local ZFS, SOC
   Christoph Riplinger    : Optimizer, TS searches, QM/MM, DLPNO-CCSD(T), (RO)-DLPNO pert. Triples
   Tobias Risthaus        : Range-separated hybrids, TD-DFT gradient, RPA, STAB
   Michael Roemelt        : Original ROCIS implementation
   Masaaki Saitow         : Open-shell DLPNO-CCSD energy and density
   Barbara Sandhoefer     : DKH picture change effects
   Avijit Sen             : IP-ROCIS
   Kantharuban Sivalingam : CASSCF convergence, NEVPT2, FIC-MRCI
   Bernardo de Souza      : ESD, SOC TD-DFT
   Georgi Stoychev        : AutoAux, RI-MP2 NMR
   Willem Van den Heuvel  : Paramagnetic NMR
   Boris Wezisla          : Elementary symmetry handling
   Frank Wennmohs         : Technical directorship


 We gratefully acknowledge several colleagues who have allowed us to
 interface, adapt or use parts of their codes:
   Stefan Grimme, W. Hujo, H. Kruse,             : VdW corrections, initial TS optimization,
                  C. Bannwarth                     DFT functionals, gCP, sTDA/sTD-DF
   Ed Valeev, F. Pavosevic, A. Kumar             : LibInt (2-el integral package), F12 methods
   Garnet Chan, S. Sharma, J. Yang, R. Olivares  : DMRG
   Ulf Ekstrom                                   : XCFun DFT Library
   Mihaly Kallay                                 : mrcc  (arbitrary order and MRCC methods)
   Andreas Klamt, Michael Diedenhofen            : otool_cosmo (COSMO solvation model)
   Jiri Pittner, Ondrej Demel                    : Mk-CCSD
   Frank Weinhold                                : gennbo (NPA and NBO analysis)
   Christopher J. Cramer and Donald G. Truhlar   : smd solvation model
   Lars Goerigk                                  : TD-DFT with DH, B97 family of functionals
   V. Asgeirsson, H. Jonsson                     : NEB implementation
   FAccTs GmbH                                   : IRC, NEB, NEB-TS, Multilevel, MM, QM/MM, CI optimization
   S Lehtola, MJT Oliveira, MAL Marques          : LibXC Library


 Your calculation uses the libint2 library for the computation of 2-el integrals
 For citations please refer to: http://libint.valeyev.net

 Your ORCA version has been built with support for libXC version: 4.2.3
 For citations please refer to: https://tddft.org/programs/libxc/

 This ORCA versions uses:
   CBLAS   interface :  Fast vector & matrix operations
   LAPACKE interface :  Fast linear algebra routines
   SCALAPACK package :  Parallel linear algebra routines


XCFun DFT library Copyright 2009-2010 Ulf Ekstrom and contributors.
See http://admol.org/xcfun for more information. This is free soft-
ware; see the source code for copying conditions. There is ABSOLUTELY
NO WARRANTY; not even for MERCHANTABILITY or FITNESS FOR A PARTICULAR
PURPOSE. For details see the documentation. Scientific users of this 
library should cite U. Ekstrom, L. Visscher, R. Bast, A. J. Thorvald-
sen and K. Ruud; J.Chem.Theor.Comp. 2010, DOI: 10.1021/ct100117s
XCFun Version 0.99 
----- Orbital basis set information -----
Your calculation utilizes the basis: def2-SVP
   F. Weigend and R. Ahlrichs, Phys. Chem. Chem. Phys. 7, 3297 (2005).

----- AuxJ basis set information -----
Your calculation utilizes the auxiliary basis: def2/J
   F. Weigend, Phys. Chem. Chem. Phys. 8, 1057 (2006).

================================================================================
                                        WARNINGS
                       Please study these warnings very carefully!
================================================================================

INFO   : Checking CIS options ...

WARNING: CIS/ROCIS methods need fully converged wavefunctions
  ===> : Setting SCFConvForced true
         You can overwrite this default with %scf ConvForced false 


INFO   : the flag for use of LIBINT has been found!

================================================================================
                                       INPUT FILE
================================================================================
NAME = xtbopt.inp
|  1> # ORCA input file
|  2> # SCF done       -200.046839943801          0.000914148304
|  3> ! CAM-B3LYP def2-SVP def2/J RIJCOSX Grid4 TightSCF
|  4> %maxcore 5000
|  5> %tddft
|  6>     Mode sTDDFT
|  7>     Ethresh 5.0
|  8>     maxcore 5000
|  9> end
| 10> 
| 11> %pal
| 12>   nprocs 6
| 13>   end
| 14> * xyz 0 1
| 15>    C        5.34893         7.06631        -3.02676
| 16>    C        4.51654         8.15455        -3.06999
| 17>    C        3.56190         8.38612        -4.07772
| 18>    N        2.73221         8.60922        -4.84008
| 19>    C        4.53802         9.17368        -2.09767
| 20>    N        4.54865        10.04260        -1.34749
| 21>    C        5.54522         6.09987        -4.09596
| 22>    C        6.77446         5.41237        -3.87018
| 23>    C        7.20623         4.42805        -4.71197
| 24>    C        6.41108         4.07477        -5.82494
| 25>    C        5.18177         4.75888        -6.05501
| 26>    C        4.76561         5.78306        -5.17669
| 27>    C        4.39202         4.38489        -7.16072
| 28>    C        4.79512         3.38380        -8.00115
| 29>    C        6.00640         2.71306        -7.77615
| 30>    C        6.79808         3.05232        -6.71267
| 31>    C        7.39107         5.90605        -2.62659
| 32>    O        8.46264         5.61520        -2.14985
| 33>    C        6.35324         6.78774        -2.01098
| 34>    C        6.37905         7.00393        -0.67208
| 35>    C        5.32989         7.45134         0.18580
| 36>    C        5.49270         8.23271         1.29193
| 37>    C        4.18523         8.62437         1.77668
| 38>    C        3.96896         9.40230         2.92187
| 39>    N        3.80834        10.04120         3.86158
| 40>    C        3.22184         8.11283         0.94575
| 41>    C        3.87327         7.32211        -0.05460
| 42>    C        3.30167         6.50513        -1.00190
| 43>    C        2.03766         6.72601        -1.74391
| 44>    C        1.92430         5.70761        -2.66081
| 45>    C        3.04228         4.81991        -2.50808
| 46>    C        3.88803         5.31760        -1.54198
| 47>    C        3.27115         3.67169        -3.27960
| 48>    N        3.48461         2.75531        -3.93675
| 49>    C        1.25618         7.90046        -1.62101
| 50>    C        0.22255         8.22573        -2.44197
| 51>    C       -0.58690         9.38180        -2.34837
| 52>    O       -1.48124         9.53294        -3.34937
| 53>    C       -2.19387        10.65794        -3.14174
| 54>    C       -1.73515        11.27570        -1.98810
| 55>    C       -0.71471        10.46836        -1.45687
| 56>    C       -0.01839        10.73056        -0.18636
| 57>    O        0.57168         9.87227         0.43314
| 58>    C       -0.11916        12.14387         0.31974
| 59>    C       -3.21699        11.07459        -4.03845
| 60>    C       -3.78835        12.31846        -4.03870
| 61>    C       -4.64860        12.42783        -5.18872
| 62>    C       -5.43465        13.54226        -5.51212
| 63>    N       -6.06715        14.45896        -5.78981
| 64>    C       -4.56905        11.27281        -5.92773
| 65>    C       -3.72477        10.35115        -5.23369
| 66>    C       -3.54829         9.03107        -5.57384
| 67>    C       -3.72528         8.42998        -6.92047
| 68>    C       -3.54233         7.07954        -6.78528
| 69>    C       -3.28397         6.77977        -5.39869
| 70>    C       -3.26173         7.94902        -4.68174
| 71>    C       -3.05871         5.49683        -4.88181
| 72>    N       -2.84524         4.44940        -4.46358
| 73>    C       -3.89034         9.15936        -8.13186
| 74>    C       -4.17993         8.59401        -9.33309
| 75>    C       -4.31467         9.29658       -10.55904
| 76>    C       -4.77341        10.56927       -10.75218
| 77>    C       -4.75787        11.29648       -12.01030
| 78>    C       -4.03719        10.96627       -13.12895
| 79>    C       -4.04809        11.71512       -14.32434
| 80>    N       -4.01780        12.27526       -15.32595
| 81>    C       -3.17022         9.85924       -13.23958
| 82>    N       -2.43145         8.99429       -13.39850
| 83>    C       -5.57184        12.49449       -11.84836
| 84>    C       -6.05598        12.53366       -10.50940
| 85>    C       -5.59525        11.34307        -9.78553
| 86>    O       -5.91131        11.02353        -8.65625
| 87>    C       -6.82686        13.56115       -10.04517
| 88>    C       -7.16160        14.61628       -10.92224
| 89>    C       -6.69968        14.57606       -12.27013
| 90>    C       -5.89818        13.50071       -12.71874
| 91>    C       -7.05214        15.62852       -13.13902
| 92>    C       -7.81962        16.67251       -12.69832
| 93>    C       -8.26826        16.71357       -11.36966
| 94>    C       -7.94561        15.70756       -10.49948
| 95>    H        8.13939         3.91750        -4.52614
| 96>    H        3.82522         6.27947        -5.36224
| 97>    H        3.46024         4.90435        -7.32894
| 98>    H        4.18154         3.10154        -8.84334
| 99>    H        6.30785         1.92359        -8.44807
|100>    H        7.73003         2.53682        -6.53321
|101>    H        7.32131         6.76865        -0.18535
|102>    H        6.42165         8.57428         1.70883
|103>    H        2.16345         8.18772         1.10363
|104>    H        1.14462         5.56817        -3.38491
|105>    H        4.77007         4.83334        -1.16804
|106>    H        1.52576         8.58899        -0.83839
|107>    H       -0.03727         7.58235        -3.27213
|108>    H       -2.12347        12.18022        -1.56908
|109>    H       -1.13395        12.33601         0.66409
|110>    H        0.12142        12.85297        -0.46826
|111>    H        0.56304        12.27216         1.15615
|112>    H       -3.61857        13.11011        -3.33451
|113>    H       -5.16354        11.05267        -6.79231
|114>    H       -3.54184         6.33924        -7.56271
|115>    H       -3.17234         8.02125        -3.61629
|116>    H       -3.72018        10.22363        -8.08891
|117>    H       -4.25112         7.51664        -9.40409
|118>    H       -4.05158         8.72231       -11.44028
|119>    H       -7.16906        13.57353        -9.02074
|120>    H       -5.56485        13.50038       -13.74441
|121>    H       -6.70182        15.59490       -14.16026
|122>    H       -8.08384        17.47390       -13.37194
|123>    H       -8.87088        17.54622       -11.03920
|124>    H       -8.28522        15.73268        -9.47466
|125> *
|126> 
|127>                          ****END OF INPUT****
================================================================================

                       ****************************
                       * Single Point Calculation *
                       ****************************

---------------------------------
CARTESIAN COORDINATES (ANGSTROEM)
---------------------------------
  C      5.348930    7.066310   -3.026760
  C      4.516540    8.154550   -3.069990
  C      3.561900    8.386120   -4.077720
  N      2.732210    8.609220   -4.840080
  C      4.538020    9.173680   -2.097670
  N      4.548650   10.042600   -1.347490
  C      5.545220    6.099870   -4.095960
  C      6.774460    5.412370   -3.870180
  C      7.206230    4.428050   -4.711970
  C      6.411080    4.074770   -5.824940
  C      5.181770    4.758880   -6.055010
  C      4.765610    5.783060   -5.176690
  C      4.392020    4.384890   -7.160720
  C      4.795120    3.383800   -8.001150
  C      6.006400    2.713060   -7.776150
  C      6.798080    3.052320   -6.712670
  C      7.391070    5.906050   -2.626590
  O      8.462640    5.615200   -2.149850
  C      6.353240    6.787740   -2.010980
  C      6.379050    7.003930   -0.672080
  C      5.329890    7.451340    0.185800
  C      5.492700    8.232710    1.291930
  C      4.185230    8.624370    1.776680
  C      3.968960    9.402300    2.921870
  N      3.808340   10.041200    3.861580
  C      3.221840    8.112830    0.945750
  C      3.873270    7.322110   -0.054600
  C      3.301670    6.505130   -1.001900
  C      2.037660    6.726010   -1.743910
  C      1.924300    5.707610   -2.660810
  C      3.042280    4.819910   -2.508080
  C      3.888030    5.317600   -1.541980
  C      3.271150    3.671690   -3.279600
  N      3.484610    2.755310   -3.936750
  C      1.256180    7.900460   -1.621010
  C      0.222550    8.225730   -2.441970
  C     -0.586900    9.381800   -2.348370
  O     -1.481240    9.532940   -3.349370
  C     -2.193870   10.657940   -3.141740
  C     -1.735150   11.275700   -1.988100
  C     -0.714710   10.468360   -1.456870
  C     -0.018390   10.730560   -0.186360
  O      0.571680    9.872270    0.433140
  C     -0.119160   12.143870    0.319740
  C     -3.216990   11.074590   -4.038450
  C     -3.788350   12.318460   -4.038700
  C     -4.648600   12.427830   -5.188720
  C     -5.434650   13.542260   -5.512120
  N     -6.067150   14.458960   -5.789810
  C     -4.569050   11.272810   -5.927730
  C     -3.724770   10.351150   -5.233690
  C     -3.548290    9.031070   -5.573840
  C     -3.725280    8.429980   -6.920470
  C     -3.542330    7.079540   -6.785280
  C     -3.283970    6.779770   -5.398690
  C     -3.261730    7.949020   -4.681740
  C     -3.058710    5.496830   -4.881810
  N     -2.845240    4.449400   -4.463580
  C     -3.890340    9.159360   -8.131860
  C     -4.179930    8.594010   -9.333090
  C     -4.314670    9.296580  -10.559040
  C     -4.773410   10.569270  -10.752180
  C     -4.757870   11.296480  -12.010300
  C     -4.037190   10.966270  -13.128950
  C     -4.048090   11.715120  -14.324340
  N     -4.017800   12.275260  -15.325950
  C     -3.170220    9.859240  -13.239580
  N     -2.431450    8.994290  -13.398500
  C     -5.571840   12.494490  -11.848360
  C     -6.055980   12.533660  -10.509400
  C     -5.595250   11.343070   -9.785530
  O     -5.911310   11.023530   -8.656250
  C     -6.826860   13.561150  -10.045170
  C     -7.161600   14.616280  -10.922240
  C     -6.699680   14.576060  -12.270130
  C     -5.898180   13.500710  -12.718740
  C     -7.052140   15.628520  -13.139020
  C     -7.819620   16.672510  -12.698320
  C     -8.268260   16.713570  -11.369660
  C     -7.945610   15.707560  -10.499480
  H      8.139390    3.917500   -4.526140
  H      3.825220    6.279470   -5.362240
  H      3.460240    4.904350   -7.328940
  H      4.181540    3.101540   -8.843340
  H      6.307850    1.923590   -8.448070
  H      7.730030    2.536820   -6.533210
  H      7.321310    6.768650   -0.185350
  H      6.421650    8.574280    1.708830
  H      2.163450    8.187720    1.103630
  H      1.144620    5.568170   -3.384910
  H      4.770070    4.833340   -1.168040
  H      1.525760    8.588990   -0.838390
  H     -0.037270    7.582350   -3.272130
  H     -2.123470   12.180220   -1.569080
  H     -1.133950   12.336010    0.664090
  H      0.121420   12.852970   -0.468260
  H      0.563040   12.272160    1.156150
  H     -3.618570   13.110110   -3.334510
  H     -5.163540   11.052670   -6.792310
  H     -3.541840    6.339240   -7.562710
  H     -3.172340    8.021250   -3.616290
  H     -3.720180   10.223630   -8.088910
  H     -4.251120    7.516640   -9.404090
  H     -4.051580    8.722310  -11.440280
  H     -7.169060   13.573530   -9.020740
  H     -5.564850   13.500380  -13.744410
  H     -6.701820   15.594900  -14.160260
  H     -8.083840   17.473900  -13.371940
  H     -8.870880   17.546220  -11.039200
  H     -8.285220   15.732680   -9.474660

----------------------------
CARTESIAN COORDINATES (A.U.)
----------------------------
  NO LB      ZA    FRAG     MASS         X           Y           Z
   0 C     6.0000    0    12.011   10.108013   13.353391   -5.719747
   1 C     6.0000    0    12.011    8.535024   15.409866   -5.801440
   2 C     6.0000    0    12.011    6.731016   15.847470   -7.705774
   3 N     7.0000    0    14.007    5.163129   16.269068   -9.146426
   4 C     6.0000    0    12.011    8.575615   17.335743   -3.964022
   5 N     7.0000    0    14.007    8.595703   18.977764   -2.546387
   6 C     6.0000    0    12.011   10.478947   11.527084   -7.740243
   7 C     6.0000    0    12.011   12.801874   10.227897   -7.313580
   8 C     6.0000    0    12.011   13.617801    8.367802   -8.904333
   9 C     6.0000    0    12.011   12.115185    7.700199  -11.007541
  10 C     6.0000    0    12.011    9.792126    8.992980  -11.442311
  11 C     6.0000    0    12.011    9.005698   10.928400   -9.782526
  12 C     6.0000    0    12.011    8.299715    8.286241  -13.531800
  13 C     6.0000    0    12.011    9.061464    6.394455  -15.119982
  14 C     6.0000    0    12.011   11.350451    5.126940  -14.694794
  15 C     6.0000    0    12.011   12.846509    5.768049  -12.685108
  16 C     6.0000    0    12.011   13.967098   11.160817   -4.963536
  17 O     8.0000    0    15.999   15.992072   10.611190   -4.062628
  18 C     6.0000    0    12.011   12.005884   12.826970   -3.800201
  19 C     6.0000    0    12.011   12.054657   13.235510   -1.270047
  20 C     6.0000    0    12.011   10.072032   14.080992    0.351111
  21 C     6.0000    0    12.011   10.379699   15.557567    2.441394
  22 C     6.0000    0    12.011    7.908939   16.297697    3.357439
  23 C     6.0000    0    12.011    7.500247   17.767772    5.521534
  24 N     7.0000    0    14.007    7.196720   18.975118    7.297329
  25 C     6.0000    0    12.011    6.088395   15.331027    1.787208
  26 C     6.0000    0    12.011    7.319420   13.836783   -0.103179
  27 C     6.0000    0    12.011    6.239252   12.292914   -1.893317
  28 C     6.0000    0    12.011    3.850619   12.710317   -3.295512
  29 C     6.0000    0    12.011    3.636400   10.785820   -5.028202
  30 C     6.0000    0    12.011    5.749076    9.108310   -4.739584
  31 C     6.0000    0    12.011    7.347312   10.048808   -2.913920
  32 C     6.0000    0    12.011    6.181578    6.938489   -6.197546
  33 N     7.0000    0    14.007    6.584959    5.206781   -7.439379
  34 C     6.0000    0    12.011    2.373836   14.929706   -3.063265
  35 C     6.0000    0    12.011    0.420559   15.544377   -4.614655
  36 C     6.0000    0    12.011   -1.109080   17.729033   -4.437776
  37 O     8.0000    0    15.999   -2.799138   18.014646   -6.329392
  38 C     6.0000    0    12.011   -4.145813   20.140588   -5.937028
  39 C     6.0000    0    12.011   -3.278958   21.307985   -3.756965
  40 C     6.0000    0    12.011   -1.350606   19.782333   -2.753085
  41 C     6.0000    0    12.011   -0.034752   20.277820   -0.352169
  42 O     8.0000    0    15.999    1.080319   18.655887    0.818516
  43 C     6.0000    0    12.011   -0.225180   22.948589    0.604221
  44 C     6.0000    0    12.011   -6.079230   20.927942   -7.631565
  45 C     6.0000    0    12.011   -7.158944   23.278516   -7.632037
  46 C     6.0000    0    12.011   -8.784581   23.485195   -9.805260
  47 C     6.0000    0    12.011  -10.270000   25.591163  -10.416397
  48 N     7.0000    0    14.007  -11.465252   27.323475  -10.941155
  49 C     6.0000    0    12.011   -8.634253   21.302524  -11.201786
  50 C     6.0000    0    12.011   -7.038795   19.560839   -9.890241
  51 C     6.0000    0    12.011   -6.705296   17.066249  -10.533031
  52 C     6.0000    0    12.011   -7.039759   15.930354  -13.077793
  53 C     6.0000    0    12.011   -6.694034   13.378392  -12.822321
  54 C     6.0000    0    12.011   -6.205804   12.811909  -10.202046
  55 C     6.0000    0    12.011   -6.163776   15.021471   -8.847206
  56 C     6.0000    0    12.011   -5.780124   10.387503   -9.225284
  57 N     7.0000    0    14.007   -5.376724    8.408147   -8.434944
  58 C     6.0000    0    12.011   -7.351677   17.308682  -15.366988
  59 C     6.0000    0    12.011   -7.898923   16.240325  -17.636984
  60 C     6.0000    0    12.011   -8.153545   17.567990  -19.953694
  61 C     6.0000    0    12.011   -9.020438   19.973026  -20.318676
  62 C     6.0000    0    12.011   -8.991071   21.347253  -22.696178
  63 C     6.0000    0    12.011   -7.629183   20.723247  -24.810120
  64 C     6.0000    0    12.011   -7.649781   22.138368  -27.069080
  65 N     7.0000    0    14.007   -7.592542   23.196880  -28.961848
  66 C     6.0000    0    12.011   -5.990848   18.631263  -25.019180
  67 N     7.0000    0    14.007   -4.594775   16.996745  -25.319496
  68 C     6.0000    0    12.011  -10.529252   23.611164  -22.390156
  69 C     6.0000    0    12.011  -11.444144   23.685185  -19.859888
  70 C     6.0000    0    12.011  -10.573490   21.435296  -18.491972
  71 O     8.0000    0    15.999  -11.170757   20.831453  -16.357942
  72 C     6.0000    0    12.011  -12.900896   25.626860  -18.982620
  73 C     6.0000    0    12.011  -13.533463   27.620766  -20.640042
  74 C     6.0000    0    12.011  -12.660560   27.544762  -23.187185
  75 C     6.0000    0    12.011  -11.145945   25.512645  -24.034935
  76 C     6.0000    0    12.011  -13.326613   29.533623  -24.829149
  77 C     6.0000    0    12.011  -14.776940   31.506478  -23.996347
  78 C     6.0000    0    12.011  -15.624747   31.584070  -21.485544
  79 C     6.0000    0    12.011  -15.015027   29.682987  -19.841142
  80 H     1.0000    0     1.008   15.381218    7.403002   -8.553165
  81 H     1.0000    0     1.008    7.228618   11.866479  -10.133165
  82 H     1.0000    0     1.008    6.538906    9.267878  -13.849689
  83 H     1.0000    0     1.008    7.901965    5.861061  -16.711491
  84 H     1.0000    0     1.008   11.920109    3.635058  -15.964539
  85 H     1.0000    0     1.008   14.607640    4.793895  -12.345978
  86 H     1.0000    0     1.008   13.835271   12.790895   -0.350261
  87 H     1.0000    0     1.008   12.135160   16.203041    3.229221
  88 H     1.0000    0     1.008    4.088328   15.472548    2.085558
  89 H     1.0000    0     1.008    2.163018   10.522316   -6.396553
  90 H     1.0000    0     1.008    9.014126    9.133689   -2.207276
  91 H     1.0000    0     1.008    2.883269   16.230839   -1.584327
  92 H     1.0000    0     1.008   -0.070430   14.328565   -6.183430
  93 H     1.0000    0     1.008   -4.012777   23.017280   -2.965131
  94 H     1.0000    0     1.008   -2.142855   23.311680    1.254948
  95 H     1.0000    0     1.008    0.229451   24.288593   -0.884883
  96 H     1.0000    0     1.008    1.063991   23.191021    2.184807
  97 H     1.0000    0     1.008   -6.838106   24.774517   -6.301311
  98 H     1.0000    0     1.008   -9.757676   20.886519  -12.835606
  99 H     1.0000    0     1.008   -6.693108   11.979427  -14.291451
 100 H     1.0000    0     1.008   -5.994854   15.157966   -6.833798
 101 H     1.0000    0     1.008   -7.030121   19.319861  -15.285825
 102 H     1.0000    0     1.008   -8.033453   14.204391  -17.771155
 103 H     1.0000    0     1.008   -7.656377   16.482777  -21.618996
 104 H     1.0000    0     1.008  -13.547560   25.650254  -17.046728
 105 H     1.0000    0     1.008  -10.516042   25.512021  -25.973171
 106 H     1.0000    0     1.008  -12.664604   29.470090  -26.759013
 107 H     1.0000    0     1.008  -15.276244   33.020885  -25.269304
 108 H     1.0000    0     1.008  -16.763534   33.157550  -20.861065
 109 H     1.0000    0     1.008  -15.656797   29.730457  -17.904513

--------------------------------
INTERNAL COORDINATES (ANGSTROEM)
--------------------------------
 C      0   0   0     0.000000000000     0.00000000     0.00000000
 C      1   0   0     1.370769215660     0.00000000     0.00000000
 C      2   1   0     1.407295970079   124.41206979     0.00000000
 N      3   2   1     1.148630434779   175.72784760   144.75081238
 C      2   1   3     1.408720529310   122.90912998   180.40953613
 N      5   2   1     1.148000433667   177.13174295   139.69123607
 C      1   2   3     1.454553085212   125.89094001    10.66847262
 C      7   1   2     1.426416431481   108.67387165   160.44702012
 C      8   7   1     1.365255140770   121.49600487   179.01624045
 C      9   8   7     1.412718125388   119.21227428   359.42318141
 C     10   9   8     1.425532101743   119.50604614     0.56707896
 C      7   1   2     1.369721745867   131.06010657   339.44330158
 C     11  10   9     1.409314793330   118.84992040   180.71765310
 C     13  11  10     1.367842601691   120.73931248   359.96661475
 C     14  13  11     1.402753145069   120.38931347   359.88254632
 C     15  14  13     1.368519009879   120.37383408     0.03817311
 C      8   7   1     1.473242655709   109.43792660     1.07059707
 O     17   8   7     1.208361293240   128.57474826   184.29082449
 C      1   2   3     1.455351788881   126.37142133   179.70269451
 C     19   1   2     1.356487184680   132.18578224    36.09804867
 C     20  19   1     1.427189723933   128.99696490     7.94448970
 C     21  20  19     1.364027034153   125.40016118   213.30511971
 C     22  21  20     1.448398397886   108.57568409   171.92856684
 C     23  22  21     1.401216590645   124.26221676   178.19567265
 N     24  23  22     1.147626628525   179.16634917     4.03996554
 C     23  22  21     1.371217753896   109.30109620   358.36295875
 C     26  23  22     1.431886617648   108.04271191     2.95007217
 C     27  26  23     1.375340019922   128.32694045   172.14338716
 C     28  27  26     1.482257769283   127.63947737    36.51903500
 C     29  28  27     1.375025330530   107.08226601   175.06066699
 C     30  29  28     1.435693916996   108.83285839     1.80410743
 C     31  30  29     1.377075745411   109.23362966   357.06684294
 C     31  30  29     1.402153256852   125.09272909   180.55604052
 N     33  31  30     1.147677480175   177.82914450    95.79338568
 C     29  28  27     1.416032557147   123.41962388     3.86091881
 C     35  29  28     1.359473012384   124.44633827   168.62569266
 C     36  35  29     1.414379053649   126.20894633   179.55432468
 O     37  36  35     1.350810251368   114.91802385   174.81952177
 C     38  37  36     1.347804412294   109.22614648   179.52422121
 C     39  38  37     1.386699933511   108.97165450     1.26831355
 C     40  39  38     1.405454012802   107.38116489   358.66698615
 C     41  40  39     1.472347120247   124.55806518   183.80372372
 O     42  41  40     1.211868218496   123.04291222   158.94949740
 C     42  41  40     1.504572018549   115.20566793   340.55761323
 C     39  38  37     1.422835401935   121.83896642   180.11188782
 C     45  39  38     1.368818793340   124.49705490   193.64272397
 C     46  45  39     1.440325608951   108.56932300   172.49195423
 C     47  46  45     1.401576393708   125.42058115   178.21376207
 N     48  47  46     1.147827023597   179.12474012   105.93708604
 C     47  46  45     1.373511988663   109.33869267   357.64104725
 C     50  47  46     1.429670380053   108.36818746     3.71523831
 C     51  50  47     1.374575723378   125.08542904   170.99545459
 C     52  51  50     1.485276743607   126.70634383    25.28618874
 C     53  52  51     1.369465308871   107.07690896   184.29169792
 C     54  53  52     1.441958310979   108.89686843     1.29059352
 C     55  54  53     1.371735208632   109.16510610   357.97137687
 C     55  54  53     1.401371487365   125.01553566   179.46660058
 N     57  55  54     1.147865575187   178.52186600    89.39895976
 C     53  52  51     1.423624149872   125.30727390    11.19271383
 C     59  53  52     1.358836452079   124.31710983   186.68683325
 C     60  59  53     1.419405817587   125.29752493   181.72921372
 C     61  60  59     1.366559652302   127.94544934   328.08078176
 C     62  61  60     1.453252149525   125.78852247   172.91387747
 C     63  62  61     1.371056573960   126.26013418   344.83683839
 C     64  63  62     1.410621276105   124.02099743   180.60851568
 N     65  64  63     1.147996905832   176.54484461   185.29130020
 C     64  63  62     1.410457868460   125.17830756   359.30698502
 N     67  64  63     1.148553517168   175.78193398   195.95196527
 C     63  62  61     1.457394827972   108.00937278   168.71984403
 C     69  63  62     1.424338341161   108.47567709     1.49053427
 C     70  69  63     1.467570937945   109.55169155   358.49839671
 O     71  70  69     1.215431221254   126.15196029   185.68109204
 C     70  69  63     1.365833506471   122.14376224   178.43807569
 C     73  70  69     1.412303780849   118.99434877     0.34672191
 C     74  73  70     1.425410532759   119.29841491     0.64636612
 C     69  63  62     1.369867814207   131.77891931   180.94124526
 C     75  74  73     1.409563739353   118.73776682   179.36001473
 C     77  75  74     1.368633318497   120.74894925     0.20519098
 C     78  77  75     1.402961570678   120.43713780     0.08624093
 C     79  78  77     1.368711940110   120.34471491   359.85106112
 H      9   8   7     1.079806314577   120.53638702   180.01190628
 H     12   7   1     1.079437373218   121.67605698     0.28129931
 H     13  11  10     1.079977142536   118.55801771   179.82573593
 H     14  13  11     1.079553203923   120.21106456   179.75287760
 H     15  14  13     1.079634878003   119.40142287   179.83990532
 H     16  15  14     1.080035621681   120.66223597   179.80063713
 H     20  19   1     1.086331753609   115.10168108   185.54222908
 H     22  21  20     1.073975687527   126.88561108   356.17220114
 H     26  23  22     1.072718042451   125.30752950   175.42702631
 H     30  29  28     1.073156664239   127.30538723   181.83608019
 H     32  31  30     1.073467946797   125.87294242   175.55641222
 H     35  29  28     1.076680547656   117.08422158   350.46249939
 H     36  35  29     1.081947264149   120.24204465   358.40309604
 H     40  39  38     1.069825505959   125.62134115   180.93584548
 H     44  42  41     1.088711828814   109.54819117    70.90298078
 H     44  42  41     1.087035209365   110.73790093   311.03241295
 H     44  42  41     1.086939212744   109.12782019   189.81458191
 H     46  45  39     1.073041717269   127.17518242   354.40559292
 H     50  47  46     1.072090740609   125.06174842   174.87712029
 H     54  53  52     1.073518390620   127.48778468   183.72388641
 H     56  55  54     1.071630275561   125.34159278   174.60092803
 H     59  53  52     1.078642554788   116.95821470    10.05341537
 H     60  59  53     1.082051354142   119.09645330   357.16084701
 H     61  60  59     1.084244584307   114.63249351   150.59512555
 H     73  70  69     1.080143939158   120.64961947   180.90211959
 H     76  69  63     1.078474824324   122.03320476     1.57567441
 H     77  75  74     1.080178478030   118.58460925   180.07750026
 H     78  77  75     1.079723133447   120.16533459   179.98443805
 H     79  78  77     1.079657676535   119.40157020   179.85969246
 H     80  79  78     1.079917588939   120.80375334   179.87084586

---------------------------
INTERNAL COORDINATES (A.U.)
---------------------------
 C      0   0   0     0.000000000000     0.00000000     0.00000000
 C      1   0   0     2.590378410407     0.00000000     0.00000000
 C      2   1   0     2.659403972820   124.41206979     0.00000000
 N      3   2   1     2.170596950819   175.72784760   144.75081238
 C      2   1   3     2.662095999629   122.90912998   180.40953613
 N      5   2   1     2.169406421254   177.13174295   139.69123607
 C      1   2   3     2.748706978301   125.89094001    10.66847262
 C      7   1   2     2.695536408425   108.67387165   160.44702012
 C      8   7   1     2.579958318984   121.49600487   179.01624045
 C      9   8   7     2.669650361410   119.21227428   359.42318141
 C     10   9   8     2.693865267408   119.50604614     0.56707896
 C      7   1   2     2.588398979364   131.06010657   339.44330158
 C     11  10   9     2.663218995878   118.84992040   180.71765310
 C     13  11  10     2.584847911506   120.73931248   359.96661475
 C     14  13  11     2.650819277676   120.38931347   359.88254632
 C     15  14  13     2.586126137736   120.37383408     0.03817311
 C      8   7   1     2.784025148101   109.43792660     1.07059707
 O     17   8   7     2.283471915054   128.57474826   184.29082449
 C      1   2   3     2.750216309498   126.37142133   179.70269451
 C     19   1   2     2.563389283218   132.18578224    36.09804867
 C     20  19   1     2.696997719380   128.99696490     7.94448970
 C     21  20  19     2.577637533814   125.40016118   213.30511971
 C     22  21  20     2.737076304816   108.57568409   171.92856684
 C     23  22  21     2.647915610627   124.26221676   178.19567265
 N     24  23  22     2.168700031908   179.16634917     4.03996554
 C     23  22  21     2.591226024834   109.30109620   358.36295875
 C     26  23  22     2.705873562182   108.04271191     2.95007217
 C     27  26  23     2.599015978675   128.32694045   172.14338716
 C     28  27  26     2.801061243822   127.63947737    36.51903500
 C     29  28  27     2.598421301907   107.08226601   175.06066699
 C     30  29  28     2.713068315260   108.83285839     1.80410743
 C     31  30  29     2.602296024493   109.23362966   357.06684294
 C     31  30  29     2.649685653236   125.09272909   180.55604052
 N     33  31  30     2.168796127599   177.82914450    95.79338568
 C     29  28  27     2.675913729724   123.41962388     3.86091881
 C     35  29  28     2.569031679862   124.44633827   168.62569266
 C     36  35  29     2.672789060951   126.20894633   179.55432468
 O     37  36  35     2.552661433978   114.91802385   174.81952177
 C     38  37  36     2.546981221327   109.22614648   179.52422121
 C     39  38  37     2.620483104263   108.97165450     1.26831355
 C     40  39  38     2.655923178016   107.38116489   358.66698615
 C     41  40  39     2.782332831335   124.55806518   183.80372372
 O     42  41  40     2.290099043360   123.04291222   158.94949740
 C     42  41  40     2.843229063818   115.20566793   340.55761323
 C     39  38  37     2.688769243305   121.83896642   180.11188782
 C     45  39  38     2.586692646377   124.49705490   193.64272397
 C     46  45  39     2.721820944591   108.56932300   172.49195423
 C     47  46  45     2.648595539877   125.42058115   178.21376207
 N     48  47  46     2.169078723713   179.12474012   105.93708604
 C     47  46  45     2.595561500230   109.33869267   357.64104725
 C     50  47  46     2.701685480079   108.36818746     3.71523831
 C     51  50  47     2.597571667521   125.08542904   170.99545459
 C     52  51  50     2.806766278500   126.70634383    25.28618874
 C     53  52  51     2.587914383671   107.07690896   184.29169792
 C     54  53  52     2.724906304281   108.89686843     1.29059352
 C     55  54  53     2.592203872571   109.16510610   357.97137687
 C     55  54  53     2.648208323006   125.01553566   179.46660058
 N     57  55  54     2.169151575660   178.52186600    89.39895976
 C     53  52  51     2.690259760895   125.30727390    11.19271383
 C     59  53  52     2.567828755219   124.31710983   186.68683325
 C     60  59  53     2.682288268134   125.29752493   181.72921372
 C     61  60  59     2.582423488518   127.94544934   328.08078176
 C     62  61  60     2.746248566135   125.78852247   172.91387747
 C     63  62  61     2.590921438897   126.26013418   344.83683839
 C     64  63  62     2.665687890521   124.02099743   180.60851568
 N     65  64  63     2.169399754612   176.54484461   185.29130020
 C     64  63  62     2.665379094823   125.17830756   359.30698502
 N     67  64  63     2.170451597600   175.78193398   195.95196527
 C     63  62  61     2.754077093861   108.00937278   168.71984403
 C     69  63  62     2.691609386837   108.47567709     1.49053427
 C     70  69  63     2.773307154817   109.55169155   358.49839671
 O     71  70  69     2.296832142788   126.15196029   185.68109204
 C     70  69  63     2.581051271764   122.14376224   178.43807569
 C     73  70  69     2.668867363706   118.99434877     0.34672191
 C     74  73  70     2.693635535321   119.29841491     0.64636612
 C     69  63  62     2.588675008524   131.77891931   180.94124526
 C     75  74  73     2.663689435684   118.73776682   179.36001473
 C     77  75  74     2.586342149719   120.74894925     0.20519098
 C     78  77  75     2.651213144998   120.43713780     0.08624093
 C     79  78  77     2.586490723036   120.34471491   359.85106112
 H      9   8   7     2.040538212229   120.53638702   180.01190628
 H     12   7   1     2.039841014102   121.67605698     0.28129931
 H     13  11  10     2.040861030288   118.55801771   179.82573593
 H     14  13  11     2.040059902411   120.21106456   179.75287760
 H     15  14  13     2.040214244055   119.40142287   179.83990532
 H     16  15  14     2.040971539857   120.66223597   179.80063713
 H     20  19   1     2.052869504904   115.10168108   185.54222908
 H     22  21  20     2.029519923917   126.88561108   356.17220114
 H     26  23  22     2.027143319149   125.30752950   175.42702631
 H     30  29  28     2.027972194204   127.30538723   181.83608019
 H     32  31  30     2.028560432989   125.87294242   175.55641222
 H     35  29  28     2.034631368789   117.08422158   350.46249939
 H     36  35  29     2.044584020587   120.24204465   358.40309604
 H     40  39  38     2.021677217346   125.62134115   180.93584548
 H     44  42  41     2.057367195219   109.54819117    70.90298078
 H     44  42  41     2.054198843630   110.73790093   311.03241295
 H     44  42  41     2.054017436306   109.12782019   189.81458191
 H     46  45  39     2.027754975911   127.17518242   354.40559292
 H     50  47  46     2.025957890464   125.06174842   174.87712029
 H     54  53  52     2.028655758000   127.48778468   183.72388641
 H     56  55  54     2.025087737630   125.34159278   174.60092803
 H     59  53  52     2.038339024943   116.95821470    10.05341537
 H     60  59  53     2.044780722167   119.09645330   357.16084701
 H     61  60  59     2.048925326528   114.63249351   150.59512555
 H     73  70  69     2.041176230224   120.64961947   180.90211959
 H     76  69  63     2.038022060301   122.03320476     1.57567441
 H     77  75  74     2.041241499233   118.58460925   180.07750026
 H     78  77  75     2.040381022674   120.16533459   179.98443805
 H     79  78  77     2.040257327036   119.40157020   179.85969246
 H     80  79  78     2.040748490299   120.80375334   179.87084586

---------------------
BASIS SET INFORMATION
---------------------
There are 4 groups of distinct atoms

 Group   1 Type C   : 7s4p1d contracted to 3s2p1d pattern {511/31/1}
 Group   2 Type N   : 7s4p1d contracted to 3s2p1d pattern {511/31/1}
 Group   3 Type O   : 7s4p1d contracted to 3s2p1d pattern {511/31/1}
 Group   4 Type H   : 4s1p contracted to 2s1p pattern {31/1}

Atom   0C    basis set group =>   1
Atom   1C    basis set group =>   1
Atom   2C    basis set group =>   1
Atom   3N    basis set group =>   2
Atom   4C    basis set group =>   1
Atom   5N    basis set group =>   2
Atom   6C    basis set group =>   1
Atom   7C    basis set group =>   1
Atom   8C    basis set group =>   1
Atom   9C    basis set group =>   1
Atom  10C    basis set group =>   1
Atom  11C    basis set group =>   1
Atom  12C    basis set group =>   1
Atom  13C    basis set group =>   1
Atom  14C    basis set group =>   1
Atom  15C    basis set group =>   1
Atom  16C    basis set group =>   1
Atom  17O    basis set group =>   3
Atom  18C    basis set group =>   1
Atom  19C    basis set group =>   1
Atom  20C    basis set group =>   1
Atom  21C    basis set group =>   1
Atom  22C    basis set group =>   1
Atom  23C    basis set group =>   1
Atom  24N    basis set group =>   2
Atom  25C    basis set group =>   1
Atom  26C    basis set group =>   1
Atom  27C    basis set group =>   1
Atom  28C    basis set group =>   1
Atom  29C    basis set group =>   1
Atom  30C    basis set group =>   1
Atom  31C    basis set group =>   1
Atom  32C    basis set group =>   1
Atom  33N    basis set group =>   2
Atom  34C    basis set group =>   1
Atom  35C    basis set group =>   1
Atom  36C    basis set group =>   1
Atom  37O    basis set group =>   3
Atom  38C    basis set group =>   1
Atom  39C    basis set group =>   1
Atom  40C    basis set group =>   1
Atom  41C    basis set group =>   1
Atom  42O    basis set group =>   3
Atom  43C    basis set group =>   1
Atom  44C    basis set group =>   1
Atom  45C    basis set group =>   1
Atom  46C    basis set group =>   1
Atom  47C    basis set group =>   1
Atom  48N    basis set group =>   2
Atom  49C    basis set group =>   1
Atom  50C    basis set group =>   1
Atom  51C    basis set group =>   1
Atom  52C    basis set group =>   1
Atom  53C    basis set group =>   1
Atom  54C    basis set group =>   1
Atom  55C    basis set group =>   1
Atom  56C    basis set group =>   1
Atom  57N    basis set group =>   2
Atom  58C    basis set group =>   1
Atom  59C    basis set group =>   1
Atom  60C    basis set group =>   1
Atom  61C    basis set group =>   1
Atom  62C    basis set group =>   1
Atom  63C    basis set group =>   1
Atom  64C    basis set group =>   1
Atom  65N    basis set group =>   2
Atom  66C    basis set group =>   1
Atom  67N    basis set group =>   2
Atom  68C    basis set group =>   1
Atom  69C    basis set group =>   1
Atom  70C    basis set group =>   1
Atom  71O    basis set group =>   3
Atom  72C    basis set group =>   1
Atom  73C    basis set group =>   1
Atom  74C    basis set group =>   1
Atom  75C    basis set group =>   1
Atom  76C    basis set group =>   1
Atom  77C    basis set group =>   1
Atom  78C    basis set group =>   1
Atom  79C    basis set group =>   1
Atom  80H    basis set group =>   4
Atom  81H    basis set group =>   4
Atom  82H    basis set group =>   4
Atom  83H    basis set group =>   4
Atom  84H    basis set group =>   4
Atom  85H    basis set group =>   4
Atom  86H    basis set group =>   4
Atom  87H    basis set group =>   4
Atom  88H    basis set group =>   4
Atom  89H    basis set group =>   4
Atom  90H    basis set group =>   4
Atom  91H    basis set group =>   4
Atom  92H    basis set group =>   4
Atom  93H    basis set group =>   4
Atom  94H    basis set group =>   4
Atom  95H    basis set group =>   4
Atom  96H    basis set group =>   4
Atom  97H    basis set group =>   4
Atom  98H    basis set group =>   4
Atom  99H    basis set group =>   4
Atom 100H    basis set group =>   4
Atom 101H    basis set group =>   4
Atom 102H    basis set group =>   4
Atom 103H    basis set group =>   4
Atom 104H    basis set group =>   4
Atom 105H    basis set group =>   4
Atom 106H    basis set group =>   4
Atom 107H    basis set group =>   4
Atom 108H    basis set group =>   4
Atom 109H    basis set group =>   4
---------------------------------
AUXILIARY/J BASIS SET INFORMATION
---------------------------------
There are 4 groups of distinct atoms

 Group   1 Type C   : 12s5p4d2f1g contracted to 6s4p3d1f1g pattern {711111/2111/211/2/1}
 Group   2 Type N   : 12s5p4d2f1g contracted to 6s4p3d1f1g pattern {711111/2111/211/2/1}
 Group   3 Type O   : 12s5p4d2f1g contracted to 6s4p3d1f1g pattern {711111/2111/211/2/1}
 Group   4 Type H   : 5s2p1d contracted to 3s1p1d pattern {311/2/1}

Atom   0C    basis set group =>   1
Atom   1C    basis set group =>   1
Atom   2C    basis set group =>   1
Atom   3N    basis set group =>   2
Atom   4C    basis set group =>   1
Atom   5N    basis set group =>   2
Atom   6C    basis set group =>   1
Atom   7C    basis set group =>   1
Atom   8C    basis set group =>   1
Atom   9C    basis set group =>   1
Atom  10C    basis set group =>   1
Atom  11C    basis set group =>   1
Atom  12C    basis set group =>   1
Atom  13C    basis set group =>   1
Atom  14C    basis set group =>   1
Atom  15C    basis set group =>   1
Atom  16C    basis set group =>   1
Atom  17O    basis set group =>   3
Atom  18C    basis set group =>   1
Atom  19C    basis set group =>   1
Atom  20C    basis set group =>   1
Atom  21C    basis set group =>   1
Atom  22C    basis set group =>   1
Atom  23C    basis set group =>   1
Atom  24N    basis set group =>   2
Atom  25C    basis set group =>   1
Atom  26C    basis set group =>   1
Atom  27C    basis set group =>   1
Atom  28C    basis set group =>   1
Atom  29C    basis set group =>   1
Atom  30C    basis set group =>   1
Atom  31C    basis set group =>   1
Atom  32C    basis set group =>   1
Atom  33N    basis set group =>   2
Atom  34C    basis set group =>   1
Atom  35C    basis set group =>   1
Atom  36C    basis set group =>   1
Atom  37O    basis set group =>   3
Atom  38C    basis set group =>   1
Atom  39C    basis set group =>   1
Atom  40C    basis set group =>   1
Atom  41C    basis set group =>   1
Atom  42O    basis set group =>   3
Atom  43C    basis set group =>   1
Atom  44C    basis set group =>   1
Atom  45C    basis set group =>   1
Atom  46C    basis set group =>   1
Atom  47C    basis set group =>   1
Atom  48N    basis set group =>   2
Atom  49C    basis set group =>   1
Atom  50C    basis set group =>   1
Atom  51C    basis set group =>   1
Atom  52C    basis set group =>   1
Atom  53C    basis set group =>   1
Atom  54C    basis set group =>   1
Atom  55C    basis set group =>   1
Atom  56C    basis set group =>   1
Atom  57N    basis set group =>   2
Atom  58C    basis set group =>   1
Atom  59C    basis set group =>   1
Atom  60C    basis set group =>   1
Atom  61C    basis set group =>   1
Atom  62C    basis set group =>   1
Atom  63C    basis set group =>   1
Atom  64C    basis set group =>   1
Atom  65N    basis set group =>   2
Atom  66C    basis set group =>   1
Atom  67N    basis set group =>   2
Atom  68C    basis set group =>   1
Atom  69C    basis set group =>   1
Atom  70C    basis set group =>   1
Atom  71O    basis set group =>   3
Atom  72C    basis set group =>   1
Atom  73C    basis set group =>   1
Atom  74C    basis set group =>   1
Atom  75C    basis set group =>   1
Atom  76C    basis set group =>   1
Atom  77C    basis set group =>   1
Atom  78C    basis set group =>   1
Atom  79C    basis set group =>   1
Atom  80H    basis set group =>   4
Atom  81H    basis set group =>   4
Atom  82H    basis set group =>   4
Atom  83H    basis set group =>   4
Atom  84H    basis set group =>   4
Atom  85H    basis set group =>   4
Atom  86H    basis set group =>   4
Atom  87H    basis set group =>   4
Atom  88H    basis set group =>   4
Atom  89H    basis set group =>   4
Atom  90H    basis set group =>   4
Atom  91H    basis set group =>   4
Atom  92H    basis set group =>   4
Atom  93H    basis set group =>   4
Atom  94H    basis set group =>   4
Atom  95H    basis set group =>   4
Atom  96H    basis set group =>   4
Atom  97H    basis set group =>   4
Atom  98H    basis set group =>   4
Atom  99H    basis set group =>   4
Atom 100H    basis set group =>   4
Atom 101H    basis set group =>   4
Atom 102H    basis set group =>   4
Atom 103H    basis set group =>   4
Atom 104H    basis set group =>   4
Atom 105H    basis set group =>   4
Atom 106H    basis set group =>   4
Atom 107H    basis set group =>   4
Atom 108H    basis set group =>   4
Atom 109H    basis set group =>   4


           ************************************************************
           *        Program running with 6 parallel MPI-processes     *
           *              working on a common directory               *
           ************************************************************
------------------------------------------------------------------------------
                           ORCA GTO INTEGRAL CALCULATION
                           -- RI-GTO INTEGRALS CHOSEN --
------------------------------------------------------------------------------

                         BASIS SET STATISTICS AND STARTUP INFO

Gaussian basis set:
 # of primitive gaussian shells          ... 1110
 # of primitive gaussian functions       ... 2130
 # of contracted shells                  ...  570
 # of contracted basis functions         ... 1270
 Highest angular momentum                ...    2
 Maximum contraction depth               ...    5
Auxiliary gaussian basis set:
 # of primitive gaussian shells          ... 2160
 # of primitive gaussian functions       ... 6080
 # of contracted shells                  ... 1350
 # of contracted aux-basis functions     ... 4250
 Highest angular momentum                ...    4
 Maximum contraction depth               ...    7
Ratio of auxiliary to basis functions    ...  3.35
Integral package used                  ... LIBINT
 One Electron integrals                  ... done
 Ordering auxiliary basis shells         ... done
 Integral threshhold             Thresh  ...  2.500e-11
 Primitive cut-off               TCut    ...  2.500e-12
 Pre-screening matrix                    ... done
 Shell pair data                         ... 
 Ordering of the shell pairs             ... done (   0.013 sec) 57801 of 162735 pairs
 Determination of significant pairs      ... done (   0.000 sec)
 Creation of shell pair data             ... done (   0.007 sec)
 Storage of shell pair data              ... done (   0.012 sec)
 Shell pair data done in (   0.032 sec)
 Computing two index integrals           ... done
 Cholesky decomposition of the V-matrix  ... done


Timings:
 Total evaluation time                   ...   2.681 sec (  0.045 min)
 One electron matrix time                ...   0.741 sec (  0.012 min) = 27.6%
 Schwartz matrix evaluation time         ...   0.774 sec (  0.013 min) = 28.9%
 Two index repulsion integral time       ...   0.426 sec (  0.007 min) = 15.9%
 Cholesky decomposition of V             ...   0.691 sec (  0.012 min) = 25.8%
 Three index repulsion integral time     ...   0.000 sec (  0.000 min) =  0.0%



           ************************************************************
           *        Program running with 6 parallel MPI-processes     *
           *              working on a common directory               *
           ************************************************************
-------------------------------------------------------------------------------
                                 ORCA SCF
-------------------------------------------------------------------------------

------------
SCF SETTINGS
------------
Hamiltonian:
 Density Functional     Method          .... DFT(GTOs)
 Exchange Functional    Exchange        .... WB88
 Correlation Functional Correlation     .... LYP
 LDA part of GGA corr.  LDAOpt          .... VWN-5
 Gradients option       PostSCFGGA      .... off
 Hybrid DFT is turned on
   Fraction HF Exchange ScalHFX         ....  0.190000
   Scaling of DF-GGA-X  ScalDFX         ....  0.350000
   Scaling of DF-GGA-C  ScalDFC         ....  0.810000
   Scaling of DF-LDA-C  ScalLDAC        ....  1.000000
   Perturbative correction              ....  0.000000
   Density functional embedding theory  .... OFF
 Long-range corrected/Screened/Range-Separated Hybrid DFT is turned on
   Amount of maximum screened exact exchange              ....  0.460000
   Range separation parameter mu (erf(mu*r12)/r12)        ....  0.330000
 RI-approximation to the Coulomb term is turned on
   Number of auxiliary basis functions  .... 4250
   RIJ-COSX (HFX calculated with COS-X)).... on


General Settings:
 Integral files         IntName         .... xtbopt
 Hartree-Fock type      HFTyp           .... RHF
 Total Charge           Charge          ....    0
 Multiplicity           Mult            ....    1
 Number of Electrons    NEL             ....  526
 Basis Dimension        Dim             .... 1270
 Nuclear Repulsion      ENuc            ....  11255.4230319749 Eh

Convergence Acceleration:
 DIIS                   CNVDIIS         .... on
   Start iteration      DIISMaxIt       ....    12
   Startup error        DIISStart       ....  0.200000
   # of expansion vecs  DIISMaxEq       ....     5
   Bias factor          DIISBfac        ....   1.050
   Max. coefficient     DIISMaxC        ....  10.000
 Newton-Raphson         CNVNR           .... off
 SOSCF                  CNVSOSCF        .... on
   Start iteration      SOSCFMaxIt      ....   150
   Startup grad/error   SOSCFStart      ....  0.003300
 Level Shifting         CNVShift        .... on
   Level shift para.    LevelShift      ....    0.2500
   Turn off err/grad.   ShiftErr        ....    0.0010
 Zerner damping         CNVZerner       .... off
 Static damping         CNVDamp         .... on
   Fraction old density DampFac         ....    0.7000
   Max. Damping (<1)    DampMax         ....    0.9800
   Min. Damping (>=0)   DampMin         ....    0.0000
   Turn off err/grad.   DampErr         ....    0.1000
 Fernandez-Rico         CNVRico         .... off

SCF Procedure:
 Maximum # iterations   MaxIter         ....   125
 SCF integral mode      SCFMode         .... Direct
   Integral package                     .... LIBINT
 Reset frequency        DirectResetFreq ....    20
 Integral Threshold     Thresh          ....  2.500e-11 Eh
 Primitive CutOff       TCut            ....  2.500e-12 Eh

Convergence Tolerance:
 Convergence Check Mode ConvCheckMode   .... Total+1el-Energy
 Convergence forced     ConvForced      .... 1
 Energy Change          TolE            ....  1.000e-08 Eh
 1-El. energy change                    ....  1.000e-05 Eh
 Orbital Gradient       TolG            ....  1.000e-05
 Orbital Rotation angle TolX            ....  1.000e-05
 DIIS Error             TolErr          ....  5.000e-07


Diagonalization of the overlap matrix:
Smallest eigenvalue                        ... 1.922e-04
Time for diagonalization                   ...    0.251 sec
Threshold for overlap eigenvalues          ... 1.000e-08
Number of eigenvalues below threshold      ... 0
Time for construction of square roots      ...    0.181 sec
Total time needed                          ...    0.436 sec

-------------------
DFT GRID GENERATION
-------------------

General Integration Accuracy     IntAcc      ...  4.670
Radial Grid Type                 RadialGrid  ... Gauss-Chebyshev
Angular Grid (max. acc.)         AngularGrid ... Lebedev-302
Angular grid pruning method      GridPruning ... 3 (G Style)
Weight generation scheme         WeightScheme... Becke
Basis function cutoff            BFCut       ...    1.0000e-11
Integration weight cutoff        WCut        ...    1.0000e-14
Grids for H and He will be reduced by one unit

# of grid points (after initial pruning)     ... 598780 (   0.0 sec)
# of grid points (after weights+screening)   ... 505293 (   7.5 sec)
nearest neighbour list constructed           ...    0.0 sec
Grid point re-assignment to atoms done       ...    0.1 sec
Grid point division into batches done        ...    1.7 sec
Reduced shell lists constructed in    3.1 sec

Total number of grid points                  ...   505293
Total number of batches                      ...     7951
Average number of points per batch           ...       63
Average number of grid points per atom       ...     4594
Average number of shells per batch           ...   121.19 (21.26%)
Average number of basis functions per batch  ...   252.08 (19.85%)
Average number of large shells per batch     ...    72.06 (59.46%)
Average number of large basis fcns per batch ...   151.81 (60.22%)
Maximum spatial batch extension              ...  16.53, 18.46, 18.10 au
Average spatial batch extension              ...   0.30,  0.32,  0.31 au

Time for grid setup =   10.788 sec

------------------------------
INITIAL GUESS: MODEL POTENTIAL
------------------------------
Loading Hartree-Fock densities                     ... done
Calculating cut-offs                               ... done
Setting up the integral package                    ... done
Initializing the effective Hamiltonian             ... done
Starting the Coulomb interaction                   ... done (   1.8 sec)
Reading the grid                                   ... done
Mapping shells                                     ... done
Starting the XC term evaluation                    ... done (   1.6 sec)
  promolecular density results
     # of electrons  =    525.984077115
     EX              =   -441.428264315
     EC              =    -17.726589799
     EX+EC           =   -459.154854115
Transforming the Hamiltonian                       ... done (   0.1 sec)
Diagonalizing the Hamiltonian                      ... done (   0.2 sec)
Back transforming the eigenvectors                 ... done (   0.1 sec)
Now organizing SCF variables                       ... done
                      ------------------
                      INITIAL GUESS DONE (  14.8 sec)
                      ------------------
--------------------
COSX GRID GENERATION
--------------------

General Integration Accuracy     IntAcc      ...  3.340
Radial Grid Type                 RadialGrid  ... Gauss-Chebyshev
Angular Grid (max. acc.)         AngularGrid ... Lebedev-50
Angular grid pruning method      GridPruning ... 3 (G Style)
Weight generation scheme         WeightScheme... Becke
Basis function cutoff            BFCut       ...    1.0000e-11
Integration weight cutoff        WCut        ...    1.0000e-14
Grids for H and He will be reduced by one unit

# of grid points (after initial pruning)     ...  55888 (   0.0 sec)
# of grid points (after weights+screening)   ...  49543 (   0.7 sec)
nearest neighbour list constructed           ...    0.0 sec
Grid point re-assignment to atoms done       ...    0.0 sec
Grid point division into batches done        ...    0.0 sec
Reduced shell lists constructed in    0.2 sec

Total number of grid points                  ...    49543
Total number of batches                      ...      833
Average number of points per batch           ...       59
Average number of grid points per atom       ...      450
Average number of shells per batch           ...   144.21 (25.30%)
Average number of basis functions per batch  ...   304.32 (23.96%)
Average number of large shells per batch     ...    86.23 (59.79%)
Average number of large basis fcns per batch ...   183.99 (60.46%)
Maximum spatial batch extension              ...  17.30, 15.20, 17.74 au
Average spatial batch extension              ...   0.65,  0.75,  0.68 au

Overlap Fitting                  UseSFitting ... on
Constructing numerical overlap ... done (      0.1 sec)
Inverting numerical overlap    ... done (      0.1 sec)
Obtaining analytic overlap     ... done (      0.0 sec)
Final contraction and storage  ... done (      0.1 sec)


General Integration Accuracy     IntAcc      ...  3.670
Radial Grid Type                 RadialGrid  ... Gauss-Chebyshev
Angular Grid (max. acc.)         AngularGrid ... Lebedev-50
Angular grid pruning method      GridPruning ... 3 (G Style)
Weight generation scheme         WeightScheme... Becke
Basis function cutoff            BFCut       ...    1.0000e-11
Integration weight cutoff        WCut        ...    1.0000e-14
Grids for H and He will be reduced by one unit

# of grid points (after initial pruning)     ...  69656 (   0.0 sec)
# of grid points (after weights+screening)   ...  61421 (   0.8 sec)
nearest neighbour list constructed           ...    0.0 sec
Grid point re-assignment to atoms done       ...    0.0 sec
Grid point division into batches done        ...    0.0 sec
Reduced shell lists constructed in    0.2 sec

Total number of grid points                  ...    61421
Total number of batches                      ...     1014
Average number of points per batch           ...       60
Average number of grid points per atom       ...      558
Average number of shells per batch           ...   141.13 (24.76%)
Average number of basis functions per batch  ...   296.51 (23.35%)
Average number of large shells per batch     ...    83.91 (59.45%)
Average number of large basis fcns per batch ...   178.61 (60.24%)
Maximum spatial batch extension              ...  19.22, 16.51, 17.57 au
Average spatial batch extension              ...   0.59,  0.67,  0.60 au

Overlap Fitting                  UseSFitting ... on
Constructing numerical overlap ... done (      0.1 sec)
Inverting numerical overlap    ... done (      0.1 sec)
Obtaining analytic overlap     ... done (      0.0 sec)
Final contraction and storage  ... done (      0.1 sec)


General Integration Accuracy     IntAcc      ...  4.010
Radial Grid Type                 RadialGrid  ... Gauss-Chebyshev
Angular Grid (max. acc.)         AngularGrid ... Lebedev-110
Angular grid pruning method      GridPruning ... 3 (G Style)
Weight generation scheme         WeightScheme... Becke
Basis function cutoff            BFCut       ...    1.0000e-11
Integration weight cutoff        WCut        ...    1.0000e-14
Grids for H and He will be reduced by one unit

# of grid points (after initial pruning)     ... 137296 (   0.0 sec)
# of grid points (after weights+screening)   ... 119745 (   1.8 sec)
nearest neighbour list constructed           ...    0.0 sec
Grid point re-assignment to atoms done       ...    0.0 sec
Grid point division into batches done        ...    0.1 sec
Reduced shell lists constructed in    0.5 sec

Total number of grid points                  ...   119745
Total number of batches                      ...     1930
Average number of points per batch           ...       62
Average number of grid points per atom       ...     1089
Average number of shells per batch           ...   134.22 (23.55%)
Average number of basis functions per batch  ...   281.72 (22.18%)
Average number of large shells per batch     ...    80.63 (60.08%)
Average number of large basis fcns per batch ...   171.16 (60.76%)
Maximum spatial batch extension              ...  17.95, 17.11, 17.84 au
Average spatial batch extension              ...   0.50,  0.54,  0.49 au

Overlap Fitting                  UseSFitting ... on
Constructing numerical overlap ... done (      0.2 sec)
Inverting numerical overlap    ... done (      0.1 sec)
Obtaining analytic overlap     ... done (      0.0 sec)
Final contraction and storage  ... done (      0.1 sec)

Time for X-Grid setup             =    5.297 sec
--------------
SCF ITERATIONS
--------------
ITER       Energy         Delta-E        Max-DP      RMS-DP      [F,P]     Damp
               ***  Starting incremental Fock matrix formation  ***
  0  -3342.2427342614   0.000000000000 0.07797863  0.00095254  0.2332398 0.7000
  1  -3342.8455777295  -0.602843468087 0.04452365  0.00067523  0.1017798 0.7000
                               ***Turning on DIIS***
  2  -3343.0977560511  -0.252178321649 0.07614886  0.00127385  0.0437750 0.0000
  3  -3343.5557094785  -0.457953427371 0.04012718  0.00045317  0.0525289 0.0000
  4  -3343.6145843583  -0.058874879804 0.01463415  0.00015816  0.0268451 0.0000
  5  -3343.6243464124  -0.009762054102 0.00734738  0.00006644  0.0027252 0.0000
  6  -3343.6262837642  -0.001937351781 0.00337032  0.00004695  0.0025152 0.0000
  7  -3343.6276332519  -0.001349487689 0.00235255  0.00004042  0.0014229 0.0000
  8  -3343.6286053966  -0.000972144690 0.00208943  0.00003951  0.0016592 0.0000
  9  -3343.6293897593  -0.000784362681 0.00480812  0.00008545  0.0008787 0.0000
               *** Restarting incremental Fock matrix formation ***
                                   *** Resetting DIIS ***
                      *** Initiating the SOSCF procedure ***
                           *** Shutting down DIIS ***
                      *** Re-Reading the Fockian *** 
                      *** Removing any level shift *** 
ITER      Energy       Delta-E        Grad      Rot      Max-DP    RMS-DP
 10  -3343.63041644  -0.0010266799  0.001371  0.001371  0.002007  0.000023
               *** Restarting incremental Fock matrix formation ***
 11  -3343.63049811  -0.0000816668  0.001884  0.015565  0.001789  0.000027
 12  -3343.63056953  -0.0000714281  0.000713  0.011898  0.001820  0.000024
 13  -3343.63067041  -0.0001008774  0.000226  0.005941  0.001590  0.000018
 14  -3343.63066782   0.0000025911  0.000299  0.000740  0.000547  0.000007
 15  -3343.63068695  -0.0000191297  0.000078  0.000410  0.000362  0.000004
 16  -3343.63068612   0.0000008283  0.000079  0.000194  0.000180  0.000002
 17  -3343.63068778  -0.0000016587  0.000025  0.000135  0.000076  0.000001
 18  -3343.63068786  -0.0000000814  0.000042  0.000046  0.000048  0.000000
 19  -3343.63068786  -0.0000000029  0.000005  0.000044  0.000028  0.000000
 20  -3343.63068786   0.0000000088  0.000004  0.000027  0.000013  0.000000
                  ***Gradient check signals convergence***
              ***Rediagonalizing the Fockian in SOSCF/NRSCF***

               *****************************************************
               *                     SUCCESS                       *
               *           SCF CONVERGED AFTER  21 CYCLES          *
               *****************************************************

Setting up the final grid:

General Integration Accuracy     IntAcc      ...  5.010
Radial Grid Type                 RadialGrid  ... Gauss-Chebyshev
Angular Grid (max. acc.)         AngularGrid ... Lebedev-434
Angular grid pruning method      GridPruning ... 3 (G Style)
Weight generation scheme         WeightScheme... Becke
Basis function cutoff            BFCut       ...    1.0000e-11
Integration weight cutoff        WCut        ...    1.0000e-14
Grids for H and He will be reduced by one unit

# of grid points (after initial pruning)     ... 1056312 (   0.1 sec)
# of grid points (after weights+screening)   ... 888117 (  12.9 sec)
nearest neighbour list constructed           ...    0.0 sec
Grid point re-assignment to atoms done       ...    0.1 sec
Grid point division into batches done        ...    5.6 sec
Reduced shell lists constructed in    7.9 sec

Total number of grid points                  ...   888117
Total number of batches                      ...    13932
Average number of points per batch           ...       63
Average number of grid points per atom       ...     8074
Average number of shells per batch           ...   117.91 (20.69%)
Average number of basis functions per batch  ...   244.71 (19.27%)
Average number of large shells per batch     ...    70.01 (59.38%)
Average number of large basis fcns per batch ...   147.41 (60.24%)
Maximum spatial batch extension              ...  18.31, 19.37, 16.96 au
Average spatial batch extension              ...   0.25,  0.26,  0.25 au

Final grid set up in   21.0 sec
Final integration                            ... done (   3.8 sec)
Change in XC energy                          ...    -0.000066426
Integrated number of electrons               ...   526.000101629
Previous integrated no of electrons          ...   525.999352182
Old exchange energy                            =   -126.315921219 Eh
New exchange energy                            =   -126.316902541 Eh
Exchange energy change after final integration =     -0.000981322 Eh
Total energy after final integration           =  -3343.631735575 Eh
Final COS-X integration done in                =    78.877 sec

----------------
TOTAL SCF ENERGY
----------------

Total Energy       :        -3343.63173557 Eh          -90984.84511 eV

Components:
Nuclear Repulsion  :        11255.42303197 Eh          306275.63145 eV
Electronic Energy  :       -14599.05476755 Eh         -397260.47656 eV
One Electron Energy:       -26951.31590938 Eh         -733382.59034 eV
Two Electron Energy:        12352.26114183 Eh          336122.11379 eV

Virial components:
Potential Energy   :        -6656.48726103 Eh         -181132.22696 eV
Kinetic Energy     :         3312.85552545 Eh           90147.38185 eV
Virial Ratio       :            2.00928993


DFT components:
N(Alpha)           :      263.000050814493 electrons
N(Beta)            :      263.000050814493 electrons
N(Total)           :      526.000101628985 electrons
E(XC)              :     -341.280739599565 Eh       
DFET-embed. en.    :        0.000000000000 Eh       

---------------
SCF CONVERGENCE
---------------

  Last Energy change         ...    2.8325e-08  Tolerance :   1.0000e-08
  Last MAX-Density change    ...    7.1054e-15  Tolerance :   1.0000e-07
  Last RMS-Density change    ...    3.1117e-17  Tolerance :   5.0000e-09
  Last Orbital Gradient      ...    1.7998e-06  Tolerance :   1.0000e-05
  Last Orbital Rotation      ...    2.5070e-05  Tolerance :   1.0000e-05

             **** THE GBW FILE WAS UPDATED (xtbopt.gbw) ****
             **** DENSITY FILE WAS UPDATED (xtbopt.scfp) ****
             **** ENERGY FILE WAS UPDATED (xtbopt.en.tmp) ****
             **** THE GBW FILE WAS UPDATED (xtbopt.gbw) ****
             **** DENSITY FILE WAS UPDATED (xtbopt.scfp) ****
----------------
ORBITAL ENERGIES
----------------

  NO   OCC          E(Eh)            E(eV) 
   0   2.0000     -19.321136      -525.7548 
   1   2.0000     -19.224138      -523.1154 
   2   2.0000     -19.222568      -523.0727 
   3   2.0000     -19.218852      -522.9715 
   4   2.0000     -14.424627      -392.5141 
   5   2.0000     -14.423278      -392.4773 
   6   2.0000     -14.423226      -392.4759 
   7   2.0000     -14.422024      -392.4432 
   8   2.0000     -14.420585      -392.4041 
   9   2.0000     -14.417417      -392.3179 
  10   2.0000     -14.416312      -392.2878 
  11   2.0000     -14.412871      -392.1942 
  12   2.0000     -10.379291      -282.4349 
  13   2.0000     -10.375799      -282.3399 
  14   2.0000     -10.371118      -282.2125 
  15   2.0000     -10.366208      -282.0789 
  16   2.0000     -10.361415      -281.9484 
  17   2.0000     -10.351360      -281.6748 
  18   2.0000     -10.349108      -281.6135 
  19   2.0000     -10.344084      -281.4768 
  20   2.0000     -10.342633      -281.4374 
  21   2.0000     -10.340851      -281.3889 
  22   2.0000     -10.337900      -281.3086 
  23   2.0000     -10.335019      -281.2302 
  24   2.0000     -10.334577      -281.2181 
  25   2.0000     -10.333693      -281.1941 
  26   2.0000     -10.332819      -281.1703 
  27   2.0000     -10.332616      -281.1648 
  28   2.0000     -10.327684      -281.0306 
  29   2.0000     -10.326710      -281.0041 
  30   2.0000     -10.326323      -280.9935 
  31   2.0000     -10.326061      -280.9864 
  32   2.0000     -10.323294      -280.9111 
  33   2.0000     -10.321867      -280.8723 
  34   2.0000     -10.320699      -280.8405 
  35   2.0000     -10.320260      -280.8285 
  36   2.0000     -10.319770      -280.8152 
  37   2.0000     -10.319021      -280.7948 
  38   2.0000     -10.318474      -280.7800 
  39   2.0000     -10.315738      -280.7055 
  40   2.0000     -10.315101      -280.6882 
  41   2.0000     -10.315087      -280.6878 
  42   2.0000     -10.313951      -280.6569 
  43   2.0000     -10.311771      -280.5976 
  44   2.0000     -10.311486      -280.5898 
  45   2.0000     -10.309946      -280.5479 
  46   2.0000     -10.308638      -280.5123 
  47   2.0000     -10.308586      -280.5109 
  48   2.0000     -10.307812      -280.4898 
  49   2.0000     -10.307748      -280.4881 
  50   2.0000     -10.307584      -280.4836 
  51   2.0000     -10.307401      -280.4786 
  52   2.0000     -10.306098      -280.4432 
  53   2.0000     -10.304853      -280.4093 
  54   2.0000     -10.303717      -280.3784 
  55   2.0000     -10.301690      -280.3232 
  56   2.0000     -10.301179      -280.3093 
  57   2.0000     -10.300803      -280.2991 
  58   2.0000     -10.300197      -280.2826 
  59   2.0000     -10.299637      -280.2674 
  60   2.0000     -10.299241      -280.2566 
  61   2.0000     -10.299009      -280.2503 
  62   2.0000     -10.298841      -280.2457 
  63   2.0000     -10.298562      -280.2381 
  64   2.0000     -10.298440      -280.2348 
  65   2.0000     -10.298390      -280.2334 
  66   2.0000     -10.298302      -280.2310 
  67   2.0000     -10.297779      -280.2168 
  68   2.0000     -10.295566      -280.1566 
  69   2.0000     -10.292705      -280.0788 
  70   2.0000     -10.290853      -280.0283 
  71   2.0000     -10.287055      -279.9250 
  72   2.0000     -10.286735      -279.9163 
  73   2.0000     -10.286260      -279.9034 
  74   2.0000     -10.286066      -279.8981 
  75   2.0000     -10.285408      -279.8802 
  76   2.0000     -10.285040      -279.8702 
  77   2.0000     -10.284801      -279.8637 
  78   2.0000     -10.284463      -279.8545 
  79   2.0000     -10.279693      -279.7247 
  80   2.0000      -1.242342       -33.8058 
  81   2.0000      -1.140618       -31.0378 
  82   2.0000      -1.139511       -31.0077 
  83   2.0000      -1.134678       -30.8762 
  84   2.0000      -1.033274       -28.1168 
  85   2.0000      -1.027213       -27.9519 
  86   2.0000      -1.020084       -27.7579 
  87   2.0000      -1.018325       -27.7100 
  88   2.0000      -1.013947       -27.5909 
  89   2.0000      -1.010831       -27.5061 
  90   2.0000      -1.003533       -27.3075 
  91   2.0000      -1.001702       -27.2577 
  92   2.0000      -1.000797       -27.2331 
  93   2.0000      -1.000471       -27.2242 
  94   2.0000      -0.995667       -27.0935 
  95   2.0000      -0.995252       -27.0822 
  96   2.0000      -0.991306       -26.9748 
  97   2.0000      -0.985682       -26.8218 
  98   2.0000      -0.973612       -26.4933 
  99   2.0000      -0.973446       -26.4888 
 100   2.0000      -0.936221       -25.4759 
 101   2.0000      -0.934310       -25.4239 
 102   2.0000      -0.929781       -25.3006 
 103   2.0000      -0.928257       -25.2592 
 104   2.0000      -0.921241       -25.0683 
 105   2.0000      -0.912978       -24.8434 
 106   2.0000      -0.897571       -24.4241 
 107   2.0000      -0.896989       -24.4083 
 108   2.0000      -0.890910       -24.2429 
 109   2.0000      -0.887622       -24.1534 
 110   2.0000      -0.883709       -24.0470 
 111   2.0000      -0.882254       -24.0074 
 112   2.0000      -0.878960       -23.9177 
 113   2.0000      -0.869940       -23.6723 
 114   2.0000      -0.851195       -23.1622 
 115   2.0000      -0.842276       -22.9195 
 116   2.0000      -0.837175       -22.7807 
 117   2.0000      -0.830031       -22.5863 
 118   2.0000      -0.829888       -22.5824 
 119   2.0000      -0.828305       -22.5393 
 120   2.0000      -0.813229       -22.1291 
 121   2.0000      -0.810896       -22.0656 
 122   2.0000      -0.806085       -21.9347 
 123   2.0000      -0.791490       -21.5375 
 124   2.0000      -0.790859       -21.5204 
 125   2.0000      -0.765142       -20.8206 
 126   2.0000      -0.764435       -20.8013 
 127   2.0000      -0.755641       -20.5620 
 128   2.0000      -0.746778       -20.3209 
 129   2.0000      -0.743926       -20.2432 
 130   2.0000      -0.733793       -19.9675 
 131   2.0000      -0.732368       -19.9287 
 132   2.0000      -0.722733       -19.6666 
 133   2.0000      -0.711201       -19.3528 
 134   2.0000      -0.706351       -19.2208 
 135   2.0000      -0.704412       -19.1680 
 136   2.0000      -0.702363       -19.1123 
 137   2.0000      -0.700226       -19.0541 
 138   2.0000      -0.696850       -18.9623 
 139   2.0000      -0.694269       -18.8920 
 140   2.0000      -0.682200       -18.5636 
 141   2.0000      -0.679100       -18.4793 
 142   2.0000      -0.674290       -18.3484 
 143   2.0000      -0.666030       -18.1236 
 144   2.0000      -0.656909       -17.8754 
 145   2.0000      -0.656431       -17.8624 
 146   2.0000      -0.650721       -17.7070 
 147   2.0000      -0.648000       -17.6330 
 148   2.0000      -0.636005       -17.3066 
 149   2.0000      -0.634534       -17.2666 
 150   2.0000      -0.632224       -17.2037 
 151   2.0000      -0.613289       -16.6884 
 152   2.0000      -0.609757       -16.5923 
 153   2.0000      -0.608507       -16.5583 
 154   2.0000      -0.607412       -16.5285 
 155   2.0000      -0.606765       -16.5109 
 156   2.0000      -0.604116       -16.4388 
 157   2.0000      -0.602287       -16.3891 
 158   2.0000      -0.596541       -16.2327 
 159   2.0000      -0.595023       -16.1914 
 160   2.0000      -0.588528       -16.0147 
 161   2.0000      -0.588320       -16.0090 
 162   2.0000      -0.567462       -15.4414 
 163   2.0000      -0.565519       -15.3885 
 164   2.0000      -0.564279       -15.3548 
 165   2.0000      -0.558921       -15.2090 
 166   2.0000      -0.556266       -15.1368 
 167   2.0000      -0.550961       -14.9924 
 168   2.0000      -0.549832       -14.9617 
 169   2.0000      -0.548965       -14.9381 
 170   2.0000      -0.547416       -14.8959 
 171   2.0000      -0.545927       -14.8554 
 172   2.0000      -0.545423       -14.8417 
 173   2.0000      -0.540626       -14.7112 
 174   2.0000      -0.539367       -14.6769 
 175   2.0000      -0.538748       -14.6601 
 176   2.0000      -0.535810       -14.5801 
 177   2.0000      -0.534041       -14.5320 
 178   2.0000      -0.532046       -14.4777 
 179   2.0000      -0.529012       -14.3951 
 180   2.0000      -0.527037       -14.3414 
 181   2.0000      -0.525083       -14.2882 
 182   2.0000      -0.523175       -14.2363 
 183   2.0000      -0.521182       -14.1821 
[...]
  14   23357.8    428.1   0.097392020   1.37267  -0.85258  -0.13411  -0.79233
  15   23745.5    421.1   0.118808392   1.64718  -1.02371  -0.27206   0.72470
  16   24931.4    401.1   0.019461745   0.25699   0.00994  -0.09238  -0.49835
  17   24961.7    400.6   0.060178923   0.79368   0.12178   0.12410  -0.87376
  18   25095.5    398.5   0.018512736   0.24286  -0.10776   0.25212   0.40949
  19   25476.3    392.5   0.001607024   0.02077  -0.06968   0.10604  -0.06831
  20   25908.6    386.0   0.115265132   1.46464   1.08578  -0.46227   0.26840
  21   26514.9    377.1   0.188656813   2.34238   0.83733   0.18349   1.26791
  22   27188.2    367.8   0.041350033   0.50069  -0.24559   0.55783  -0.35946
  23   27610.7    362.2   0.222181705   2.64915   0.26246  -0.98068   1.27221
  24   27941.3    357.9   0.017751640   0.20915   0.21392  -0.35913   0.18552
  25   28090.5    356.0   0.014675715   0.17199   0.05017  -0.41036   0.03289
  26   28190.6    354.7   0.172895885   2.01909   0.73541  -1.04400   0.62316
  27   28468.3    351.3   0.066959088   0.77433  -0.12301   0.78814  -0.37152
  28   28642.6    349.1   0.086246643   0.99130   0.64577  -0.75620   0.04943
  29   29037.9    344.4   0.180451854   2.04584  -0.61360   1.16246   0.56393
  30   29484.0    339.2   0.014926093   0.16666   0.06591   0.33183   0.22849
  31   29699.5    336.7   0.089945654   0.99702  -0.57125   0.38850   0.72095
  32   29871.2    334.8   0.041907736   0.46187  -0.09788   0.07764   0.66803
  33   29944.2    334.0   0.107932250   1.18663  -0.17408   0.99242   0.41404
  34   30023.6    333.1   0.399177445   4.37702   0.37906   1.45694   1.45281
  35   30243.1    330.7   0.004109108   0.04473  -0.07474   0.18785  -0.06210
  36   30803.3    324.6   0.019168025   0.20486   0.32327  -0.26728  -0.17005
  37   30914.3    323.5   0.003487215   0.03714   0.03745  -0.15310  -0.11088
  38   30988.4    322.7   0.038636905   0.41047   0.03319   0.62359  -0.14318
  39   31134.6    321.2   0.005144389   0.05440   0.06505   0.10628   0.19715
  40   31547.5    317.0   0.059803499   0.62407  -0.16820  -0.61180   0.47063
  41   31807.2    314.4   0.323987445   3.35334  -0.90387   1.58637  -0.14068
  42   32174.5    310.8   0.145019449   1.48385   0.25350  -1.15096  -0.30802
  43   32354.5    309.1   0.060018400   0.61070   0.13060   0.59159  -0.49362
  44   32813.0    304.8   0.068928622   0.69156   0.18157  -0.79114   0.18080
  45   33017.7    302.9   0.002371743   0.02365   0.09682  -0.11799   0.01882
  46   33540.0    298.2   0.621992382   6.10516  -1.48152   1.86435   0.65912
  47   33591.1    297.7   0.007901109   0.07744  -0.02751  -0.08345   0.26404
  48   33928.5    294.7   0.279813550   2.71506   0.49462  -1.35718  -0.79276
  49   34083.2    293.4   0.038680839   0.37362  -0.24387   0.51138   0.22943
  50   34304.2    291.5   0.228212413   2.19012   0.53624  -1.35186  -0.27394
  51   34598.4    289.0   0.359965966   3.42516  -0.25625   1.34172   1.24871
  52   34785.5    287.5   0.474913000   4.49461  -0.48597   1.64866   1.24112
  53   35104.7    284.9   0.240075029   2.25143  -0.07163   1.25635   0.81723
  54   35179.9    284.3   0.125218463   1.17179   0.14573  -0.61938  -0.87574
  55   35271.8    283.5   0.006717235   0.06270   0.12914  -0.13201   0.16910
  56   35474.5    281.9   0.135550571   1.25794   0.79714  -0.76056  -0.20989
  57   35589.1    281.0   0.307092806   2.84072  -0.86788   1.26632  -0.69565
  58   36036.4    277.5   0.232706845   2.12590  -0.73994   0.64362  -1.07896
  59   36222.2    276.1   0.007286850   0.06623  -0.09684  -0.05219  -0.23265
  60   36711.5    272.4   0.077343509   0.69358  -0.40812   0.69632   0.20533
  61   36984.9    270.4   0.034817575   0.30992   0.14899  -0.45995  -0.27598
  62   37065.3    269.8   0.000411366   0.00365   0.01068  -0.04068  -0.04341
  63   37485.1    266.8   0.018439334   0.16194  -0.25469   0.10418  -0.29364
  64   37787.0    264.6   0.085474674   0.74468   0.18269  -0.25696   0.80329
  65   37941.4    263.6   0.071374897   0.61931   0.24449  -0.73507   0.13860
  66   38065.8    262.7   0.033132750   0.28655   0.35762  -0.29758  -0.26477
  67   38197.9    261.8   0.024659839   0.21253  -0.18073   0.29953   0.30026
  68   38362.2    260.7   0.105864139   0.90849   0.59748  -0.33094  -0.66483
  69   38535.8    259.5   0.139483526   1.19161   0.04185  -0.04118   1.09003
  70   38607.3    259.0   0.102980426   0.87813   0.51947  -0.75328   0.20212
  71   38802.8    257.7   0.139569558   1.18414  -0.37380   1.01778  -0.09242
  72   38973.8    256.6   0.114330385   0.96575   0.42920   0.45842   0.75590
  73   39002.8    256.4   0.036590359   0.30885  -0.38196   0.36422  -0.17406
  74   39463.6    253.4   0.012262790   0.10230  -0.18178   0.24286   0.10138
  75   39634.6    252.3   0.029141716   0.24206   0.27684   0.25454   0.31721
  76   39790.2    251.3   0.071845279   0.59443   0.19279  -0.22618  -0.71141
  77   40041.9    249.7   0.003593930   0.02955  -0.05103  -0.02760  -0.16181
  78   40164.5    249.0   0.023156225   0.18980   0.18594   0.03791   0.39216

-----------------------------------------------------------------------------
         ABSORPTION SPECTRUM VIA TRANSITION VELOCITY DIPOLE MOMENTS
-----------------------------------------------------------------------------
State   Energy  Wavelength   fosc         P2         PX        PY        PZ  
        (cm-1)    (nm)                  (au**2)     (au)      (au)      (au) 
-----------------------------------------------------------------------------
   0    7742.2   1291.6   0.261540630   0.01384  -0.08680   0.02234  -0.07620
   1    9274.9   1078.2   0.058249504   0.00369   0.04673  -0.03797   0.00820
   2   12539.7    797.5   0.068785152   0.00590  -0.00999   0.01158  -0.07524
   3   13520.5    739.6   0.017090682   0.00158   0.01164  -0.02687  -0.02687
   4   18124.5    551.7   0.055426826   0.00687   0.04691  -0.03063  -0.06105
   5   18668.2    535.7   0.071384019   0.00911  -0.08129   0.04896  -0.01016
   6   19469.8    513.6   0.038656655   0.00514   0.05191  -0.04922  -0.00519
   7   20708.2    482.9   0.004757047   0.00067  -0.00762  -0.00791   0.02351
   8   21006.2    476.0   0.051411236   0.00738   0.06283  -0.05715   0.01294
   9   21534.7    464.4   0.095566621   0.01407  -0.04703   0.05783  -0.09224
  10   21748.0    459.8   0.009478730   0.00141   0.01028  -0.02853   0.02211
  11   22258.9    449.3   0.276158633   0.04201  -0.00598   0.05020  -0.19864
  12   22364.6    447.1   0.149690737   0.02288   0.08226  -0.08343   0.09567
  13   22938.1    436.0   0.057201273   0.00897  -0.05402   0.03535  -0.06927
  14   23357.8    428.1   0.094647420   0.01511  -0.09047  -0.01740  -0.08138
  15   23745.5    421.1   0.118105736   0.01917  -0.10992  -0.03155   0.07804
  16   24931.4    401.1   0.020698933   0.00353   0.00057  -0.01143  -0.05827
  17   24961.7    400.6   0.064059725   0.01093   0.01080   0.01357  -0.10309
  18   25095.5    398.5   0.017531814   0.00301  -0.01135   0.02756   0.04603
  19   25476.3    392.5   0.001638422   0.00029  -0.00707   0.01191  -0.00967
  20   25908.6    386.0   0.117646384   0.02083   0.12930  -0.05726   0.02889
  21   26514.9    377.1   0.184556913   0.03344   0.09991   0.02180   0.15162
  22   27188.2    367.8   0.038667498   0.00719  -0.02981   0.06799  -0.04091
  23   27610.7    362.2   0.224181674   0.04230   0.03380  -0.12482   0.15994
  24   27941.3    357.9   0.018712647   0.00357   0.02766  -0.04637   0.02565
  25   28090.5    356.0   0.013893191   0.00267   0.00566  -0.05111   0.00485
  26   28190.6    354.7   0.173241080   0.03338   0.09409  -0.13381   0.08137
  27   28468.3    351.3   0.068016196   0.01323  -0.01745   0.10242  -0.04938
  28   28642.6    349.1   0.083288680   0.01630   0.08195  -0.09753   0.00875
  29   29037.9    344.4   0.188245456   0.03736  -0.08343   0.15761   0.07456
  30   29484.0    339.2   0.014913714   0.00301   0.00661   0.04519   0.03032
  31   29699.5    336.7   0.088347789   0.01793  -0.07740   0.05123   0.09653
  32   29871.2    334.8   0.038075790   0.00777  -0.01026   0.00701   0.08729
  33   29944.2    334.0   0.111365175   0.02279  -0.02451   0.13756   0.05717
  34   30023.6    333.1   0.392553950   0.08055   0.05186   0.19818   0.19643
  35   30243.1    330.7   0.003559085   0.00074  -0.01000   0.02323  -0.00980
  36   30803.3    324.6   0.018165387   0.00382   0.04262  -0.03652  -0.02596
  37   30914.3    323.5   0.003996442   0.00084   0.00502  -0.02336  -0.01654
  38   30988.4    322.7   0.038483597   0.00815   0.00393   0.08840  -0.01791
  39   31134.6    321.2   0.004923405   0.00105   0.00950   0.01529   0.02690
  40   31547.5    317.0   0.057910028   0.01249  -0.02167  -0.08856   0.06461
  41   31807.2    314.4   0.300616440   0.06535  -0.12689   0.22140  -0.01515
  42   32174.5    310.8   0.135200511   0.02973   0.03624  -0.16196  -0.04675
  43   32354.5    309.1   0.057088878   0.01262   0.01866   0.08589  -0.06999
  44   32813.0    304.8   0.064226338   0.01440   0.02594  -0.11434   0.02561
  45   33017.7    302.9   0.002199706   0.00050   0.01305  -0.01790   0.00241
  46   33540.0    298.2   0.578123365   0.13252  -0.21759   0.27482   0.09826
  47   33591.1    297.7   0.006905977   0.00159  -0.00214  -0.01380   0.03729
  48   33928.5    294.7   0.264348045   0.06130   0.07424  -0.20458  -0.11804
  49   34083.2    293.4   0.036116702   0.00841  -0.03645   0.07684   0.03435
  50   34304.2    291.5   0.210192192   0.04928   0.07977  -0.20324  -0.04013
  51   34598.4    289.0   0.334767518   0.07916  -0.03598   0.20356   0.19086
  52   34785.5    287.5   0.434925932   0.10340  -0.07365   0.24895   0.18973
  53   35104.7    284.9   0.218044356   0.05231  -0.01000   0.19113   0.12524
  54   35179.9    284.3   0.113678189   0.02733   0.02464  -0.09459  -0.13334
  55   35271.8    283.5   0.006393696   0.00154   0.02052  -0.02089   0.02615
  56   35474.5    281.9   0.130500101   0.03164   0.12702  -0.11978  -0.03404
  57   35589.1    281.0   0.280121507   0.06813  -0.13557   0.19743  -0.10382
  58   36036.4    277.5   0.212494341   0.05234  -0.11450   0.10159  -0.17002
  59   36222.2    276.1   0.005276344   0.00131  -0.01622  -0.00661  -0.03161
  60   36711.5    272.4   0.069806624   0.01751  -0.06552   0.10955   0.03495
  61   36984.9    270.4   0.031039999   0.00785   0.02322  -0.07293  -0.04458
  62   37065.3    269.8   0.000346725   0.00009   0.00167  -0.00617  -0.00686
  63   37485.1    266.8   0.015045501   0.00385  -0.03915   0.01475  -0.04587
  64   37787.0    264.6   0.074007772   0.01911   0.02815  -0.04048   0.12916
  65   37941.4    263.6   0.060823243   0.01577   0.03841  -0.11790   0.01994
  66   38065.8    262.7   0.029342590   0.00763   0.05819  -0.04870  -0.04330
  67   38197.9    261.8   0.023154982   0.00604  -0.03225   0.05108   0.04894
  68   38362.2    260.7   0.094979168   0.02490   0.09964  -0.05612  -0.10874
  69   38535.8    259.5   0.123863876   0.03262   0.00991  -0.00579   0.18025
  70   38607.3    259.0   0.092427086   0.02439   0.08736  -0.12503   0.03351
  71   38802.8    257.7   0.127326825   0.03377  -0.06299   0.17190  -0.01573
  72   38973.8    256.6   0.099967429   0.02663   0.07156   0.07634   0.12522
  73   39002.8    256.4   0.031673001   0.00844  -0.06363   0.05895  -0.03033
  74   39463.6    253.4   0.012068446   0.00326  -0.03275   0.04281   0.01870
  75   39634.6    252.3   0.025246727   0.00684   0.04706   0.04338   0.05237
  76   39790.2    251.3   0.058165898   0.01582   0.03090  -0.03478  -0.11685
  77   40041.9    249.7   0.002995663   0.00082  -0.00886  -0.00488  -0.02679
  78   40164.5    249.0   0.019791852   0.00543   0.03068   0.01015   0.06625

-------------------------------------------------------------------
                             CD SPECTRUM
-------------------------------------------------------------------
State   Energy Wavelength       R         MX        MY        MZ   
        (cm-1)   (nm)       (1e40*cgs)   (au)      (au)      (au)  
-------------------------------------------------------------------
   0    7742.2   1291.6     11.83479   1.59194   0.02082  -1.78619
   1    9274.9   1078.2    -58.07016   0.63143   0.44212   0.22849
   2   12539.7    797.5     14.85434   0.37169   0.26896   0.04547
   3   13520.5    739.6     57.63162   0.41416   0.65672   0.11086
   4   18124.5    551.7     43.13439   0.68418  -0.39438   1.04530
   5   18668.2    535.7     30.05277  -0.01178  -0.51586  -1.13130
   6   19469.8    513.6    -20.83853   0.73364   0.52576   0.39813
   7   20708.2    482.9     -3.72260  -0.42244  -0.34002  -0.17728
   8   21006.2    476.0      6.15437  -0.34086   0.01162   1.36584
   9   21534.7    464.4    -79.45972   0.89536   0.36110  -0.61330
  10   21748.0    459.8    -23.24432  -0.14297  -0.09286   0.42638
  11   22258.9    449.3    250.56581   1.61964   0.82136   0.68951
  12   22364.6    447.1    -147.30862  -0.65497  -0.36019   0.98085
  13   22938.1    436.0    -16.86496   0.94948   0.26253  -0.77427
  14   23357.8    428.1    -45.40677   1.00928   0.34083  -1.38683
  15   23745.5    421.1     49.69556  -0.81617   0.45200  -1.27415
  16   24931.4    401.1     -4.80626   0.74337  -0.73509   0.11017
  17   24961.7    400.6    -49.43933   1.20676  -1.00768  -0.21496
  18   25095.5    398.5      6.55967  -1.25277  -0.62095  -0.01533
  19   25476.3    392.5     -3.98996   0.14961  -0.01869  -0.42944
  20   25908.6    386.0    -51.15092  -0.22176   0.62830   2.78768
  21   26514.9    377.1      0.10360  -2.48515   2.61387   1.26259
  22   27188.2    367.8    -16.88698  -0.69618  -0.18873  -0.01654
  23   27610.7    362.2    222.82088  -0.75284  -0.42430  -0.91477
  24   27941.3    357.9     32.40077   0.29396   0.45797  -0.19331
  25   28090.5    356.0     13.40306   0.57925   0.21636   0.08703
  26   28190.6    354.7    194.41405   1.55313   1.59650  -0.48176
  27   28468.3    351.3    107.69770  -0.19062  -0.55052   0.12501
  28   28642.6    349.1     39.33489   2.09562   2.04768   0.57257
  29   29037.9    344.4    -50.53020  -1.40722   0.19879  -1.56082
  30   29484.0    339.2    -21.87921  -0.78411   0.06186   0.54255
  31   29699.5    336.7     46.33457  -1.62937   0.65560  -1.91699
  32   29871.2    334.8    112.86830  -0.80006  -0.26454  -0.80325
  33   29944.2    334.0    -133.73667  -1.03479   0.75807  -0.88183
  34   30023.6    333.1    -585.36324  -3.34152   1.64912   0.92734
  35   30243.1    330.7     -0.01853   0.31461   0.04307  -0.24964
  36   30803.3    324.6    -35.54331   0.77159   0.15395   0.33813
  37   30914.3    323.5     20.51981  -0.32532  -0.00570   0.68308
  38   30988.4    322.7    -10.53157  -0.24905   0.14144   0.24624
  39   31134.6    321.2     12.86559  -0.63738  -0.28403   0.08659
  40   31547.5    317.0    216.65310   0.11628   1.05221  -0.54355
  41   31807.2    314.4    -193.03539  -3.61461  -1.53293   0.11680
  42   32174.5    310.8    -114.70715   2.52276   0.04371   0.33305
  43   32354.5    309.1    301.85965  -0.10985  -0.95339   1.42257
  44   32813.0    304.8    308.91120   1.89733   1.90737  -0.80746
  45   33017.7    302.9    -10.42251  -0.25745  -0.47661   0.68587
  46   33540.0    298.2    -28.53043  -8.55857  -5.97094  -2.16461
  47   33591.1    297.7    -49.49946  -0.49838  -0.24144   0.66707
  48   33928.5    294.7    -150.49202   2.65579  -1.24476   2.98267
  49   34083.2    293.4    -29.20349  -0.99092   0.14644  -0.83970
  50   34304.2    291.5    -178.85173   2.17753   0.07674   1.11408
  51   34598.4    289.0     34.94430  -3.56753   1.50823  -2.47140
  52   34785.5    287.5    -191.42125  -3.73895   1.61854  -2.95973
  53   35104.7    284.9    -101.51796  -2.75955   1.09501  -1.39826
  54   35179.9    284.3    -39.15567   1.76512  -1.71596   1.31769
  55   35271.8    283.5    -26.55914  -0.47769  -0.58898   0.57132
  56   35474.5    281.9    -144.38884   0.82442  -0.47375   1.92935
  57   35589.1    281.0    140.30023   0.61585  -0.91646  -1.58099
  58   36036.4    277.5    -69.05347   2.09885  -0.19794  -1.82894
  59   36222.2    276.1      2.87369   1.05311   0.33976  -0.46216
  60   36711.5    272.4     11.99999  -2.06907  -0.99695  -0.97964
  61   36984.9    270.4    -25.85484   1.13880  -0.14763   0.46339
  62   37065.3    269.8      0.62752   0.17184   0.05659   0.05056
  63   37485.1    266.8    -18.53455  -0.10242  -1.05114  -0.55187
  64   37787.0    264.6     20.25214  -2.02182   0.04132   0.36608
  65   37941.4    263.6    -34.64450   0.65346   0.03042   0.06907
  66   38065.8    262.7     -4.03404   2.39243   2.07384   0.83593
  67   38197.9    261.8      5.94057  -1.06128   0.05846  -0.78106
  68   38362.2    260.7    -91.11102   4.36614   3.71787   1.49176
  69   38535.8    259.5    239.37897  -3.06430  -0.66574  -0.83915
  70   38607.3    259.0    -143.58206  -0.11402  -0.55929   1.22225
  71   38802.8    257.7    -32.99519  -0.63905  -0.21360  -1.28223
  72   38973.8    256.6    -139.97862  -1.45437   2.70204  -0.02730
  73   39002.8    256.4      9.63374  -0.47523  -0.92295  -0.65363
  74   39463.6    253.4      7.96408  -0.40052  -0.23622  -0.48553
  75   39634.6    252.3     84.99594  -1.10985  -0.44769   0.19114
  76   39790.2    251.3    -35.17842   3.49644   1.71263   0.19323
  77   40041.9    249.7      4.31504   0.42609   0.08256  -0.03534
  78   40164.5    249.0     14.34499  -0.67136   0.74339   0.09126

sTD-DFT done

Total run time:        4.416 sec

           *** ORCA-CIS/TD-DFT FINISHED WITHOUT ERROR ***

-------------------------   --------------------
FINAL SINGLE POINT ENERGY     -3343.631735574896
-------------------------   --------------------


                            ***************************************
                            *     ORCA property calculations      *
                            ***************************************

                                    ---------------------
                                    Active property flags
                                    ---------------------
   (+) Dipole Moment


------------------------------------------------------------------------------
                       ORCA ELECTRIC PROPERTIES CALCULATION
------------------------------------------------------------------------------

Dipole Moment Calculation                       ... on
Quadrupole Moment Calculation                   ... off
Polarizability Calculation                      ... off
GBWName                                         ... xtbopt.gbw
Electron density file                           ... xtbopt.scfp
The origin for moment calculation is the CENTER OF MASS  = (-0.410093, 17.059341 -10.253028)

-------------
DIPOLE MOMENT
-------------
                                X             Y             Z
Electronic contribution:      9.34869      -8.78090       5.16678
Nuclear contribution   :    -10.56241       9.37111      -5.12302
                        -----------------------------------------
Total Dipole Moment    :     -1.21372       0.59021       0.04376
                        -----------------------------------------
Magnitude (a.u.)       :      1.35033
Magnitude (Debye)      :      3.43226



--------------------
Rotational spectrum 
--------------------
 
Rotational constants in cm-1:     0.001286     0.000370     0.000317 
Rotational constants in MHz :    38.557358    11.086586     9.500435 

 Dipole components along the rotational axes: 
x,y,z [a.u.] :    -1.069404     0.748805    -0.345034 
x,y,z [Debye]:    -2.718209     1.903311    -0.877006 

 

Timings for individual modules:

Sum of individual times         ...      924.823 sec (=  15.414 min)
GTO integral calculation        ...        3.521 sec (=   0.059 min)   0.4 %
SCF iterations                  ...      915.915 sec (=  15.265 min)  99.0 %
CIS module                      ...        5.387 sec (=   0.090 min)   0.6 %
                             ****ORCA TERMINATED NORMALLY****
TOTAL RUN TIME: 0 days 0 hours 15 minutes 25 seconds 970 msec
