
                                 *****************
                                 * O   R   C   A *
                                 *****************

           --- An Ab Initio, DFT and Semiempirical electronic structure package ---

                  #######################################################
                  #                        -***-                        #
                  #          Department of theory and spectroscopy      #
                  #               Directorship: Frank Neese             #
                  #        Max Planck Institute fuer Kohlenforschung    #
                  #                Kaiser Wilhelm Platz 1               #
                  #                 D-45470 Muelheim/Ruhr               #
                  #                      Germany                        #
                  #                                                     #
                  #                  All rights reserved                #
                  #                        -***-                        #
                  #######################################################


                         Program Version 4.2.0 -  RELEASE  -


 With contributions from (in alphabetic order):
   Daniel Aravena         : Magnetic Suceptibility
   Michael Atanasov       : Ab Initio Ligand Field Theory (pilot matlab implementation)
   Alexander A. Auer      : GIAO ZORA, VPT2
   Ute Becker             : Parallelization
   Giovanni Bistoni       : ED, misc. LED, open-shell LED, HFLED
   Martin Brehm           : Molecular dynamics
   Dmytro Bykov           : SCF Hessian
   Vijay G. Chilkuri      : MRCI spin determinant printing, contributions to CSF-ICE
   Dipayan Datta          : RHF DLPNO-CCSD density
   Achintya Kumar Dutta   : EOM-CC, STEOM-CC
   Dmitry Ganyushin       : Spin-Orbit,Spin-Spin,Magnetic field MRCI
   Miquel Garcia          : C-PCM Hessian, Gaussian charge scheme
   Yang Guo               : DLPNO-NEVPT2, CIM, IAO-localization
   Andreas Hansen         : Spin unrestricted coupled pair/coupled cluster methods
   Benjamin Helmich-Paris : CASSCF linear response (MC-RPA)
   Lee Huntington         : MR-EOM, pCC
   Robert Izsak           : Overlap fitted RIJCOSX, COSX-SCS-MP3, EOM
   Christian Kollmar      : KDIIS, OOCD, Brueckner-CCSD(T), CCSD density
   Simone Kossmann        : Meta GGA functionals, TD-DFT gradient, OOMP2, MP2 Hessian
   Martin Krupicka        : AUTO-CI
   Lucas Lang             : DCDCAS
   Dagmar Lenk            : GEPOL surface, SMD
   Dimitrios Liakos       : Extrapolation schemes; Compound Job, initial MDCI parallelization
   Dimitrios Manganas     : Further ROCIS development; embedding schemes
   Dimitrios Pantazis     : SARC Basis sets
   Taras Petrenko         : DFT Hessian,TD-DFT gradient, ASA, ECA, R-Raman, ABS, FL, XAS/XES, NRVS
   Peter Pinski           : DLPNO-MP2, DLPNO-MP2 Gradient
   Christoph Reimann      : Effective Core Potentials
   Marius Retegan         : Local ZFS, SOC
   Christoph Riplinger    : Optimizer, TS searches, QM/MM, DLPNO-CCSD(T), (RO)-DLPNO pert. Triples
   Tobias Risthaus        : Range-separated hybrids, TD-DFT gradient, RPA, STAB
   Michael Roemelt        : Original ROCIS implementation
   Masaaki Saitow         : Open-shell DLPNO-CCSD energy and density
   Barbara Sandhoefer     : DKH picture change effects
   Avijit Sen             : IP-ROCIS
   Kantharuban Sivalingam : CASSCF convergence, NEVPT2, FIC-MRCI
   Bernardo de Souza      : ESD, SOC TD-DFT
   Georgi Stoychev        : AutoAux, RI-MP2 NMR
   Willem Van den Heuvel  : Paramagnetic NMR
   Boris Wezisla          : Elementary symmetry handling
   Frank Wennmohs         : Technical directorship


 We gratefully acknowledge several colleagues who have allowed us to
 interface, adapt or use parts of their codes:
   Stefan Grimme, W. Hujo, H. Kruse,             : VdW corrections, initial TS optimization,
                  C. Bannwarth                     DFT functionals, gCP, sTDA/sTD-DF
   Ed Valeev, F. Pavosevic, A. Kumar             : LibInt (2-el integral package), F12 methods
   Garnet Chan, S. Sharma, J. Yang, R. Olivares  : DMRG
   Ulf Ekstrom                                   : XCFun DFT Library
   Mihaly Kallay                                 : mrcc  (arbitrary order and MRCC methods)
   Andreas Klamt, Michael Diedenhofen            : otool_cosmo (COSMO solvation model)
   Jiri Pittner, Ondrej Demel                    : Mk-CCSD
   Frank Weinhold                                : gennbo (NPA and NBO analysis)
   Christopher J. Cramer and Donald G. Truhlar   : smd solvation model
   Lars Goerigk                                  : TD-DFT with DH, B97 family of functionals
   V. Asgeirsson, H. Jonsson                     : NEB implementation
   FAccTs GmbH                                   : IRC, NEB, NEB-TS, Multilevel, MM, QM/MM, CI optimization
   S Lehtola, MJT Oliveira, MAL Marques          : LibXC Library


 Your calculation uses the libint2 library for the computation of 2-el integrals
 For citations please refer to: http://libint.valeyev.net

 Your ORCA version has been built with support for libXC version: 4.2.3
 For citations please refer to: https://tddft.org/programs/libxc/

 This ORCA versions uses:
   CBLAS   interface :  Fast vector & matrix operations
   LAPACKE interface :  Fast linear algebra routines
   SCALAPACK package :  Parallel linear algebra routines


XCFun DFT library Copyright 2009-2010 Ulf Ekstrom and contributors.
See http://admol.org/xcfun for more information. This is free soft-
ware; see the source code for copying conditions. There is ABSOLUTELY
NO WARRANTY; not even for MERCHANTABILITY or FITNESS FOR A PARTICULAR
PURPOSE. For details see the documentation. Scientific users of this 
library should cite U. Ekstrom, L. Visscher, R. Bast, A. J. Thorvald-
sen and K. Ruud; J.Chem.Theor.Comp. 2010, DOI: 10.1021/ct100117s
XCFun Version 0.99 
----- Orbital basis set information -----
Your calculation utilizes the basis: def2-SVP
   F. Weigend and R. Ahlrichs, Phys. Chem. Chem. Phys. 7, 3297 (2005).

----- AuxJ basis set information -----
Your calculation utilizes the auxiliary basis: def2/J
   F. Weigend, Phys. Chem. Chem. Phys. 8, 1057 (2006).

================================================================================
                                        WARNINGS
                       Please study these warnings very carefully!
================================================================================

INFO   : Checking CIS options ...

WARNING: CIS/ROCIS methods need fully converged wavefunctions
  ===> : Setting SCFConvForced true
         You can overwrite this default with %scf ConvForced false 


INFO   : the flag for use of LIBINT has been found!

================================================================================
                                       INPUT FILE
================================================================================
NAME = xtbopt.inp
|  1> # ORCA input file
|  2> # SCF done       -229.617903648083          0.000750842210
|  3> ! CAM-B3LYP def2-SVP def2/J RIJCOSX Grid4 TightSCF
|  4> %maxcore 5000
|  5> %tddft
|  6>     Mode sTDDFT
|  7>     Ethresh 5.0
|  8>     maxcore 5000
|  9> end
| 10> 
| 11> %pal
| 12>   nprocs 6
| 13>   end
| 14> * xyz 0 1
| 15>    C       -2.95094         4.27274        -5.56192
| 16>    C       -3.56513         3.73643        -4.46502
| 17>    C       -4.95207         3.48401        -4.37723
| 18>    N       -6.06950         3.26211        -4.24370
| 19>    C       -2.88700         3.32040        -3.30381
| 20>    N       -2.37970         2.94950        -2.34248
| 21>    C       -3.58255         4.55914        -6.84137
| 22>    C       -2.57203         4.78399        -7.82461
| 23>    C       -2.88215         5.03559        -9.13099
| 24>    C       -4.23865         5.08169        -9.52096
| 25>    C       -5.25446         4.87907        -8.54065
| 26>    C       -4.90544         4.61901        -7.19669
| 27>    C       -6.60532         4.93463        -8.94175
| 28>    C       -6.93834         5.17325       -10.24725
| 29>    C       -5.93771         5.36937       -11.21145
| 30>    C       -4.61675         5.32519       -10.85610
| 31>    C       -1.25098         4.70747        -7.19241
| 32>    O       -0.15733         4.79434        -7.69378
| 33>    C       -1.52656         4.52758        -5.72430
| 34>    C       -0.50553         4.71937        -4.87683
| 35>    C       -0.41147         4.78981        -3.43322
| 36>    C        0.55442         4.01237        -2.79120
| 37>    C        1.41531         2.97734        -3.38262
| 38>    O        1.47298         2.57608        -4.51723
| 39>    N        2.24834         2.53500        -2.34389
| 40>    C        1.98527         3.19547        -1.13558
| 41>    O        2.59534         3.04879        -0.11434
| 42>    C        0.85334         4.11567        -1.43428
| 43>    C        0.18307         5.00723        -0.61820
| 44>    C       -0.81114         5.76087        -1.23184
| 45>    C       -1.11585         5.66232        -2.58908
| 46>    C       -2.20449         6.55555        -3.02772
| 47>    O       -2.67679         6.67067        -4.11855
| 48>    S       -2.81352         7.47249        -1.60881
| 49>    C       -1.58983         6.78597        -0.50544
| 50>    O       -1.42880         7.15242         0.62036
| 51>    C        3.34187         1.73737        -2.66742
| 52>    C        4.45151         1.55429        -1.94223
| 53>    C        5.66316         1.07463        -2.55287
| 54>    S        6.82465         0.16144        -1.64176
| 55>    C        7.90158         0.12928        -2.99282
| 56>    C        9.18065        -0.38989        -3.22429
| 57>    C        9.60774        -0.09937        -4.49838
| 58>    C       10.86698        -0.41185        -5.18999
| 59>    O       11.09796        -0.01777        -6.30061
| 60>    O       11.75341        -1.16366        -4.51490
| 61>    S        8.44775         0.80661        -5.42735
| 62>    C        7.36095         0.79634        -4.09367
| 63>    C        6.08368         1.34187        -3.85035
| 64>    C        5.31154         2.14757        -4.79312
| 65>    C        4.82208         3.40635        -4.43065
| 66>    C        5.05063         4.17187        -3.18613
| 67>    O        5.87737         4.03789        -2.32889
| 68>    N        4.06633         5.18366        -3.18558
| 69>    C        3.35304         5.21899        -4.39215
| 70>    O        2.44330         5.95906        -4.64774
| 71>    C        3.89525         4.10307        -5.20647
| 72>    C        3.49724         3.65580        -6.45582
| 73>    C        4.06236         2.45803        -6.87347
| 74>    C        4.91042         1.70021        -6.06129
| 75>    C        5.23357         0.36731        -6.60824
| 76>    O        5.83540        -0.51761        -6.07652
| 77>    S        4.52543         0.21925        -8.24955
| 78>    C        3.74381         1.83661        -8.17906
| 79>    O        3.09092         2.29246        -9.06379
| 80>    C        3.87204         5.96109        -2.05817
| 81>    C        2.86149         6.82369        -1.84971
| 82>    C        2.76849         7.51509        -0.60711
| 83>    C        1.76457         8.36111        -0.25619
| 84>    C        1.64591         9.11669         0.98523
| 85>    C        2.46621         9.03266         2.07712
| 86>    C        2.30101         9.79848         3.25231
| 87>    N        2.23334        10.39295         4.23157
| 88>    C        3.58628         8.18298         2.20305
| 89>    N        4.50994         7.52527         2.38366
| 90>    C        0.47705         9.97758         0.86755
| 91>    C       -0.13672         9.74804        -0.39769
| 92>    C        0.59652         8.69908        -1.10979
| 93>    O        0.26988         8.16436        -2.15517
| 94>    C       -1.26395        10.41485        -0.78752
| 95>    C       -1.84533        11.35370         0.09098
| 96>    C       -1.24045        11.58794         1.36009
| 97>    C       -0.07107        10.88756         1.73301
| 98>    C       -1.83230        12.52566         2.23055
| 99>    C       -2.96746        13.19816         1.86726
|100>    C       -3.56342        12.96409         0.61869
|101>    C       -3.01425        12.06149        -0.25117
|102>    H       -2.10008         5.19554        -9.85818
|103>    H       -5.69546         4.48039        -6.47551
|104>    H       -7.37198         4.78021        -8.19691
|105>    H       -7.97531         5.21124       -10.54511
|106>    H       -6.21911         5.55582       -12.23691
|107>    H       -3.84234         5.47551       -11.59378
|108>    H        0.45833         4.85669        -5.36670
|109>    H        0.40641         5.11872         0.43081
|110>    H        3.24733         1.34064        -3.67004
|111>    H        4.50299         1.85266        -0.90511
|112>    H        9.73996        -0.93144        -2.48150
|113>    H       11.43964        -1.42711        -3.64094
|114>    H        2.77253         4.17780        -7.06157
|115>    H        4.62110         5.76670        -1.29829
|116>    H        2.11270         7.01054        -2.60394
|117>    H        3.57880         7.34315         0.08934
|118>    H       -1.70878        10.22781        -1.75364
|119>    H        0.35994        11.08739         2.70095
|120>    H       -1.37177        12.70119         3.19160
|121>    H       -3.41349        13.91410         2.54113
|122>    H       -4.46004        13.50225         0.35013
|123>    H       -3.46916        11.87407        -1.21263
|124> *
|125> 
|126>                          ****END OF INPUT****
================================================================================

                       ****************************
                       * Single Point Calculation *
                       ****************************

---------------------------------
CARTESIAN COORDINATES (ANGSTROEM)
---------------------------------
  C     -2.950940    4.272740   -5.561920
  C     -3.565130    3.736430   -4.465020
  C     -4.952070    3.484010   -4.377230
  N     -6.069500    3.262110   -4.243700
  C     -2.887000    3.320400   -3.303810
  N     -2.379700    2.949500   -2.342480
  C     -3.582550    4.559140   -6.841370
  C     -2.572030    4.783990   -7.824610
  C     -2.882150    5.035590   -9.130990
  C     -4.238650    5.081690   -9.520960
  C     -5.254460    4.879070   -8.540650
  C     -4.905440    4.619010   -7.196690
  C     -6.605320    4.934630   -8.941750
  C     -6.938340    5.173250  -10.247250
  C     -5.937710    5.369370  -11.211450
  C     -4.616750    5.325190  -10.856100
  C     -1.250980    4.707470   -7.192410
  O     -0.157330    4.794340   -7.693780
  C     -1.526560    4.527580   -5.724300
  C     -0.505530    4.719370   -4.876830
  C     -0.411470    4.789810   -3.433220
  C      0.554420    4.012370   -2.791200
  C      1.415310    2.977340   -3.382620
  O      1.472980    2.576080   -4.517230
  N      2.248340    2.535000   -2.343890
  C      1.985270    3.195470   -1.135580
  O      2.595340    3.048790   -0.114340
  C      0.853340    4.115670   -1.434280
  C      0.183070    5.007230   -0.618200
  C     -0.811140    5.760870   -1.231840
  C     -1.115850    5.662320   -2.589080
  C     -2.204490    6.555550   -3.027720
  O     -2.676790    6.670670   -4.118550
  S     -2.813520    7.472490   -1.608810
  C     -1.589830    6.785970   -0.505440
  O     -1.428800    7.152420    0.620360
  C      3.341870    1.737370   -2.667420
  C      4.451510    1.554290   -1.942230
  C      5.663160    1.074630   -2.552870
  S      6.824650    0.161440   -1.641760
  C      7.901580    0.129280   -2.992820
  C      9.180650   -0.389890   -3.224290
  C      9.607740   -0.099370   -4.498380
  C     10.866980   -0.411850   -5.189990
  O     11.097960   -0.017770   -6.300610
  O     11.753410   -1.163660   -4.514900
  S      8.447750    0.806610   -5.427350
  C      7.360950    0.796340   -4.093670
  C      6.083680    1.341870   -3.850350
  C      5.311540    2.147570   -4.793120
  C      4.822080    3.406350   -4.430650
  C      5.050630    4.171870   -3.186130
  O      5.877370    4.037890   -2.328890
  N      4.066330    5.183660   -3.185580
  C      3.353040    5.218990   -4.392150
  O      2.443300    5.959060   -4.647740
  C      3.895250    4.103070   -5.206470
  C      3.497240    3.655800   -6.455820
  C      4.062360    2.458030   -6.873470
  C      4.910420    1.700210   -6.061290
  C      5.233570    0.367310   -6.608240
  O      5.835400   -0.517610   -6.076520
  S      4.525430    0.219250   -8.249550
  C      3.743810    1.836610   -8.179060
  O      3.090920    2.292460   -9.063790
  C      3.872040    5.961090   -2.058170
  C      2.861490    6.823690   -1.849710
  C      2.768490    7.515090   -0.607110
  C      1.764570    8.361110   -0.256190
  C      1.645910    9.116690    0.985230
  C      2.466210    9.032660    2.077120
  C      2.301010    9.798480    3.252310
  N      2.233340   10.392950    4.231570
  C      3.586280    8.182980    2.203050
  N      4.509940    7.525270    2.383660
  C      0.477050    9.977580    0.867550
  C     -0.136720    9.748040   -0.397690
  C      0.596520    8.699080   -1.109790
  O      0.269880    8.164360   -2.155170
  C     -1.263950   10.414850   -0.787520
  C     -1.845330   11.353700    0.090980
  C     -1.240450   11.587940    1.360090
  C     -0.071070   10.887560    1.733010
  C     -1.832300   12.525660    2.230550
  C     -2.967460   13.198160    1.867260
  C     -3.563420   12.964090    0.618690
  C     -3.014250   12.061490   -0.251170
  H     -2.100080    5.195540   -9.858180
  H     -5.695460    4.480390   -6.475510
  H     -7.371980    4.780210   -8.196910
  H     -7.975310    5.211240  -10.545110
  H     -6.219110    5.555820  -12.236910
  H     -3.842340    5.475510  -11.593780
  H      0.458330    4.856690   -5.366700
  H      0.406410    5.118720    0.430810
  H      3.247330    1.340640   -3.670040
  H      4.502990    1.852660   -0.905110
  H      9.739960   -0.931440   -2.481500
  H     11.439640   -1.427110   -3.640940
  H      2.772530    4.177800   -7.061570
  H      4.621100    5.766700   -1.298290
  H      2.112700    7.010540   -2.603940
  H      3.578800    7.343150    0.089340
  H     -1.708780   10.227810   -1.753640
  H      0.359940   11.087390    2.700950
  H     -1.371770   12.701190    3.191600
  H     -3.413490   13.914100    2.541130
  H     -4.460040   13.502250    0.350130
  H     -3.469160   11.874070   -1.212630

----------------------------
CARTESIAN COORDINATES (A.U.)
----------------------------
  NO LB      ZA    FRAG     MASS         X           Y           Z
   0 C     6.0000    0    12.011   -5.576468    8.074308  -10.510506
   1 C     6.0000    0    12.011   -6.737119    7.060829   -8.437665
   2 C     6.0000    0    12.011   -9.358056    6.583825   -8.271766
   3 N     7.0000    0    14.007  -11.469693    6.164495   -8.019431
   4 C     6.0000    0    12.011   -5.455639    6.274647   -6.243296
   5 N     7.0000    0    14.007   -4.496981    5.573747   -4.426646
   6 C     6.0000    0    12.011   -6.770038    8.615526  -12.928316
   7 C     6.0000    0    12.011   -4.860432    9.040431  -14.786370
   8 C     6.0000    0    12.011   -5.446474    9.515886  -17.255070
   9 C     6.0000    0    12.011   -8.009888    9.603002  -17.992007
  10 C     6.0000    0    12.011   -9.929490    9.220106  -16.139490
  11 C     6.0000    0    12.011   -9.269938    8.728664  -13.599773
  12 C     6.0000    0    12.011  -12.482246    9.325099  -16.897459
  13 C     6.0000    0    12.011  -13.111562    9.776026  -19.364496
  14 C     6.0000    0    12.011  -11.220646   10.146639  -21.186570
  15 C     6.0000    0    12.011   -8.724393   10.063151  -20.515056
  16 C     6.0000    0    12.011   -2.364010    8.895829  -13.591685
  17 O     8.0000    0    15.999   -0.297311    9.059990  -14.539137
  18 C     6.0000    0    12.011   -2.884780    8.555886  -10.817359
  19 C     6.0000    0    12.011   -0.955313    8.918317   -9.215873
  20 C     6.0000    0    12.011   -0.777566    9.051429   -6.487846
  21 C     6.0000    0    12.011    1.047702    7.582280   -5.274604
  22 C     6.0000    0    12.011    2.674548    5.626357   -6.392225
  23 O     8.0000    0    15.999    2.783529    4.868086   -8.536328
  24 N     7.0000    0    14.007    4.248747    4.790456   -4.429310
  25 C     6.0000    0    12.011    3.751617    6.038563   -2.145935
  26 O     8.0000    0    15.999    4.904482    5.761378   -0.216071
  27 C     6.0000    0    12.011    1.612579    7.777489   -2.710396
  28 C     6.0000    0    12.011    0.345952    9.462293   -1.168229
  29 C     6.0000    0    12.011   -1.532832   10.886467   -2.327840
  30 C     6.0000    0    12.011   -2.108651   10.700234   -4.892652
  31 C     6.0000    0    12.011   -4.165882   12.388194   -5.721562
  32 O     8.0000    0    15.999   -5.058400   12.605739   -7.782932
  33 S    16.0000    0    32.060   -5.316782   14.120960   -3.040210
  34 C     6.0000    0    12.011   -3.004343   12.823625   -0.955143
  35 O     8.0000    0    15.999   -2.700041   13.516115    1.172311
  36 C     6.0000    0    12.011    6.315219    3.283153   -5.040693
  37 C     6.0000    0    12.011    8.412135    2.937182   -3.670283
  38 C     6.0000    0    12.011   10.701821    2.030756   -4.824225
  39 S    16.0000    0    32.060   12.896719    0.305077   -3.102477
  40 C     6.0000    0    12.011   14.931822    0.244304   -5.655610
  41 C     6.0000    0    12.011   17.348914   -0.736785   -6.093025
  42 C     6.0000    0    12.011   18.155997   -0.187782   -8.500706
  43 C     6.0000    0    12.011   20.535616   -0.778284   -9.807660
  44 O     8.0000    0    15.999   20.972105   -0.033580  -11.906427
  45 O     8.0000    0    15.999   22.210726   -2.198999   -8.531925
  46 S    16.0000    0    32.060   15.963934    1.524272  -10.256205
  47 C     6.0000    0    12.011   13.910180    1.504865   -7.735915
  48 C     6.0000    0    12.011   11.496489    2.535767   -7.276107
  49 C     6.0000    0    12.011   10.037356    4.058319   -9.057684
  50 C     6.0000    0    12.011    9.112411    6.437069   -8.372715
  51 C     6.0000    0    12.011    9.544308    7.883692   -6.020913
  52 O     8.0000    0    15.999   11.106620    7.630506   -4.400964
  53 N     7.0000    0    14.007    7.684250    9.795698   -6.019874
  54 C     6.0000    0    12.011    6.336327    9.862462   -8.299961
  55 O     8.0000    0    15.999    4.617168   11.260991   -8.782956
  56 C     6.0000    0    12.011    7.360956    7.753679   -9.838802
  57 C     6.0000    0    12.011    6.608826    6.908461  -12.199732
  58 C     6.0000    0    12.011    7.676748    4.645004  -12.988976
  59 C     6.0000    0    12.011    9.279349    3.212931  -11.454178
  60 C     6.0000    0    12.011    9.890014    0.694115  -12.487764
  61 O     8.0000    0    15.999   11.027308   -0.978141  -11.482959
  62 S    16.0000    0    32.060    8.551823    0.414322  -15.589390
  63 C     6.0000    0    12.011    7.074776    3.470690  -15.456183
  64 O     8.0000    0    15.999    5.840992    4.332122  -17.128081
  65 C     6.0000    0    12.011    7.317095   11.264828   -3.889378
  66 C     6.0000    0    12.011    5.407432   12.894905   -3.495445
  67 C     6.0000    0    12.011    5.231688   14.201462   -1.147272
  68 C     6.0000    0    12.011    3.334554   15.800208   -0.484129
  69 C     6.0000    0    12.011    3.110319   17.228047    1.861815
  70 C     6.0000    0    12.011    4.660461   17.069254    3.925188
  71 C     6.0000    0    12.011    4.348279   18.516444    6.145975
  72 N     7.0000    0    14.007    4.220401   19.639829    7.996508
  73 C     6.0000    0    12.011    6.777087   15.463591    4.163161
  74 N     7.0000    0    14.007    8.522551   14.220699    4.504465
  75 C     6.0000    0    12.011    0.901494   18.854894    1.639432
  76 C     6.0000    0    12.011   -0.258363   18.421126   -0.751525
  77 C     6.0000    0    12.011    1.127259   16.438879   -2.097199
  78 O     8.0000    0    15.999    0.509999   15.428404   -4.072681
  79 C     6.0000    0    12.011   -2.388519   19.681214   -1.488197
  80 C     6.0000    0    12.011   -3.487168   21.455384    0.171927
  81 C     6.0000    0    12.011   -2.344111   21.898033    2.570198
  82 C     6.0000    0    12.011   -0.134303   20.574507    3.274914
  83 C     6.0000    0    12.011   -3.462545   23.670067    4.215129
  84 C     6.0000    0    12.011   -5.607687   24.940908    3.528610
  85 C     6.0000    0    12.011   -6.733888   24.498580    1.169155
  86 C     6.0000    0    12.011   -5.696107   22.792913   -0.474643
  87 H     1.0000    0     1.008   -3.968576    9.818148  -18.629260
  88 H     1.0000    0     1.008  -10.762860    8.466710  -12.236940
  89 H     1.0000    0     1.008  -13.931023    9.033288  -15.489915
  90 H     1.0000    0     1.008  -15.071152    9.847816  -19.927370
  91 H     1.0000    0     1.008  -11.752415   10.498978  -23.124409
  92 H     1.0000    0     1.008   -7.260970   10.347214  -21.909069
  93 H     1.0000    0     1.008    0.866118    9.177814  -10.141593
  94 H     1.0000    0     1.008    0.768004    9.672979    0.814113
  95 H     1.0000    0     1.008    6.136564    2.533442   -6.935371
  96 H     1.0000    0     1.008    8.509418    3.501020   -1.710410
  97 H     1.0000    0     1.008   18.405857   -1.760167   -4.689355
  98 H     1.0000    0     1.008   21.617787   -2.696847   -6.880379
  99 H     1.0000    0     1.008    5.239322    7.894898  -13.344433
 100 H     1.0000    0     1.008    8.732613   10.897484   -2.453413
 101 H     1.0000    0     1.008    3.992424   13.248001   -4.920733
 102 H     1.0000    0     1.008    6.762952   13.876542    0.168828
 103 H     1.0000    0     1.008   -3.229126   19.327760   -3.313899
 104 H     1.0000    0     1.008    0.680188   20.952131    5.104056
 105 H     1.0000    0     1.008   -2.592270   24.001771    6.031250
 106 H     1.0000    0     1.008   -6.450561   26.293838    4.802040
 107 H     1.0000    0     1.008   -8.428254   25.515555    0.661650
 108 H     1.0000    0     1.008   -6.555762   22.438740   -2.291539

--------------------------------
INTERNAL COORDINATES (ANGSTROEM)
--------------------------------
 C      0   0   0     0.000000000000     0.00000000     0.00000000
 C      1   0   0     1.366765298872     0.00000000     0.00000000
 C      2   1   0     1.412453717507   124.14328666     0.00000000
 N      3   2   1     1.147048244757   176.74759461   185.39964297
 C      2   1   3     1.407604320077   124.16325246   177.45583079
 N      5   2   1     1.148510108314   177.13484511   198.88572542
 C      1   2   3     1.455317303752   125.99818791   354.26676168
 C      7   1   2     1.427749659604   109.22395472   194.67185993
 C      8   7   1     1.366054786163   121.79684017   177.98285794
 C      9   8   7     1.412194767339   119.21967451     0.32125924
 C     10   9   8     1.426160059951   119.32251206     0.67032038
 C      7   1   2     1.371085216681   130.93287736    13.80743244
 C     11  10   9     1.410244965671   118.76220915   179.66859735
 C     13  11  10     1.368273391834   120.75572511     0.24500449
 C     14  13  11     1.403354941310   120.42279977   359.89958743
 C     15  14  13     1.368634654135   120.35055852   359.94527969
 C      8   7   1     1.466528299386   109.41876842   357.50226893
 O     17   8   7     1.206229081186   129.33021540   177.12103877
 C      1   2   3     1.456080037086   126.71013590   181.50459828
 C     19   1   2     1.340705435918   134.38905022   336.93773681
 C     20  19   1     1.448384931329   133.34876730   357.86559897
 C     21  20  19     1.396261481994   118.43378943   129.99315511
 C     22  21  20     1.470440855458   127.73375939   351.88044938
 O     23  22  21     1.204854874497   129.88141341   359.57082752
 N     23  22  21     1.403055119872   105.76862036   177.48582163
 C     25  23  22     1.401941333259   112.21878805     0.38535915
 O     26  25  23     1.198595663641   125.53414853   183.67515481
 C     22  21  20     1.393289611962   123.70678282   171.76452518
 C     28  22  21     1.382073685771   121.25457787     0.75527698
 C     29  28  22     1.390316806811   115.84040261     1.21422597
 C     30  29  28     1.394510919355   123.19679079   358.78332070
 C     31  30  29     1.474924381824   114.07492050   180.06885238
 O     32  31  30     1.194248715009   128.45683550   180.79485685
 S     32  31  30     1.795829082235   108.93882962   358.72766236
 C     30  29  28     1.478122148572   122.39453444   181.89743626
 O     35  30  29     1.194839697784   127.20988010     4.95073817
 C     25  23  22     1.391651227391   118.36732092   192.13904292
 C     37  25  23     1.338177772981   127.15764490   157.88580317
 C     38  37  25     1.439114535991   120.91762502   200.38442569
 S     39  38  37     1.735827303709   121.06388719   208.44562800
 C     40  39  38     1.728055443005    90.94072077   184.19816584
 C     41  40  39     1.399691364087   134.88570190   178.60408502
 C     42  41  40     1.374813829797   111.02390611   181.72172223
 C     43  42  41     1.470256277014   131.07852812   179.16718274
 O     44  43  42     1.200886169127   122.00773210   183.68408397
 O     44  43  42     1.344143939130   116.57980302     3.63225835
 S     43  42  41     1.740506196886   113.42746284   359.80785202
 C     41  40  39     1.396109079907   111.48563322   359.66091476
 C     39  38  37     1.389859215316   125.92792415    32.97226321
 C     49  39  38     1.460879167659   123.26945914   358.77666522
 C     50  49  39     1.398385741096   120.94268094    50.42456003
 C     51  50  49     1.478879982723   129.04970150     5.32188958
 O     52  51  50     1.198461549488   130.59232210    16.09556283
 N     52  51  50     1.411582727508   105.28341145   195.08336837
 C     54  52  51     1.402084875427   111.86793583   352.68598404
 O     55  54  52     1.200273602392   125.75910695   178.21146420
 C     51  50  49     1.395109056562   122.54297422   191.36245103
 C     57  51  50     1.385401687418   122.08097933   353.38973762
 C     58  57  51     1.388684668958   115.64328275     1.12169092
 C     59  58  57     1.397545444127   122.67444190     4.01461930
 C     60  59  58     1.476550925299   114.01844486   170.96782017
 O     61  60  59     1.194993269312   127.87038280   186.86675352
 S     61  60  59     1.793678493850   109.09096841     5.13061279
 C     59  58  57     1.480608715022   122.65999140   179.81939467
 O     64  59  58     1.190299016004   127.78482816     6.83190048
 C     54  52  51     1.383184484116   120.07511588   170.39106733
 C     66  54  52     1.344896142496   126.32616321   189.86641029
 C     67  66  54     1.425039550328   119.69496452   177.41631653
 C     68  67  66     1.358951821515   125.12979455   183.17414353
 C     69  68  67     1.458116918632   127.05422559   181.80165624
 C     70  69  68     1.368275156173   126.78389222   354.17676291
 C     71  70  69     1.412389057059   124.09488997   179.72736960
 N     72  71  70     1.147573072793   176.19809734   187.29266141
 C     71  70  69     1.411513822887   125.72475978   359.64849582
 N     74  71  70     1.148194326671   175.70990109   179.21717278
 C     70  69  68     1.456438764281   107.62682492   174.85545479
 C     76  70  69     1.424862969587   108.79772260     1.23067128
 C     77  76  70     1.464597005732   109.35763825     1.89429434
 O     78  77  76     1.218785671232   126.66120734   172.20977704
 C     77  76  70     1.366473738460   122.00888516   179.75543521
 C     80  77  76     1.411100378038   119.13913690   359.57768404
 C     81  80  77     1.425267828901   119.26473190     0.26435029
 C     76  70  69     1.370226312111   131.49473769   180.62521491
 C     82  81  80     1.409718352190   118.74829408   180.16101504
 C     84  82  81     1.368511636670   120.74436541     0.10567544
 C     85  84  82     1.403169316726   120.43382986     0.04005696
 C     86  85  84     1.368550645208   120.34219541   359.89132026
 H      9   8   7     1.079825348610   120.45602154   180.44265836
 H     12   7   1     1.078632327163   121.85688195     2.58679111
 H     13  11  10     1.079999869259   118.56730918   179.96742838
 H     14  13  11     1.079569636753   120.20983113   179.83166300
 H     15  14  13     1.079591484822   119.39974259   179.95999982
 H     16  15  14     1.080036449802   120.67822804   180.00771630
 H     20  19   1     1.089887837761   114.04229871   178.21327557
 H     29  28  22     1.078300865158   122.73027638   181.06531448
 H     37  25  23     1.082395199962   110.90320434   344.36497881
 H     38  37  25     1.080413227289   121.46222844    14.12294698
 H     42  41  40     1.076030233172   123.19677144     1.03813705
 H     46  44  43     0.965227225580   113.14374486     1.07766768
 H     58  57  51     1.079176374185   122.88468621   179.22959570
 H     66  54  52     1.084571791123   111.92035280     6.97135687
 H     67  66  54     1.079102534285   121.60876354   357.31158207
 H     68  67  66     1.082223757917   115.79802544     3.83326338
 H     80  77  76     1.079928490642   120.69652574   179.69067965
 H     83  76  70     1.078243707424   122.01768289     0.39948247
 H     84  82  81     1.080053593254   118.58913004   180.00264957
 H     85  84  82     1.079635874450   120.18949003   179.97124696
 H     86  85  84     1.079661096641   119.40022468   179.85735501
 H     87  86  85     1.080034580974   120.74751222   179.81608888

---------------------------
INTERNAL COORDINATES (A.U.)
---------------------------
 C      0   0   0     0.000000000000     0.00000000     0.00000000
 C      1   0   0     2.582812104215     0.00000000     0.00000000
 C      2   1   0     2.669150702928   124.14328666     0.00000000
 N      3   2   1     2.167607044986   176.74759461   185.39964297
 C      2   1   3     2.659986669870   124.16325246   177.45583079
 N      5   2   1     2.170369566754   177.13484511   198.88572542
 C      1   2   3     2.750151142048   125.99818791   354.26676168
 C      7   1   2     2.698055844451   109.22395472   194.67185993
 C      8   7   1     2.581469429781   121.79684017   177.98285794
 C      9   8   7     2.668661358028   119.21967451     0.32125924
 C     10   9   8     2.695051936444   119.32251206     0.67032038
 C      7   1   2     2.590975565794   130.93287736    13.80743244
 C     11  10   9     2.664976766859   118.76220915   179.66859735
 C     13  11  10     2.585661986897   120.75572511     0.24500449
 C     14  13  11     2.651956507762   120.42279977   359.89958743
 C     15  14  13     2.586344673710   120.35055852   359.94527969
 C      8   7   1     2.771336853485   109.41876842   357.50226893
 O     17   8   7     2.279442618214   129.33021540   177.12103877
 C      1   2   3     2.751592499162   126.71013590   181.50459828
 C     19   1   2     2.533566100144   134.38905022   336.93773681
 C     20  19   1     2.737050856710   133.34876730   357.86559897
 C     21  20  19     2.638551812312   118.43378943   129.99315511
 C     22  21  20     2.778730512944   127.73375939   351.88044938
 O     23  22  21     2.276845743920   129.88141341   359.57082752
 N     23  22  21     2.651389927355   105.76862036   177.48582163
 C     25  23  22     2.649285175684   112.21878805     0.38535915
 O     26  25  23     2.265017549588   125.53414853   183.67515481
 C     22  21  20     2.632935791845   123.70678282   171.76452518
 C     28  22  21     2.611740763006   121.25457787     0.75527698
 C     29  28  22     2.627318004260   115.84040261     1.21422597
 C     30  29  28     2.635243728343   123.19679079   358.78332070
 C     31  30  29     2.787203149891   114.07492050   180.06885238
 O     32  31  30     2.256803007154   128.45683550   180.79485685
 S     32  31  30     3.393625148755   108.93882962   358.72766236
 C     30  29  28     2.793246053285   122.39453444   181.89743626
 O     35  30  29     2.257919802749   127.20988010     4.95073817
 C     25  23  22     2.629839693705   118.36732092   192.13904292
 C     37  25  23     2.528789509434   127.15764490   157.88580317
 C     38  37  25     2.719532348368   120.91762502   200.38442569
 S     39  38  37     3.280238219792   121.06388719   208.44562800
 C     40  39  38     3.265551531512    90.94072077   184.19816584
 C     41  40  39     2.645033350139   134.88570190   178.60408502
 C     42  41  40     2.598021623443   111.02390611   181.72172223
 C     43  42  41     2.778381710236   131.07852812   179.16718274
 O     44  43  42     2.269345977663   122.00773210   183.68408397
 O     44  43  42     2.540063929526   116.57980302     3.63225835
 S     43  42  41     3.289080046508   113.42746284   359.80785202
 C     41  40  39     2.638263814106   111.48563322   359.66091476
 C     39  38  37     2.626453281655   125.92792415    32.97226321
 C     49  39  38     2.760661541626   123.26945914   358.77666522
 C     50  49  39     2.642566080252   120.94268094    50.42456003
 C     51  50  49     2.794678152285   129.04970150     5.32188958
 O     52  51  50     2.264764110566   130.59232210    16.09556283
 N     52  51  50     2.667504770364   105.28341145   195.08336837
 C     54  52  51     2.649556431069   111.86793583   352.68598404
 O     55  54  52     2.268188394297   125.75910695   178.21146420
 C     51  50  49     2.636374043855   122.54297422   191.36245103
 C     57  51  50     2.618029774692   122.08097933   353.38973762
 C     58  57  51     2.624233710706   115.64328275     1.12169092
 C     59  58  57     2.640978149109   122.67444190     4.01461930
 C     60  59  58     2.790276871602   114.01844486   170.96782017
 O     61  60  59     2.258210010878   127.87038280   186.86675352
 S     61  60  59     3.389561125681   109.09096841     5.13061279
 C     59  58  57     2.797944982889   122.65999140   179.81939467
 O     64  59  58     2.249339157723   127.78482816     6.83190048
 C     54  52  51     2.613839867669   120.07511588   170.39106733
 C     66  54  52     2.541485387884   126.32616321   189.86641029
 C     67  66  54     2.692934480127   119.69496452   177.41631653
 C     68  67  66     2.568046771858   125.12979455   183.17414353
 C     69  68  67     2.755441647451   127.05422559   181.80165624
 C     70  69  68     2.585665321015   126.78389222   354.17676291
 C     71  70  69     2.669028512389   124.09488997   179.72736960
 N     72  71  70     2.168598826242   176.19809734   187.29266141
 C     71  70  69     2.667374559500   125.72475978   359.64849582
 N     74  71  70     2.169772825931   175.70990109   179.21717278
 C     70  69  68     2.752270395318   107.62682492   174.85545479
 C     76  70  69     2.692600790885   108.79772260     1.23067128
 C     77  76  70     2.767687237395   109.35763825     1.89429434
 O     78  77  76     2.303171134576   126.66120734   172.20977704
 C     77  76  70     2.582261134884   122.00888516   179.75543521
 C     80  77  76     2.666593261965   119.13913690   359.57768404
 C     81  80  77     2.693365864111   119.26473190     0.26435029
 C     76  70  69     2.589352471382   131.49473769   180.62521491
 C     82  81  80     2.663981611601   118.74829408   180.16101504
 C     84  82  81     2.586112204390   120.74436541     0.10567544
 C     85  84  82     2.651605728133   120.43382986     0.04005696
 C     86  85  84     2.586185919845   120.34219541   359.89132026
 H      9   8   7     2.040574181338   120.45602154   180.44265836
 H     12   7   1     2.038319697531   121.85688195     2.58679111
 H     13  11  10     2.040903977571   118.56730918   179.96742838
 H     14  13  11     2.040090955961   120.20983113   179.83166300
 H     15  14  13     2.040132242827   119.39974259   179.95999982
 H     16  15  14     2.040973104778   120.67822804   180.00771630
 H     20  19   1     2.059589530060   114.04229871   178.21327557
 H     29  28  22     2.037693325119   122.73027638   181.06531448
 H     37  25  23     2.045430496598   110.90320434   344.36497881
 H     38  37  25     2.041685111041   121.46222844    14.12294698
 H     42  41  40     2.033402452514   123.19677144     1.03813705
 H     46  44  43     1.824015113350   113.14374486     1.07766768
 H     58  57  51     2.039347797409   122.88468621   179.22959570
 H     66  54  52     2.049543657799   111.92035280     6.97135687
 H     67  66  54     2.039208260219   121.60876354   357.31158207
 H     68  67  66     2.045106518086   115.79802544     3.83326338
 H     80  77  76     2.040769091532   120.69652574   179.69067965
 H     83  76  70     2.037585312656   122.01768289     0.39948247
 H     84  82  81     2.041005501207   118.58913004   180.00264957
 H     85  84  82     2.040216127068   120.18949003   179.97124696
 H     86  85  84     2.040263790101   119.40022468   179.85735501
 H     87  86  85     2.040969573206   120.74751222   179.81608888

---------------------
BASIS SET INFORMATION
---------------------
There are 5 groups of distinct atoms

 Group   1 Type C   : 7s4p1d contracted to 3s2p1d pattern {511/31/1}
 Group   2 Type N   : 7s4p1d contracted to 3s2p1d pattern {511/31/1}
 Group   3 Type O   : 7s4p1d contracted to 3s2p1d pattern {511/31/1}
 Group   4 Type S   : 10s7p1d contracted to 4s3p1d pattern {5311/511/1}
 Group   5 Type H   : 4s1p contracted to 2s1p pattern {31/1}

Atom   0C    basis set group =>   1
Atom   1C    basis set group =>   1
Atom   2C    basis set group =>   1
Atom   3N    basis set group =>   2
Atom   4C    basis set group =>   1
Atom   5N    basis set group =>   2
Atom   6C    basis set group =>   1
Atom   7C    basis set group =>   1
Atom   8C    basis set group =>   1
Atom   9C    basis set group =>   1
Atom  10C    basis set group =>   1
Atom  11C    basis set group =>   1
Atom  12C    basis set group =>   1
Atom  13C    basis set group =>   1
Atom  14C    basis set group =>   1
Atom  15C    basis set group =>   1
Atom  16C    basis set group =>   1
Atom  17O    basis set group =>   3
Atom  18C    basis set group =>   1
Atom  19C    basis set group =>   1
Atom  20C    basis set group =>   1
Atom  21C    basis set group =>   1
Atom  22C    basis set group =>   1
Atom  23O    basis set group =>   3
Atom  24N    basis set group =>   2
Atom  25C    basis set group =>   1
Atom  26O    basis set group =>   3
Atom  27C    basis set group =>   1
Atom  28C    basis set group =>   1
Atom  29C    basis set group =>   1
Atom  30C    basis set group =>   1
Atom  31C    basis set group =>   1
Atom  32O    basis set group =>   3
Atom  33S    basis set group =>   4
Atom  34C    basis set group =>   1
Atom  35O    basis set group =>   3
Atom  36C    basis set group =>   1
Atom  37C    basis set group =>   1
Atom  38C    basis set group =>   1
Atom  39S    basis set group =>   4
Atom  40C    basis set group =>   1
Atom  41C    basis set group =>   1
Atom  42C    basis set group =>   1
Atom  43C    basis set group =>   1
Atom  44O    basis set group =>   3
Atom  45O    basis set group =>   3
Atom  46S    basis set group =>   4
Atom  47C    basis set group =>   1
Atom  48C    basis set group =>   1
Atom  49C    basis set group =>   1
Atom  50C    basis set group =>   1
Atom  51C    basis set group =>   1
Atom  52O    basis set group =>   3
Atom  53N    basis set group =>   2
Atom  54C    basis set group =>   1
Atom  55O    basis set group =>   3
Atom  56C    basis set group =>   1
Atom  57C    basis set group =>   1
Atom  58C    basis set group =>   1
Atom  59C    basis set group =>   1
Atom  60C    basis set group =>   1
Atom  61O    basis set group =>   3
Atom  62S    basis set group =>   4
Atom  63C    basis set group =>   1
Atom  64O    basis set group =>   3
Atom  65C    basis set group =>   1
Atom  66C    basis set group =>   1
Atom  67C    basis set group =>   1
Atom  68C    basis set group =>   1
Atom  69C    basis set group =>   1
Atom  70C    basis set group =>   1
Atom  71C    basis set group =>   1
Atom  72N    basis set group =>   2
Atom  73C    basis set group =>   1
Atom  74N    basis set group =>   2
Atom  75C    basis set group =>   1
Atom  76C    basis set group =>   1
Atom  77C    basis set group =>   1
Atom  78O    basis set group =>   3
Atom  79C    basis set group =>   1
Atom  80C    basis set group =>   1
Atom  81C    basis set group =>   1
Atom  82C    basis set group =>   1
Atom  83C    basis set group =>   1
Atom  84C    basis set group =>   1
Atom  85C    basis set group =>   1
Atom  86C    basis set group =>   1
Atom  87H    basis set group =>   5
Atom  88H    basis set group =>   5
Atom  89H    basis set group =>   5
Atom  90H    basis set group =>   5
Atom  91H    basis set group =>   5
Atom  92H    basis set group =>   5
Atom  93H    basis set group =>   5
Atom  94H    basis set group =>   5
Atom  95H    basis set group =>   5
Atom  96H    basis set group =>   5
Atom  97H    basis set group =>   5
Atom  98H    basis set group =>   5
Atom  99H    basis set group =>   5
Atom 100H    basis set group =>   5
Atom 101H    basis set group =>   5
Atom 102H    basis set group =>   5
Atom 103H    basis set group =>   5
Atom 104H    basis set group =>   5
Atom 105H    basis set group =>   5
Atom 106H    basis set group =>   5
Atom 107H    basis set group =>   5
Atom 108H    basis set group =>   5
---------------------------------
AUXILIARY/J BASIS SET INFORMATION
---------------------------------
There are 5 groups of distinct atoms

 Group   1 Type C   : 12s5p4d2f1g contracted to 6s4p3d1f1g pattern {711111/2111/211/2/1}
 Group   2 Type N   : 12s5p4d2f1g contracted to 6s4p3d1f1g pattern {711111/2111/211/2/1}
 Group   3 Type O   : 12s5p4d2f1g contracted to 6s4p3d1f1g pattern {711111/2111/211/2/1}
 Group   4 Type S   : 14s5p5d2f1g contracted to 8s4p3d1f1g pattern {71111111/2111/311/2/1}
 Group   5 Type H   : 5s2p1d contracted to 3s1p1d pattern {311/2/1}

Atom   0C    basis set group =>   1
Atom   1C    basis set group =>   1
Atom   2C    basis set group =>   1
Atom   3N    basis set group =>   2
Atom   4C    basis set group =>   1
Atom   5N    basis set group =>   2
Atom   6C    basis set group =>   1
Atom   7C    basis set group =>   1
Atom   8C    basis set group =>   1
Atom   9C    basis set group =>   1
Atom  10C    basis set group =>   1
Atom  11C    basis set group =>   1
Atom  12C    basis set group =>   1
Atom  13C    basis set group =>   1
Atom  14C    basis set group =>   1
Atom  15C    basis set group =>   1
Atom  16C    basis set group =>   1
Atom  17O    basis set group =>   3
Atom  18C    basis set group =>   1
Atom  19C    basis set group =>   1
Atom  20C    basis set group =>   1
Atom  21C    basis set group =>   1
Atom  22C    basis set group =>   1
Atom  23O    basis set group =>   3
Atom  24N    basis set group =>   2
Atom  25C    basis set group =>   1
Atom  26O    basis set group =>   3
Atom  27C    basis set group =>   1
Atom  28C    basis set group =>   1
Atom  29C    basis set group =>   1
Atom  30C    basis set group =>   1
Atom  31C    basis set group =>   1
Atom  32O    basis set group =>   3
Atom  33S    basis set group =>   4
Atom  34C    basis set group =>   1
Atom  35O    basis set group =>   3
Atom  36C    basis set group =>   1
Atom  37C    basis set group =>   1
Atom  38C    basis set group =>   1
Atom  39S    basis set group =>   4
Atom  40C    basis set group =>   1
Atom  41C    basis set group =>   1
Atom  42C    basis set group =>   1
Atom  43C    basis set group =>   1
Atom  44O    basis set group =>   3
Atom  45O    basis set group =>   3
Atom  46S    basis set group =>   4
Atom  47C    basis set group =>   1
Atom  48C    basis set group =>   1
Atom  49C    basis set group =>   1
Atom  50C    basis set group =>   1
Atom  51C    basis set group =>   1
Atom  52O    basis set group =>   3
Atom  53N    basis set group =>   2
Atom  54C    basis set group =>   1
Atom  55O    basis set group =>   3
Atom  56C    basis set group =>   1
Atom  57C    basis set group =>   1
Atom  58C    basis set group =>   1
Atom  59C    basis set group =>   1
Atom  60C    basis set group =>   1
Atom  61O    basis set group =>   3
Atom  62S    basis set group =>   4
Atom  63C    basis set group =>   1
Atom  64O    basis set group =>   3
Atom  65C    basis set group =>   1
Atom  66C    basis set group =>   1
Atom  67C    basis set group =>   1
Atom  68C    basis set group =>   1
Atom  69C    basis set group =>   1
Atom  70C    basis set group =>   1
Atom  71C    basis set group =>   1
Atom  72N    basis set group =>   2
Atom  73C    basis set group =>   1
Atom  74N    basis set group =>   2
Atom  75C    basis set group =>   1
Atom  76C    basis set group =>   1
Atom  77C    basis set group =>   1
Atom  78O    basis set group =>   3
Atom  79C    basis set group =>   1
Atom  80C    basis set group =>   1
Atom  81C    basis set group =>   1
Atom  82C    basis set group =>   1
Atom  83C    basis set group =>   1
Atom  84C    basis set group =>   1
Atom  85C    basis set group =>   1
Atom  86C    basis set group =>   1
Atom  87H    basis set group =>   5
Atom  88H    basis set group =>   5
Atom  89H    basis set group =>   5
Atom  90H    basis set group =>   5
Atom  91H    basis set group =>   5
Atom  92H    basis set group =>   5
Atom  93H    basis set group =>   5
Atom  94H    basis set group =>   5
Atom  95H    basis set group =>   5
Atom  96H    basis set group =>   5
Atom  97H    basis set group =>   5
Atom  98H    basis set group =>   5
Atom  99H    basis set group =>   5
Atom 100H    basis set group =>   5
Atom 101H    basis set group =>   5
Atom 102H    basis set group =>   5
Atom 103H    basis set group =>   5
Atom 104H    basis set group =>   5
Atom 105H    basis set group =>   5
Atom 106H    basis set group =>   5
Atom 107H    basis set group =>   5
Atom 108H    basis set group =>   5


           ************************************************************
           *        Program running with 6 parallel MPI-processes     *
           *              working on a common directory               *
           ************************************************************
------------------------------------------------------------------------------
                           ORCA GTO INTEGRAL CALCULATION
                           -- RI-GTO INTEGRALS CHOSEN --
------------------------------------------------------------------------------

                         BASIS SET STATISTICS AND STARTUP INFO

Gaussian basis set:
 # of primitive gaussian shells          ... 1178
 # of primitive gaussian functions       ... 2290
 # of contracted shells                  ...  596
 # of contracted basis functions         ... 1344
 Highest angular momentum                ...    2
 Maximum contraction depth               ...    5
Auxiliary gaussian basis set:
 # of primitive gaussian shells          ... 2276
 # of primitive gaussian functions       ... 6470
 # of contracted shells                  ... 1423
 # of contracted aux-basis functions     ... 4513
 Highest angular momentum                ...    4
 Maximum contraction depth               ...    7
Ratio of auxiliary to basis functions    ...  3.36
Integral package used                  ... LIBINT
 One Electron integrals                  ... done
 Ordering auxiliary basis shells         ... done
 Integral threshhold             Thresh  ...  2.500e-11
 Primitive cut-off               TCut    ...  2.500e-12
 Pre-screening matrix                    ... done
 Shell pair data                         ... 
 Ordering of the shell pairs             ... done (   0.014 sec) 66966 of 177906 pairs
 Determination of significant pairs      ... done (   0.000 sec)
 Creation of shell pair data             ... done (   0.008 sec)
 Storage of shell pair data              ... done (   0.105 sec)
 Shell pair data done in (   0.127 sec)
 Computing two index integrals           ... done
 Cholesky decomposition of the V-matrix  ... done


Timings:
 Total evaluation time                   ...   3.494 sec (  0.058 min)
 One electron matrix time                ...   0.888 sec (  0.015 min) = 25.4%
 Schwartz matrix evaluation time         ...   0.847 sec (  0.014 min) = 24.2%
 Two index repulsion integral time       ...   0.514 sec (  0.009 min) = 14.7%
 Cholesky decomposition of V             ...   1.101 sec (  0.018 min) = 31.5%
 Three index repulsion integral time     ...   0.000 sec (  0.000 min) =  0.0%



           ************************************************************
           *        Program running with 6 parallel MPI-processes     *
           *              working on a common directory               *
           ************************************************************
-------------------------------------------------------------------------------
                                 ORCA SCF
-------------------------------------------------------------------------------

------------
SCF SETTINGS
------------
Hamiltonian:
 Density Functional     Method          .... DFT(GTOs)
 Exchange Functional    Exchange        .... WB88
 Correlation Functional Correlation     .... LYP
 LDA part of GGA corr.  LDAOpt          .... VWN-5
 Gradients option       PostSCFGGA      .... off
 Hybrid DFT is turned on
   Fraction HF Exchange ScalHFX         ....  0.190000
   Scaling of DF-GGA-X  ScalDFX         ....  0.350000
   Scaling of DF-GGA-C  ScalDFC         ....  0.810000
   Scaling of DF-LDA-C  ScalLDAC        ....  1.000000
   Perturbative correction              ....  0.000000
   Density functional embedding theory  .... OFF
 Long-range corrected/Screened/Range-Separated Hybrid DFT is turned on
   Amount of maximum screened exact exchange              ....  0.460000
   Range separation parameter mu (erf(mu*r12)/r12)        ....  0.330000
 RI-approximation to the Coulomb term is turned on
   Number of auxiliary basis functions  .... 4513
   RIJ-COSX (HFX calculated with COS-X)).... on


General Settings:
 Integral files         IntName         .... xtbopt
 Hartree-Fock type      HFTyp           .... RHF
 Total Charge           Charge          ....    0
 Multiplicity           Mult            ....    1
 Number of Electrons    NEL             ....  614
 Basis Dimension        Dim             .... 1344
 Nuclear Repulsion      ENuc            ....  15937.6782344757 Eh

Convergence Acceleration:
 DIIS                   CNVDIIS         .... on
   Start iteration      DIISMaxIt       ....    12
   Startup error        DIISStart       ....  0.200000
   # of expansion vecs  DIISMaxEq       ....     5
   Bias factor          DIISBfac        ....   1.050
   Max. coefficient     DIISMaxC        ....  10.000
 Newton-Raphson         CNVNR           .... off
 SOSCF                  CNVSOSCF        .... on
   Start iteration      SOSCFMaxIt      ....   150
   Startup grad/error   SOSCFStart      ....  0.003300
 Level Shifting         CNVShift        .... on
   Level shift para.    LevelShift      ....    0.2500
   Turn off err/grad.   ShiftErr        ....    0.0010
 Zerner damping         CNVZerner       .... off
 Static damping         CNVDamp         .... on
   Fraction old density DampFac         ....    0.7000
   Max. Damping (<1)    DampMax         ....    0.9800
   Min. Damping (>=0)   DampMin         ....    0.0000
   Turn off err/grad.   DampErr         ....    0.1000
 Fernandez-Rico         CNVRico         .... off

SCF Procedure:
 Maximum # iterations   MaxIter         ....   125
 SCF integral mode      SCFMode         .... Direct
   Integral package                     .... LIBINT
 Reset frequency        DirectResetFreq ....    20
 Integral Threshold     Thresh          ....  2.500e-11 Eh
 Primitive CutOff       TCut            ....  2.500e-12 Eh

Convergence Tolerance:
 Convergence Check Mode ConvCheckMode   .... Total+1el-Energy
 Convergence forced     ConvForced      .... 1
 Energy Change          TolE            ....  1.000e-08 Eh
 1-El. energy change                    ....  1.000e-05 Eh
 Orbital Gradient       TolG            ....  1.000e-05
 Orbital Rotation angle TolX            ....  1.000e-05
 DIIS Error             TolErr          ....  5.000e-07


Diagonalization of the overlap matrix:
Smallest eigenvalue                        ... 1.580e-04
Time for diagonalization                   ...    0.316 sec
Threshold for overlap eigenvalues          ... 1.000e-08
Number of eigenvalues below threshold      ... 0
Time for construction of square roots      ...    0.210 sec
Total time needed                          ...    0.530 sec

-------------------
DFT GRID GENERATION
-------------------

General Integration Accuracy     IntAcc      ...  4.670
Radial Grid Type                 RadialGrid  ... Gauss-Chebyshev
Angular Grid (max. acc.)         AngularGrid ... Lebedev-302
Angular grid pruning method      GridPruning ... 3 (G Style)
Weight generation scheme         WeightScheme... Becke
Basis function cutoff            BFCut       ...    1.0000e-11
Integration weight cutoff        WCut        ...    1.0000e-14
Grids for H and He will be reduced by one unit

# of grid points (after initial pruning)     ... 617648 (   0.0 sec)
# of grid points (after weights+screening)   ... 516834 (   6.6 sec)
nearest neighbour list constructed           ...    0.0 sec
Grid point re-assignment to atoms done       ...    0.1 sec
Grid point division into batches done        ...    1.8 sec
Reduced shell lists constructed in    3.1 sec

Total number of grid points                  ...   516834
Total number of batches                      ...     8127
Average number of points per batch           ...       63
Average number of grid points per atom       ...     4742
Average number of shells per batch           ...   107.00 (17.95%)
Average number of basis functions per batch  ...   225.29 (16.76%)
Average number of large shells per batch     ...    62.11 (58.05%)
Average number of large basis fcns per batch ...   133.61 (59.31%)
Maximum spatial batch extension              ...  19.48, 21.75, 14.58 au
Average spatial batch extension              ...   0.30,  0.34,  0.30 au

Time for grid setup =   11.076 sec

------------------------------
INITIAL GUESS: MODEL POTENTIAL
------------------------------
Loading Hartree-Fock densities                     ... done
Calculating cut-offs                               ... done
Setting up the integral package                    ... done
Initializing the effective Hamiltonian             ... done
Starting the Coulomb interaction                   ... done (   2.2 sec)
Reading the grid                                   ... done
Mapping shells                                     ... done
Starting the XC term evaluation                    ... done (   2.4 sec)
  promolecular density results
     # of electrons  =    613.987796617
     EX              =   -575.879336402
     EC              =    -21.307231028
     EX+EC           =   -597.186567430
Transforming the Hamiltonian                       ... done (   0.1 sec)
Diagonalizing the Hamiltonian                      ... done (   0.3 sec)
Back transforming the eigenvectors                 ... done (   0.1 sec)
Now organizing SCF variables                       ... done
                      ------------------
                      INITIAL GUESS DONE (  16.3 sec)
                      ------------------
--------------------
COSX GRID GENERATION
--------------------

General Integration Accuracy     IntAcc      ...  3.340
Radial Grid Type                 RadialGrid  ... Gauss-Chebyshev
Angular Grid (max. acc.)         AngularGrid ... Lebedev-50
Angular grid pruning method      GridPruning ... 3 (G Style)
Weight generation scheme         WeightScheme... Becke
Basis function cutoff            BFCut       ...    1.0000e-11
Integration weight cutoff        WCut        ...    1.0000e-14
Grids for H and He will be reduced by one unit

# of grid points (after initial pruning)     ...  57920 (   0.0 sec)
# of grid points (after weights+screening)   ...  51186 (   0.6 sec)
nearest neighbour list constructed           ...    0.0 sec
Grid point re-assignment to atoms done       ...    0.0 sec
Grid point division into batches done        ...    0.0 sec
Reduced shell lists constructed in    0.2 sec

Total number of grid points                  ...    51186
Total number of batches                      ...      857
Average number of points per batch           ...       59
Average number of grid points per atom       ...      470
Average number of shells per batch           ...   129.58 (21.74%)
Average number of basis functions per batch  ...   274.78 (20.44%)
Average number of large shells per batch     ...    73.24 (56.52%)
Average number of large basis fcns per batch ...   159.94 (58.21%)
Maximum spatial batch extension              ...  14.18, 20.35, 16.08 au
Average spatial batch extension              ...   0.54,  0.88,  0.57 au

Overlap Fitting                  UseSFitting ... on
Constructing numerical overlap ... done (      0.2 sec)
Inverting numerical overlap    ... done (      0.1 sec)
Obtaining analytic overlap     ... done (      0.0 sec)
Final contraction and storage  ... done (      0.1 sec)


General Integration Accuracy     IntAcc      ...  3.670
Radial Grid Type                 RadialGrid  ... Gauss-Chebyshev
Angular Grid (max. acc.)         AngularGrid ... Lebedev-50
Angular grid pruning method      GridPruning ... 3 (G Style)
Weight generation scheme         WeightScheme... Becke
Basis function cutoff            BFCut       ...    1.0000e-11
Integration weight cutoff        WCut        ...    1.0000e-14
Grids for H and He will be reduced by one unit

# of grid points (after initial pruning)     ...  71958 (   0.0 sec)
# of grid points (after weights+screening)   ...  63305 (   0.8 sec)
nearest neighbour list constructed           ...    0.0 sec
Grid point re-assignment to atoms done       ...    0.0 sec
Grid point division into batches done        ...    0.0 sec
Reduced shell lists constructed in    0.2 sec

Total number of grid points                  ...    63305
Total number of batches                      ...     1039
Average number of points per batch           ...       60
Average number of grid points per atom       ...      581
Average number of shells per batch           ...   127.25 (21.35%)
Average number of basis functions per batch  ...   269.49 (20.05%)
Average number of large shells per batch     ...    71.94 (56.53%)
Average number of large basis fcns per batch ...   156.90 (58.22%)
Maximum spatial batch extension              ...  16.73, 23.99, 15.22 au
Average spatial batch extension              ...   0.50,  0.79,  0.54 au

Overlap Fitting                  UseSFitting ... on
Constructing numerical overlap ... done (      0.2 sec)
Inverting numerical overlap    ... done (      0.1 sec)
Obtaining analytic overlap     ... done (      0.0 sec)
Final contraction and storage  ... done (      0.1 sec)


General Integration Accuracy     IntAcc      ...  4.010
Radial Grid Type                 RadialGrid  ... Gauss-Chebyshev
Angular Grid (max. acc.)         AngularGrid ... Lebedev-110
Angular grid pruning method      GridPruning ... 3 (G Style)
Weight generation scheme         WeightScheme... Becke
Basis function cutoff            BFCut       ...    1.0000e-11
Integration weight cutoff        WCut        ...    1.0000e-14
Grids for H and He will be reduced by one unit

# of grid points (after initial pruning)     ... 142516 (   0.0 sec)
# of grid points (after weights+screening)   ... 123470 (   1.6 sec)
nearest neighbour list constructed           ...    0.0 sec
Grid point re-assignment to atoms done       ...    0.0 sec
Grid point division into batches done        ...    0.1 sec
Reduced shell lists constructed in    0.5 sec

Total number of grid points                  ...   123470
Total number of batches                      ...     1982
Average number of points per batch           ...       62
Average number of grid points per atom       ...     1133
Average number of shells per batch           ...   119.11 (19.98%)
Average number of basis functions per batch  ...   252.31 (18.77%)
Average number of large shells per batch     ...    68.75 (57.72%)
Average number of large basis fcns per batch ...   149.16 (59.12%)
Maximum spatial batch extension              ...  18.98, 18.25, 14.15 au
Average spatial batch extension              ...   0.46,  0.62,  0.46 au

Overlap Fitting                  UseSFitting ... on
Constructing numerical overlap ... done (      0.4 sec)
Inverting numerical overlap    ... done (      0.1 sec)
Obtaining analytic overlap     ... done (      0.0 sec)
Final contraction and storage  ... done (      0.1 sec)

Time for X-Grid setup             =    5.877 sec
--------------
SCF ITERATIONS
--------------
ITER       Energy         Delta-E        Max-DP      RMS-DP      [F,P]     Damp
               ***  Starting incremental Fock matrix formation  ***
  0  -5307.4498348146   0.000000000000 0.11101472  0.00113551  0.2473840 0.7000
  1  -5308.2112962804  -0.761461465860 0.06713235  0.00075106  0.1077683 0.7000
                               ***Turning on DIIS***
  2  -5308.4996819822  -0.288385701739 0.08549711  0.00122153  0.0455374 0.0000
  3  -5309.0323288563  -0.532646874162 0.05211339  0.00052409  0.0638735 0.0000
  4  -5309.1056499910  -0.073321134632 0.01435603  0.00014151  0.0229488 0.0000
                      *** Initiating the SOSCF procedure ***
                           *** Shutting down DIIS ***
                      *** Re-Reading the Fockian *** 
                      *** Removing any level shift *** 
ITER      Energy       Delta-E        Grad      Rot      Max-DP    RMS-DP
  5  -5309.11384024  -0.0081902517  0.001364  0.001364  0.005050  0.000052
               *** Restarting incremental Fock matrix formation ***
  6  -5309.11460796  -0.0007677141  0.000950  0.005377  0.004306  0.000045
  7  -5309.11496422  -0.0003562593  0.000692  0.004797  0.005274  0.000044
  8  -5309.11505193  -0.0000877174  0.000669  0.001314  0.002846  0.000018
  9  -5309.11510196  -0.0000500264  0.000227  0.000549  0.000781  0.000009
 10  -5309.11510577  -0.0000038076  0.000137  0.000483  0.000415  0.000005
 11  -5309.11511178  -0.0000060079  0.000042  0.000127  0.000319  0.000002
 12  -5309.11511155   0.0000002224  0.000058  0.000069  0.000130  0.000001
 13  -5309.11511223  -0.0000006731  0.000010  0.000031  0.000081  0.000001
 14  -5309.11511225  -0.0000000282  0.000012  0.000021  0.000052  0.000000
                  ***Gradient check signals convergence***
              ***Rediagonalizing the Fockian in SOSCF/NRSCF***

               *****************************************************
               *                     SUCCESS                       *
               *           SCF CONVERGED AFTER  15 CYCLES          *
               *****************************************************

Setting up the final grid:

General Integration Accuracy     IntAcc      ...  5.010
Radial Grid Type                 RadialGrid  ... Gauss-Chebyshev
Angular Grid (max. acc.)         AngularGrid ... Lebedev-434
Angular grid pruning method      GridPruning ... 3 (G Style)
Weight generation scheme         WeightScheme... Becke
Basis function cutoff            BFCut       ...    1.0000e-11
Integration weight cutoff        WCut        ...    1.0000e-14
Grids for H and He will be reduced by one unit

# of grid points (after initial pruning)     ... 1083198 (   0.1 sec)
# of grid points (after weights+screening)   ... 903263 (  11.3 sec)
nearest neighbour list constructed           ...    0.0 sec
Grid point re-assignment to atoms done       ...    0.1 sec
Grid point division into batches done        ...    5.7 sec
Reduced shell lists constructed in    7.9 sec

Total number of grid points                  ...   903263
Total number of batches                      ...    14170
Average number of points per batch           ...       63
Average number of grid points per atom       ...     8287
Average number of shells per batch           ...   104.14 (17.47%)
Average number of basis functions per batch  ...   218.74 (16.28%)
Average number of large shells per batch     ...    60.42 (58.02%)
Average number of large basis fcns per batch ...   129.91 (59.39%)
Maximum spatial batch extension              ...  20.71, 22.51, 19.69 au
Average spatial batch extension              ...   0.24,  0.26,  0.24 au

Final grid set up in   21.4 sec
Final integration                            ... done (   5.6 sec)
Change in XC energy                          ...    -0.000111509
Integrated number of electrons               ...   613.999635608
Previous integrated no of electrons          ...   613.999270263
Old exchange energy                            =   -159.104704658 Eh
New exchange energy                            =   -159.101760427 Eh
Exchange energy change after final integration =      0.002944231 Eh
Total energy after final integration           =  -5309.112279538 Eh
Final COS-X integration done in                =   102.395 sec

----------------
TOTAL SCF ENERGY
----------------

Total Energy       :        -5309.11227954 Eh         -144468.28975 eV

Components:
Nuclear Repulsion  :        15937.67823448 Eh          433686.27294 eV
Electronic Energy  :       -21246.79051401 Eh         -578154.56270 eV
One Electron Energy:       -39028.07168944 Eh        -1062007.82210 eV
Two Electron Energy:        17781.28117543 Eh          483853.25941 eV

Virial components:
Potential Energy   :       -10582.10845808 Eh         -287953.81043 eV
Kinetic Energy     :         5272.99617854 Eh          143485.52068 eV
Virial Ratio       :            2.00684926


DFT components:
N(Alpha)           :      306.999817803857 electrons
N(Beta)            :      306.999817803857 electrons
N(Total)           :      613.999635607714 electrons
E(XC)              :     -447.347207655363 Eh       
DFET-embed. en.    :        0.000000000000 Eh       

---------------
SCF CONVERGENCE
---------------

  Last Energy change         ...   -5.0914e-09  Tolerance :   1.0000e-08
  Last MAX-Density change    ...    1.5099e-14  Tolerance :   1.0000e-07
  Last RMS-Density change    ...    3.6973e-17  Tolerance :   5.0000e-09
  Last Orbital Gradient      ...    2.0903e-06  Tolerance :   1.0000e-05
  Last Orbital Rotation      ...    1.0950e-05  Tolerance :   1.0000e-05

             **** THE GBW FILE WAS UPDATED (xtbopt.gbw) ****
             **** DENSITY FILE WAS UPDATED (xtbopt.scfp) ****
             **** ENERGY FILE WAS UPDATED (xtbopt.en.tmp) ****
             **** THE GBW FILE WAS UPDATED (xtbopt.gbw) ****
             **** DENSITY FILE WAS UPDATED (xtbopt.scfp) ****
----------------
ORBITAL ENERGIES
----------------

  NO   OCC          E(Eh)            E(eV) 
   0   2.0000     -88.974272     -2421.1130 
   1   2.0000     -88.970091     -2420.9993 
   2   2.0000     -88.959385     -2420.7079 
   3   2.0000     -88.955909     -2420.6134 
   4   2.0000     -19.261296      -524.1265 
   5   2.0000     -19.258619      -524.0537 
   6   2.0000     -19.254454      -523.9403 
   7   2.0000     -19.253378      -523.9111 
   8   2.0000     -19.253282      -523.9084 
   9   2.0000     -19.252307      -523.8819 
  10   2.0000     -19.250051      -523.8205 
  11   2.0000     -19.248722      -523.7844 
  12   2.0000     -19.248185      -523.7697 
  13   2.0000     -19.229363      -523.2576 
  14   2.0000     -19.226907      -523.1907 
  15   2.0000     -19.197113      -522.3800 
  16   2.0000     -14.509992      -394.8369 
  17   2.0000     -14.501440      -394.6042 
  18   2.0000     -14.430962      -392.6865 
  19   2.0000     -14.425391      -392.5348 
  20   2.0000     -14.420869      -392.4118 
  21   2.0000     -14.417686      -392.3252 
  22   2.0000     -10.437142      -284.0091 
  23   2.0000     -10.432910      -283.8939 
  24   2.0000     -10.430052      -283.8161 
  25   2.0000     -10.429084      -283.7898 
  26   2.0000     -10.414737      -283.3994 
  27   2.0000     -10.412246      -283.3316 
  28   2.0000     -10.410805      -283.2924 
  29   2.0000     -10.409523      -283.2575 
  30   2.0000     -10.406652      -283.1794 
  31   2.0000     -10.377867      -282.3961 
  32   2.0000     -10.375166      -282.3226 
  33   2.0000     -10.357378      -281.8386 
  34   2.0000     -10.354654      -281.7645 
  35   2.0000     -10.351862      -281.6885 
  36   2.0000     -10.349749      -281.6310 
  37   2.0000     -10.346766      -281.5498 
  38   2.0000     -10.346362      -281.5388 
  39   2.0000     -10.344787      -281.4960 
  40   2.0000     -10.341182      -281.3979 
  41   2.0000     -10.337178      -281.2889 
  42   2.0000     -10.336772      -281.2779 
  43   2.0000     -10.335881      -281.2536 
  44   2.0000     -10.334766      -281.2233 
  45   2.0000     -10.334698      -281.2214 
  46   2.0000     -10.333375      -281.1854 
  47   2.0000     -10.332767      -281.1689 
  48   2.0000     -10.332687      -281.1667 
  49   2.0000     -10.330842      -281.1165 
  50   2.0000     -10.330771      -281.1146 
  51   2.0000     -10.330569      -281.1091 
  52   2.0000     -10.329450      -281.0786 
  53   2.0000     -10.327388      -281.0225 
  54   2.0000     -10.325581      -280.9733 
  55   2.0000     -10.324725      -280.9500 
  56   2.0000     -10.323218      -280.9090 
  57   2.0000     -10.320292      -280.8294 
  58   2.0000     -10.316030      -280.7134 
  59   2.0000     -10.315498      -280.6990 
  60   2.0000     -10.312919      -280.6288 
  61   2.0000     -10.312234      -280.6102 
  62   2.0000     -10.311758      -280.5972 
  63   2.0000     -10.311642      -280.5940 
  64   2.0000     -10.309358      -280.5319 
  65   2.0000     -10.306706      -280.4597 
  66   2.0000     -10.305535      -280.4279 
  67   2.0000     -10.305301      -280.4215 
  68   2.0000     -10.305077      -280.4154 
  69   2.0000     -10.304795      -280.4077 
  70   2.0000     -10.304710      -280.4054 
  71   2.0000     -10.302321      -280.3404 
  72   2.0000     -10.300428      -280.2889 
  73   2.0000     -10.300292      -280.2852 
  74   2.0000     -10.299895      -280.2744 
  75   2.0000     -10.298973      -280.2493 
  76   2.0000     -10.298206      -280.2284 
  77   2.0000     -10.297569      -280.2111 
  78   2.0000     -10.292975      -280.0861 
  79   2.0000     -10.292513      -280.0735 
  80   2.0000     -10.292478      -280.0726 
  81   2.0000     -10.292293      -280.0675 
  82   2.0000     -10.291871      -280.0560 
  83   2.0000     -10.289055      -279.9794 
  84   2.0000     -10.288574      -279.9663 
  85   2.0000     -10.288282      -279.9584 
  86   2.0000     -10.287652      -279.9413 
  87   2.0000      -8.069785      -219.5900 
  88   2.0000      -8.064704      -219.4518 
  89   2.0000      -8.058111      -219.2724 
  90   2.0000      -8.055138      -219.1914 
  91   2.0000      -6.039258      -164.3366 
  92   2.0000      -6.035205      -164.2263 
  93   2.0000      -6.034207      -164.1991 
  94   2.0000      -6.031429      -164.1235 
  95   2.0000      -6.029974      -164.0839 
  96   2.0000      -6.027025      -164.0037 
  97   2.0000      -6.026525      -163.9901 
  98   2.0000      -6.023967      -163.9205 
  99   2.0000      -6.023748      -163.9145 
 100   2.0000      -6.020731      -163.8324 
 101   2.0000      -6.019152      -163.7894 
 102   2.0000      -6.016210      -163.7094 
 103   2.0000      -1.204968       -32.7888 
 104   2.0000      -1.198632       -32.6164 
 105   2.0000      -1.183327       -32.2000 
 106   2.0000      -1.180594       -32.1256 
 107   2.0000      -1.177961       -32.0539 
 108   2.0000      -1.175209       -31.9791 
 109   2.0000      -1.173927       -31.9442 
 110   2.0000      -1.173319       -31.9276 
 111   2.0000      -1.169907       -31.8348 
 112   2.0000      -1.143181       -31.1075 
 113   2.0000      -1.142317       -31.0840 
 114   2.0000      -1.098477       -29.8911 
 115   2.0000      -1.097397       -29.8617 
 116   2.0000      -1.090743       -29.6806 
 117   2.0000      -1.032593       -28.0983 
 118   2.0000      -1.031292       -28.0629 
 119   2.0000      -1.022284       -27.8178 
 120   2.0000      -1.020908       -27.7803 
 121   2.0000      -1.018156       -27.7054 
 122   2.0000      -1.009008       -27.4565 
 123   2.0000      -1.004665       -27.3383 
 124   2.0000      -1.002553       -27.2809 
 125   2.0000      -0.997378       -27.1400 
 126   2.0000      -0.979397       -26.6507 
 127   2.0000      -0.975819       -26.5534 
 128   2.0000      -0.971919       -26.4472 
 129   2.0000      -0.967014       -26.3138 
 130   2.0000      -0.961602       -26.1665 
 131   2.0000      -0.938135       -25.5280 
 132   2.0000      -0.935705       -25.4618 
 133   2.0000      -0.927657       -25.2428 
 134   2.0000      -0.924831       -25.1659 
 135   2.0000      -0.919298       -25.0154 
 136   2.0000      -0.912023       -24.8174 
 137   2.0000      -0.902167       -24.5492 
 138   2.0000      -0.899702       -24.4821 
 139   2.0000      -0.888918       -24.1887 
 140   2.0000      -0.886097       -24.1119 
 141   2.0000      -0.883266       -24.0349 
 142   2.0000      -0.877593       -23.8805 
 143   2.0000      -0.866400       -23.5759 
 144   2.0000      -0.861285       -23.4367 
 145   2.0000      -0.850135       -23.1333 
 146   2.0000      -0.836110       -22.7517 
 147   2.0000      -0.831677       -22.6311 
 148   2.0000      -0.828120       -22.5343 
 149   2.0000      -0.820730       -22.3332 
 150   2.0000      -0.811528       -22.0828 
 151   2.0000      -0.807490       -21.9729 
 152   2.0000      -0.805692       -21.9240 
 153   2.0000      -0.804296       -21.8860 
 154   2.0000      -0.790200       -21.5024 
 155   2.0000      -0.776615       -21.1328 
 156   2.0000      -0.771563       -20.9953 
 157   2.0000      -0.767118       -20.8744 
 158   2.0000      -0.764515       -20.8035 
 159   2.0000      -0.762505       -20.7488 
 160   2.0000      -0.741333       -20.1727 
 161   2.0000      -0.730163       -19.8687 
 162   2.0000      -0.724314       -19.7096 
 163   2.0000      -0.716480       -19.4964 
 164   2.0000      -0.712924       -19.3997 
 165   2.0000      -0.708417       -19.2770 
 166   2.0000      -0.707550       -19.2534 
 167   2.0000      -0.706696       -19.2302 
 168   2.0000      -0.705528       -19.1984 
 169   2.0000      -0.699866       -19.0443 
 170   2.0000      -0.698298       -19.0017 
 171   2.0000      -0.686833       -18.6897 
 172   2.0000      -0.686482       -18.6801 
 173   2.0000      -0.677939       -18.4476 
 174   2.0000      -0.673844       -18.3362 
 175   2.0000      -0.671881       -18.2828 
 176   2.0000      -0.660993       -17.9865 
 177   2.0000      -0.654207       -17.8019 
 178   2.0000      -0.648806       -17.6549 
 179   2.0000      -0.643618       -17.5137 
 180   2.0000      -0.639496       -17.4016 
 181   2.0000      -0.638653       -17.3786 
 182   2.0000      -0.631340       -17.1796 
 183   2.0000      -0.629412       -17.1272 
 184   2.0000      -0.626001       -17.0344 
 185   2.0000      -0.623403       -16.9637 
 186   2.0000      -0.623023       -16.9533 
 187   2.0000      -0.616273       -16.7696 
 188   2.0000      -0.615742       -16.7552 
 189   2.0000      -0.611445       -16.6383 
 190   2.0000      -0.609750       -16.5921 
 191   2.0000      -0.605154       -16.4671 
 192   2.0000      -0.601054       -16.3555 
 193   2.0000      -0.596645       -16.2355 
 194   2.0000      -0.593307       -16.1447 
 195   2.0000      -0.586893       -15.9702 
 196   2.0000      -0.586005       -15.9460 
 197   2.0000      -0.582017       -15.8375 
 198   2.0000      -0.579937       -15.7809 
 199   2.0000      -0.578125       -15.7316 
 200   2.0000      -0.576444       -15.6858 
 201   2.0000      -0.569073       -15.4853 
[...]
  28   31922.1    313.3   0.040062438   0.41316  -0.53424   0.34895   0.07737
  29   32400.1    308.6   0.064522971   0.65561  -0.74463   0.30375  -0.09415
  30   32589.1    306.9   0.553133833   5.58770   2.10547  -1.03466  -0.29018
  31   32660.3    306.2   0.736722200   7.42608  -2.21945   1.57288  -0.16171
  32   33041.7    302.6   0.005591183   0.05571   0.13703  -0.19212   0.00433
  33   33062.0    302.5   0.136685777   1.36104  -0.98961   0.35172  -0.50794
  34   33528.9    298.2   0.017458901   0.17142  -0.09304   0.12551   0.38342
  35   33612.8    297.5   0.065017667   0.63680   0.14359  -0.18164   0.76367
  36   33745.1    296.3   0.230087639   2.24470   1.19432  -0.79319   0.43492
  37   33857.4    295.4   0.138943390   1.35101   0.19827   0.49976  -1.03051
  38   33920.4    294.8   0.103459825   1.00412  -0.29232   0.19184  -0.93908
  39   34035.4    293.8   0.134636580   1.30229  -0.79970   0.80444  -0.12502
  40   34118.1    293.1   0.405483526   3.91259  -0.69531   0.36775  -1.81491
  41   34223.0    292.2   0.126451666   1.21641  -0.21886   0.26177   1.04881
  42   34348.6    291.1   0.023141542   0.22180   0.18704  -0.25599  -0.34826
  43   34422.9    290.5   0.018017272   0.17231  -0.39005   0.10905   0.09103
  44   34560.0    289.4   0.021635879   0.20610  -0.15691  -0.38193  -0.18869
  45   34768.7    287.6   0.102400257   0.96959   0.70172  -0.58315   0.37029
  46   34835.7    287.1   0.107956591   1.02023   0.31661  -0.52635  -0.80184
  47   34927.8    286.3   0.079042915   0.74502   0.13141  -0.22994  -0.82151
  48   35159.1    284.4   0.000796120   0.00745   0.00531   0.04894  -0.07093
  49   35408.0    282.4   0.188334285   1.75107  -1.19701   0.35569  -0.43785
  50   35475.9    281.9   0.030726260   0.28514   0.19499   0.30324  -0.39391
  51   35531.2    281.4   0.042454085   0.39336   0.44023   0.20086   0.39901
  52   35581.4    281.0   0.131112392   1.21310   0.52937  -0.24929  -0.93312
  53   35643.4    280.6   0.010725952   0.09907  -0.23723  -0.19683  -0.06363
  54   35901.5    278.5   0.094456811   0.86616  -0.84119   0.24729   0.31209
  55   35991.2    277.8   0.065293165   0.59724  -0.68577   0.32530  -0.14538
  56   36154.6    276.6   0.027409813   0.24958  -0.10776   0.39641  -0.28430
  57   36303.9    275.5   0.086285796   0.78246   0.81282  -0.30640   0.16701
  58   36321.4    275.3   0.001826441   0.01655   0.05451  -0.11447  -0.02188
  59   36497.2    274.0   0.022907460   0.20663  -0.32333   0.11621  -0.29763
  60   36604.5    273.2   0.022331891   0.20085   0.16434  -0.12989  -0.39619
  61   36652.3    272.8   0.067983158   0.61063   0.02719   0.20432  -0.75375
  62   36801.9    271.7   0.005700785   0.05100   0.14235  -0.01543   0.17463
  63   37287.6    268.2   0.002537103   0.02240  -0.10499  -0.05295  -0.09260
  64   37486.4    266.8   0.021345176   0.18746   0.00973  -0.33329  -0.27618
  65   37690.4    265.3   0.033533112   0.29290   0.07054  -0.37905  -0.37980
  66   37817.6    264.4   0.073541772   0.64020   0.60634  -0.01340   0.52190
  67   38002.8    263.1   0.072741027   0.63014  -0.18739   0.08612   0.76656
  68   38170.6    262.0   0.185227565   1.59754   0.10563   0.84653   0.93261
  69   38278.4    261.2   0.010570739   0.09091  -0.24985  -0.15203  -0.07331
  70   38323.4    260.9   0.007580544   0.06512   0.23991  -0.06335   0.05957
  71   38620.8    258.9   0.052123620   0.44431  -0.07470   0.42879   0.50485
  72   38735.9    258.2   0.008050303   0.06842  -0.08849  -0.17923  -0.16871
  73   38838.3    257.5   0.014239054   0.12070   0.24446  -0.17403  -0.17507
  74   38892.6    257.1   0.014077676   0.11916  -0.14808  -0.08551  -0.29987
  75   38973.2    256.6   0.059983217   0.50669  -0.50665   0.20837  -0.45450
  76   39058.4    256.0   0.239242148   2.01650  -0.79844  -0.12409  -1.16773
  77   39239.1    254.8   0.051660584   0.43343  -0.37824   0.52367  -0.12702
  78   39352.4    254.1   0.019615654   0.16410  -0.03307   0.08516  -0.39466
  79   39529.6    253.0   0.034084603   0.28387  -0.22832   0.30838  -0.36964
  80   39763.0    251.5   0.011409947   0.09447   0.21004  -0.20742  -0.08559
  81   39861.2    250.9   0.012303623   0.10162   0.20308   0.18037  -0.16685
  82   40042.3    249.7   0.090509611   0.74413  -0.76037  -0.21422   0.34653
  83   40296.2    248.2   0.008465902   0.06916  -0.17957   0.07187  -0.17820

-----------------------------------------------------------------------------
         ABSORPTION SPECTRUM VIA TRANSITION VELOCITY DIPOLE MOMENTS
-----------------------------------------------------------------------------
State   Energy  Wavelength   fosc         P2         PX        PY        PZ  
        (cm-1)    (nm)                  (au**2)     (au)      (au)      (au) 
-----------------------------------------------------------------------------
   0   18128.6    551.6   0.015489473   0.00192   0.02642  -0.00540   0.03452
   1   22041.6    453.7   0.017373733   0.00262   0.02690  -0.04242   0.00969
   2   23569.8    424.3   0.017633168   0.00284   0.02849   0.04058  -0.01956
   3   24508.2    408.0   0.031086431   0.00521  -0.00829  -0.05082  -0.05056
   4   25077.7    398.8   0.011693344   0.00200  -0.01535   0.03531   0.02284
   5   25932.5    385.6   0.072040129   0.01277  -0.03766   0.05187   0.09306
   6   26213.3    381.5   0.030552772   0.00547   0.00437  -0.01553  -0.07220
   7   26318.6    380.0   0.052569568   0.00946   0.09212  -0.01592  -0.02677
   8   26497.6    377.4   0.125797943   0.02278  -0.10275   0.06281  -0.09099
   9   27347.0    365.7   0.039614392   0.00740   0.03071  -0.05656  -0.05711
  10   27537.4    363.1   0.134833834   0.02538  -0.05027   0.09059   0.12101
  11   27965.7    357.6   0.019214659   0.00367  -0.02919   0.04517   0.02793
  12   28264.0    353.8   0.441659012   0.08532  -0.14264   0.16868   0.19110
  13   28408.5    352.0   0.144212426   0.02800   0.07473  -0.11599  -0.09467
  14   28597.9    349.7   0.019207994   0.00375  -0.03147   0.04453   0.02795
  15   28733.4    348.0   0.033873582   0.00665  -0.02537   0.02824   0.07219
  16   28842.9    346.7   0.018458910   0.00364  -0.01694  -0.03948   0.04235
  17   29017.0    344.6   0.019872260   0.00394   0.01589   0.06061  -0.00387
  18   29322.8    341.0   0.138538190   0.02776  -0.02807   0.10865   0.12317
  19   29702.9    336.7   0.021086916   0.00428   0.04561  -0.02394   0.04034
  20   29852.9    335.0   0.002462616   0.00050   0.00724  -0.02117   0.00146
  21   30323.0    329.8   0.080139527   0.01661  -0.08883   0.03931  -0.08469
  22   31104.3    321.5   0.184628509   0.03925   0.17006   0.02288   0.09902
  23   31415.1    318.3   0.002586347   0.00056  -0.01173  -0.01593   0.01281
  24   31467.6    317.8   0.035673333   0.00767  -0.05833   0.04231  -0.04980
  25   31544.0    317.0   0.039542260   0.00852  -0.01651  -0.07925  -0.04441
  26   31614.7    316.3   0.040611556   0.00877  -0.00899  -0.06204  -0.06961
  27   31806.5    314.4   0.101162165   0.02199   0.08934  -0.09982  -0.06359
  28   31922.1    313.3   0.036732106   0.00801  -0.07373   0.05016   0.00787
  29   32400.1    308.6   0.055161762   0.01221  -0.10143   0.04210  -0.01245
  30   32589.1    306.9   0.484768304   0.10797   0.29311  -0.14374  -0.03742
  31   32660.3    306.2   0.665038558   0.14845  -0.31408   0.22178  -0.02479
  32   33041.7    302.6   0.004089465   0.00092   0.01797  -0.02450  -0.00000
  33   33062.0    302.5   0.123048189   0.02780  -0.14198   0.05028  -0.07154
  34   33528.9    298.2   0.016173112   0.00371  -0.01179   0.01641   0.05743
  35   33612.8    297.5   0.055683916   0.01279   0.01964  -0.02363   0.10885
  36   33745.1    296.3   0.207795431   0.04792   0.17436  -0.11695   0.06202
  37   33857.4    295.4   0.125021332   0.02893   0.02963   0.07201  -0.15122
  38   33920.4    294.8   0.094027970   0.02180  -0.04405   0.02823  -0.13806
  39   34035.4    293.8   0.119153623   0.02772  -0.11603   0.11752  -0.02103
  40   34118.1    293.1   0.366548163   0.08547  -0.10451   0.05376  -0.26769
  41   34223.0    292.2   0.113828485   0.02662  -0.03127   0.03734   0.15573
  42   34348.6    291.1   0.020444785   0.00480   0.02705  -0.03480  -0.05345
  43   34422.9    290.5   0.015327653   0.00361  -0.05603   0.01553   0.01503
  44   34560.0    289.4   0.020871299   0.00493  -0.02266  -0.05869  -0.03117
  45   34768.7    287.6   0.092096188   0.02188   0.10654  -0.08751   0.05363
  46   34835.7    287.1   0.091526869   0.02179   0.04725  -0.07949  -0.11507
  47   34927.8    286.3   0.070596398   0.01685   0.01659  -0.03428  -0.12410
  48   35159.1    284.4   0.000923002   0.00022   0.00048   0.00809  -0.01249
  49   35408.0    282.4   0.169746817   0.04108  -0.18285   0.05552  -0.06754
  50   35475.9    281.9   0.025601136   0.00621   0.03169   0.04173  -0.05884
  51   35531.2    281.4   0.033787463   0.00820   0.06292   0.03112   0.05725
  52   35581.4    281.0   0.113194842   0.02753   0.07977  -0.03857  -0.14027
  53   35643.4    280.6   0.009454372   0.00230  -0.03695  -0.02844  -0.01134
  54   35901.5    278.5   0.079405651   0.01948  -0.12492   0.03750   0.04972
  55   35991.2    277.8   0.055031926   0.01354  -0.10377   0.04811  -0.02133
  56   36154.6    276.6   0.023230741   0.00574  -0.01832   0.05950  -0.04318
  57   36303.9    275.5   0.074478157   0.01848   0.12457  -0.04894   0.02382
  58   36321.4    275.3   0.001605927   0.00040   0.00963  -0.01732  -0.00244
  59   36497.2    274.0   0.020090557   0.00501  -0.05053   0.01875  -0.04590
  60   36604.5    273.2   0.018525317   0.00463   0.02373  -0.01905  -0.06090
  61   36652.3    272.8   0.059534523   0.01491   0.00439   0.03229  -0.11769
  62   36801.9    271.7   0.004685196   0.00118   0.02184  -0.00224   0.02639
  63   37287.6    268.2   0.002251404   0.00057  -0.01790  -0.00755  -0.01401
  64   37486.4    266.8   0.016367208   0.00419   0.00110  -0.04914  -0.04216
  65   37690.4    265.3   0.026646832   0.00686   0.00861  -0.05720  -0.05931
  66   37817.6    264.4   0.063553348   0.01643   0.09817  -0.00410   0.08229
  67   38002.8    263.1   0.060269831   0.01565  -0.03050   0.01426   0.12050
  68   38170.6    262.0   0.150056882   0.03915   0.01851   0.13110   0.14702
  69   38278.4    261.2   0.008975635   0.00235  -0.03995  -0.02447  -0.01239
  70   38323.4    260.9   0.006332239   0.00166   0.03853  -0.00821   0.01034
  71   38620.8    258.9   0.039321275   0.01038  -0.01236   0.06636   0.07630
  72   38735.9    258.2   0.005962385   0.00158  -0.01621  -0.02580  -0.02549
  73   38838.3    257.5   0.011837889   0.00314   0.03943  -0.02567  -0.03046
  74   38892.6    257.1   0.010546739   0.00280  -0.02133  -0.01288  -0.04672
  75   38973.2    256.6   0.047796009   0.01273  -0.08200   0.03108  -0.07100
  76   39058.4    256.0   0.197333033   0.05268  -0.13074  -0.02045  -0.18752
  77   39239.1    254.8   0.036816118   0.00987  -0.05888   0.07918  -0.01174
  78   39352.4    254.1   0.016273592   0.00438  -0.00832   0.01540  -0.06380
  79   39529.6    253.0   0.026279367   0.00710  -0.03851   0.04853  -0.05711
  80   39763.0    251.5   0.010378335   0.00282   0.03646  -0.03649  -0.01262
  81   39861.2    250.9   0.010336422   0.00282   0.03142   0.03005  -0.03043
  82   40042.3    249.7   0.073628861   0.02015  -0.12243  -0.03705   0.06155
  83   40296.2    248.2   0.006714416   0.00185  -0.02816   0.00910  -0.03120

-------------------------------------------------------------------
                             CD SPECTRUM
-------------------------------------------------------------------
State   Energy Wavelength       R         MX        MY        MZ   
        (cm-1)   (nm)       (1e40*cgs)   (au)      (au)      (au)  
-------------------------------------------------------------------
   0   18128.6    551.6     25.53917  -0.38293   0.37135   0.04669
   1   22041.6    453.7     -2.44920   0.58764   0.47451   0.51263
   2   23569.8    424.3     76.57382  -0.82188  -0.51192  -0.63078
   3   24508.2    408.0      9.99970   0.72121  -0.58294   0.60492
   4   25077.7    398.8    -12.67293  -0.50809   0.30091  -0.53755
   5   25932.5    385.6    -67.43566  -1.36954   0.46927  -0.44080
   6   26213.3    381.5    -16.25001   0.79031  -0.45881   0.08861
   7   26318.6    380.0     57.71818   0.01286   0.38226   0.85490
   8   26497.6    377.4      5.68806   0.32410  -0.53621  -0.75050
   9   27347.0    365.7    -49.99843   0.78985  -0.03204   0.03343
  10   27537.4    363.1     39.80276  -1.83061   0.66775  -1.44507
  11   27965.7    357.6     22.17684  -0.04192  -0.02344  -0.40331
  12   28264.0    353.8    -116.43308  -2.45938   1.20126  -2.60766
  13   28408.5    352.0     -8.52825   1.74280  -0.30564   1.68421
  14   28597.9    349.7    -54.84941  -0.07146   0.65244  -0.11288
  15   28733.4    348.0    -30.32502  -0.90043   0.00731  -0.08334
  16   28842.9    346.7    -22.41050  -0.04418  -0.56268  -0.25452
  17   29017.0    344.6     47.92357  -0.88318  -0.23392  -0.47272
  18   29322.8    341.0    140.89143  -2.03887   0.32358  -1.41037
  19   29702.9    336.7    -46.00797   0.34655   0.30785   0.42195
  20   29852.9    335.0    -18.39937  -0.14091  -0.56473  -0.24245
  21   30323.0    329.8     47.34451   0.29485  -1.32361  -0.65746
  22   31104.3    321.5    -10.15029  -1.07527   1.28184   1.54156
  23   31415.1    318.3      1.96340   0.05254   0.00993  -0.03061
  24   31467.6    317.8      7.12392   0.15826  -0.87002  -0.84841
  25   31544.0    317.0     57.27259   1.13277   0.01738   0.26629
  26   31614.7    316.3    -19.22615   0.57484  -0.86738   0.51707
  27   31806.5    314.4     26.48246   0.64691  -0.07346   1.21826
  28   31922.1    313.3     48.12385   0.09755  -0.18991  -1.10862
  29   32400.1    308.6    -13.15566   0.01457  -0.09858  -1.02601
  30   32589.1    306.9    -236.99777   0.82791   0.29730   1.48222
  31   32660.3    306.2     42.06043   0.64506   0.13520  -6.43510
  32   33041.7    302.6      7.82710   0.42781   0.47253  -0.24163
  33   33062.0    302.5     47.80434   0.74134  -0.10597  -1.11844
  34   33528.9    298.2     10.50358  -1.10476  -0.98788  -0.06092
  35   33612.8    297.5     11.14107   0.06728   0.23055  -0.01970
  36   33745.1    296.3    -102.28585  -1.17341  -0.58842   3.14687
  37   33857.4    295.4    132.52782  -0.26751   0.70947   0.83817
  38   33920.4    294.8     54.28533   1.11416   0.56368   0.01356
  39   34035.4    293.8    -71.29142  -0.38711  -0.29217  -1.82285
  40   34118.1    293.1    -96.71231   1.53758  -0.18591  -0.85279
  41   34223.0    292.2    124.65207  -1.40766  -0.33632  -0.71400
  42   34348.6    291.1     -3.39627   0.69568   0.40415   0.03518
  43   34422.9    290.5     19.45847   0.04336  -0.33742  -0.31684
  44   34560.0    289.4     46.45471   1.16526  -0.27388   0.62977
  45   34768.7    287.6      7.85526  -0.11061   0.27520   0.55303
  46   34835.7    287.1    -30.44074   1.56410   0.07928   0.40449
  47   34927.8    286.3    -49.13417   1.40352   0.36504  -0.13139
  48   35159.1    284.4     11.28678  -0.15692  -0.65699   0.20996
  49   35408.0    282.4     14.08042   0.67878   0.19565  -1.56030
  50   35475.9    281.9     41.23382  -0.55938  -0.27356  -0.04341
  51   35531.2    281.4     36.08632  -1.09118   0.30170   0.66838
  52   35581.4    281.0    -13.69361   0.64815  -0.86744   0.53719
  53   35643.4    280.6     21.01808   0.50294  -0.12669  -0.08189
  54   35901.5    278.5      2.66816  -0.38832  -0.67513  -0.54798
  55   35991.2    277.8    -18.06449  -0.08376  -0.32103  -0.85039
  56   36154.6    276.6    -46.83218   0.23942  -0.08549  -0.90875
  57   36303.9    275.5    -14.52668   0.13669   0.69312   0.97534
  58   36321.4    275.3      1.21445  -0.17234  -0.16229   0.65528
  59   36497.2    274.0     -8.25507   0.10896  -0.29526  -0.35132
  60   36604.5    273.2     21.92462   0.71404   0.12823   0.48891
  61   36652.3    272.8    -93.73639   0.99539   0.59313  -0.33089
  62   36801.9    271.7     -5.96705  -0.14793   0.12921   0.27697
  63   37287.6    268.2     11.92474   0.56919   0.07670  -0.14287
  64   37486.4    266.8      3.26856   0.45461  -0.33370   0.46893
  65   37690.4    265.3    -30.62850   1.40336  -0.29298   0.21094
  66   37817.6    264.4    102.13243  -1.74121  -0.09747   1.19024
  67   38002.8    263.1    -194.24081  -1.50323   0.32364   0.67113
  68   38170.6    262.0     11.73352  -3.13456  -0.03097   0.32975
  69   38278.4    261.2      2.99793   0.32634  -0.41457  -0.07901
  70   38323.4    260.9      0.32143  -0.07586   0.45926   0.77104
  71   38620.8    258.9      4.41766  -1.71198  -0.18829  -0.13052
  72   38735.9    258.2     28.95785   0.94809   0.40642  -0.20086
  73   38838.3    257.5    -30.90285   1.22883   0.80274   0.16909
  74   38892.6    257.1     -9.66028   0.71111  -0.35675  -0.38609
  75   38973.2    256.6     46.10046   1.01013  -0.60081  -0.97119
  76   39058.4    256.0    -52.40751   2.03780  -2.08330  -1.36236
  77   39239.1    254.8    -34.36591  -0.80808  -0.46760  -0.66925
  78   39352.4    254.1    -31.70817   0.81816   1.20975  -0.14836
  79   39529.6    253.0    -11.68147  -0.43450  -0.84318  -0.56911
  80   39763.0    251.5     31.36532   0.36895   0.88217   0.32217
  81   39861.2    250.9    -22.42253   0.18618   0.37893   0.06613
  82   40042.3    249.7    -64.50610  -0.23693  -2.78466  -1.45159
  83   40296.2    248.2    -11.87071   0.46794   0.31184  -0.62836

sTD-DFT done

Total run time:        5.152 sec

           *** ORCA-CIS/TD-DFT FINISHED WITHOUT ERROR ***

-------------------------   --------------------
FINAL SINGLE POINT ENERGY     -5309.112279537501
-------------------------   --------------------


                            ***************************************
                            *     ORCA property calculations      *
                            ***************************************

                                    ---------------------
                                    Active property flags
                                    ---------------------
   (+) Dipole Moment


------------------------------------------------------------------------------
                       ORCA ELECTRIC PROPERTIES CALCULATION
------------------------------------------------------------------------------

Dipole Moment Calculation                       ... on
Quadrupole Moment Calculation                   ... off
Polarizability Calculation                      ... off
GBWName                                         ... xtbopt.gbw
Electron density file                           ... xtbopt.scfp
The origin for moment calculation is the CENTER OF MASS  = ( 2.863291,  9.017699 -6.567394)

-------------
DIPOLE MOMENT
-------------
                                X             Y             Z
Electronic contribution:     32.61948     -30.61836       1.51735
Nuclear contribution   :    -35.40550      32.12926      -2.90978
                        -----------------------------------------
Total Dipole Moment    :     -2.78602       1.51090      -1.39243
                        -----------------------------------------
Magnitude (a.u.)       :      3.46173
Magnitude (Debye)      :      8.79902



--------------------
Rotational spectrum 
--------------------
 
Rotational constants in cm-1:     0.000810     0.000497     0.000338 
Rotational constants in MHz :    24.269158    14.893636    10.145438 

 Dipole components along the rotational axes: 
x,y,z [a.u.] :    -2.695453    -2.047828    -0.724236 
x,y,z [Debye]:    -6.851297    -5.205164    -1.840861 

 

Timings for individual modules:

Sum of individual times         ...      927.328 sec (=  15.455 min)
GTO integral calculation        ...        4.233 sec (=   0.071 min)   0.5 %
SCF iterations                  ...      917.169 sec (=  15.286 min)  98.9 %
CIS module                      ...        5.927 sec (=   0.099 min)   0.6 %
                             ****ORCA TERMINATED NORMALLY****
TOTAL RUN TIME: 0 days 0 hours 15 minutes 28 seconds 422 msec
