
                                 *****************
                                 * O   R   C   A *
                                 *****************

           --- An Ab Initio, DFT and Semiempirical electronic structure package ---

                  #######################################################
                  #                        -***-                        #
                  #          Department of theory and spectroscopy      #
                  #               Directorship: Frank Neese             #
                  #        Max Planck Institute fuer Kohlenforschung    #
                  #                Kaiser Wilhelm Platz 1               #
                  #                 D-45470 Muelheim/Ruhr               #
                  #                      Germany                        #
                  #                                                     #
                  #                  All rights reserved                #
                  #                        -***-                        #
                  #######################################################


                         Program Version 4.2.0 -  RELEASE  -


 With contributions from (in alphabetic order):
   Daniel Aravena         : Magnetic Suceptibility
   Michael Atanasov       : Ab Initio Ligand Field Theory (pilot matlab implementation)
   Alexander A. Auer      : GIAO ZORA, VPT2
   Ute Becker             : Parallelization
   Giovanni Bistoni       : ED, misc. LED, open-shell LED, HFLED
   Martin Brehm           : Molecular dynamics
   Dmytro Bykov           : SCF Hessian
   Vijay G. Chilkuri      : MRCI spin determinant printing, contributions to CSF-ICE
   Dipayan Datta          : RHF DLPNO-CCSD density
   Achintya Kumar Dutta   : EOM-CC, STEOM-CC
   Dmitry Ganyushin       : Spin-Orbit,Spin-Spin,Magnetic field MRCI
   Miquel Garcia          : C-PCM Hessian, Gaussian charge scheme
   Yang Guo               : DLPNO-NEVPT2, CIM, IAO-localization
   Andreas Hansen         : Spin unrestricted coupled pair/coupled cluster methods
   Benjamin Helmich-Paris : CASSCF linear response (MC-RPA)
   Lee Huntington         : MR-EOM, pCC
   Robert Izsak           : Overlap fitted RIJCOSX, COSX-SCS-MP3, EOM
   Christian Kollmar      : KDIIS, OOCD, Brueckner-CCSD(T), CCSD density
   Simone Kossmann        : Meta GGA functionals, TD-DFT gradient, OOMP2, MP2 Hessian
   Martin Krupicka        : AUTO-CI
   Lucas Lang             : DCDCAS
   Dagmar Lenk            : GEPOL surface, SMD
   Dimitrios Liakos       : Extrapolation schemes; Compound Job, initial MDCI parallelization
   Dimitrios Manganas     : Further ROCIS development; embedding schemes
   Dimitrios Pantazis     : SARC Basis sets
   Taras Petrenko         : DFT Hessian,TD-DFT gradient, ASA, ECA, R-Raman, ABS, FL, XAS/XES, NRVS
   Peter Pinski           : DLPNO-MP2, DLPNO-MP2 Gradient
   Christoph Reimann      : Effective Core Potentials
   Marius Retegan         : Local ZFS, SOC
   Christoph Riplinger    : Optimizer, TS searches, QM/MM, DLPNO-CCSD(T), (RO)-DLPNO pert. Triples
   Tobias Risthaus        : Range-separated hybrids, TD-DFT gradient, RPA, STAB
   Michael Roemelt        : Original ROCIS implementation
   Masaaki Saitow         : Open-shell DLPNO-CCSD energy and density
   Barbara Sandhoefer     : DKH picture change effects
   Avijit Sen             : IP-ROCIS
   Kantharuban Sivalingam : CASSCF convergence, NEVPT2, FIC-MRCI
   Bernardo de Souza      : ESD, SOC TD-DFT
   Georgi Stoychev        : AutoAux, RI-MP2 NMR
   Willem Van den Heuvel  : Paramagnetic NMR
   Boris Wezisla          : Elementary symmetry handling
   Frank Wennmohs         : Technical directorship


 We gratefully acknowledge several colleagues who have allowed us to
 interface, adapt or use parts of their codes:
   Stefan Grimme, W. Hujo, H. Kruse,             : VdW corrections, initial TS optimization,
                  C. Bannwarth                     DFT functionals, gCP, sTDA/sTD-DF
   Ed Valeev, F. Pavosevic, A. Kumar             : LibInt (2-el integral package), F12 methods
   Garnet Chan, S. Sharma, J. Yang, R. Olivares  : DMRG
   Ulf Ekstrom                                   : XCFun DFT Library
   Mihaly Kallay                                 : mrcc  (arbitrary order and MRCC methods)
   Andreas Klamt, Michael Diedenhofen            : otool_cosmo (COSMO solvation model)
   Jiri Pittner, Ondrej Demel                    : Mk-CCSD
   Frank Weinhold                                : gennbo (NPA and NBO analysis)
   Christopher J. Cramer and Donald G. Truhlar   : smd solvation model
   Lars Goerigk                                  : TD-DFT with DH, B97 family of functionals
   V. Asgeirsson, H. Jonsson                     : NEB implementation
   FAccTs GmbH                                   : IRC, NEB, NEB-TS, Multilevel, MM, QM/MM, CI optimization
   S Lehtola, MJT Oliveira, MAL Marques          : LibXC Library


 Your calculation uses the libint2 library for the computation of 2-el integrals
 For citations please refer to: http://libint.valeyev.net

 Your ORCA version has been built with support for libXC version: 4.2.3
 For citations please refer to: https://tddft.org/programs/libxc/

 This ORCA versions uses:
   CBLAS   interface :  Fast vector & matrix operations
   LAPACKE interface :  Fast linear algebra routines
   SCALAPACK package :  Parallel linear algebra routines


XCFun DFT library Copyright 2009-2010 Ulf Ekstrom and contributors.
See http://admol.org/xcfun for more information. This is free soft-
ware; see the source code for copying conditions. There is ABSOLUTELY
NO WARRANTY; not even for MERCHANTABILITY or FITNESS FOR A PARTICULAR
PURPOSE. For details see the documentation. Scientific users of this 
library should cite U. Ekstrom, L. Visscher, R. Bast, A. J. Thorvald-
sen and K. Ruud; J.Chem.Theor.Comp. 2010, DOI: 10.1021/ct100117s
XCFun Version 0.99 
----- Orbital basis set information -----
Your calculation utilizes the basis: def2-SVP
   F. Weigend and R. Ahlrichs, Phys. Chem. Chem. Phys. 7, 3297 (2005).

----- AuxJ basis set information -----
Your calculation utilizes the auxiliary basis: def2/J
   F. Weigend, Phys. Chem. Chem. Phys. 8, 1057 (2006).

================================================================================
                                        WARNINGS
                       Please study these warnings very carefully!
================================================================================

INFO   : Checking CIS options ...

WARNING: CIS/ROCIS methods need fully converged wavefunctions
  ===> : Setting SCFConvForced true
         You can overwrite this default with %scf ConvForced false 


INFO   : the flag for use of LIBINT has been found!

================================================================================
                                       INPUT FILE
================================================================================
NAME = xtbopt.inp
|  1> # ORCA input file
|  2> # SCF done       -170.081218977710          0.000359458148
|  3> ! CAM-B3LYP def2-SVP def2/J RIJCOSX Grid4 TightSCF
|  4> %maxcore 5000
|  5> %tddft
|  6>     Mode sTDDFT
|  7>     Ethresh 5.0
|  8>     maxcore 5000
|  9> end
| 10> 
| 11> %pal
| 12>   nprocs 6
| 13>   end
| 14> * xyz 0 1
| 15>    C      -10.32095       -18.06077         6.31662
| 16>    C      -10.67720       -17.74879         5.06378
| 17>    C      -11.82721       -18.21423         4.33914
| 18>    C      -11.92846       -17.72771         3.08483
| 19>    C      -10.87609       -16.84087         2.70835
| 20>    S       -9.74415       -16.65196         4.03154
| 21>    C      -10.70754       -16.19709         1.51006
| 22>    C      -11.55164       -16.27097         0.36936
| 23>    C      -11.11849       -15.51965        -0.67095
| 24>    C       -9.90899       -14.80973        -0.41374
| 25>    S       -9.33264       -15.12807         1.20397
| 26>    C       -9.24089       -13.98083        -1.26271
| 27>    C       -8.03636       -13.34197        -0.84089
| 28>    N       -7.63213       -13.61819         0.40825
| 29>    C       -6.52636       -13.04357         0.83626
| 30>    C       -5.79733       -12.17706         0.04365
| 31>    C       -6.28306       -11.93847        -1.25566
| 32>    N       -7.39781       -12.52913        -1.68064
| 33>    C       -5.64132       -11.07200        -2.21713
| 34>    C       -4.54869       -10.32081        -1.98135
| 35>    C       -3.93230        -9.45712        -2.92778
| 36>    S       -4.73798        -9.05052        -4.40984
| 37>    C       -3.51967        -7.96729        -4.87418
| 38>    C       -2.49972        -7.90546        -3.94945
| 39>    C       -2.71087        -8.78158        -2.83390
| 40>    C       -1.70576        -8.86191        -1.83177
| 41>    C       -0.62797        -8.01102        -1.90755
| 42>    C       -0.44432        -7.12524        -2.97968
| 43>    C       -1.34476        -7.07684        -4.01143
| 44>    O       -1.20787        -6.27838        -5.09134
| 45>    C       -1.77486        -9.81494        -0.72001
| 46>    C       -1.66599       -11.19292        -0.81495
| 47>    C       -1.39974       -12.12599        -1.87315
| 48>    O       -1.56235       -13.32049        -1.76236
| 49>    C       -0.77330       -11.60065        -3.19659
| 50>    F        0.16514       -10.66273        -2.98592
| 51>    F       -0.17629       -12.59725        -3.84798
| 52>    F       -1.67721       -11.07502        -4.03476
| 53>    S       -1.89607       -11.96681         0.74130
| 54>    C       -2.06265       -10.46025         1.49721
| 55>    C       -1.98373        -9.38761         0.62805
| 56>    C       -2.12866        -8.00687         0.98781
| 57>    C       -2.28031        -7.53778         2.24833
| 58>    C       -2.40738        -6.15057         2.50694
| 59>    C       -2.57851        -5.60146         3.74430
| 60>    C       -2.70615        -4.18967         4.06012
| 61>    C       -2.56226        -3.13567         3.19395
| 62>    C       -2.24785        -3.23639         1.82291
| 63>    N       -1.98262        -3.22983         0.70519
| 64>    C       -2.68846        -1.78124         3.56787
| 65>    N       -2.78115        -0.66224         3.80687
| 66>    C       -2.98372        -4.07866         5.48695
| 67>    C       -2.98079        -5.37584         6.05703
| 68>    C       -2.71285        -6.37447         5.00536
| 69>    O       -2.63029        -7.57533         5.15832
| 70>    C       -3.20807        -5.59999         7.39319
| 71>    C       -3.45488        -4.49090         8.20853
| 72>    C       -3.46006        -3.19838         7.63063
| 73>    C       -3.22716        -2.97180         6.28011
| 74>    S       -3.79069        -1.97074         8.81462
| 75>    C       -3.91573        -3.19277        10.05254
| 76>    C       -3.71981        -4.45587         9.60459
| 77>   Br       -4.29297        -2.68578        11.81792
| 78>    H      -10.91870       -18.73203         6.90784
| 79>    H       -9.43488       -17.65510         6.76916
| 80>    H      -12.52448       -18.89423         4.79597
| 81>    H      -12.72374       -17.96992         2.40224
| 82>    H      -12.44502       -16.87056         0.35079
| 83>    H      -11.61544       -15.44024        -1.62207
| 84>    H       -9.60026       -13.78796        -2.25997
| 85>    H       -6.22268       -13.28989         1.84597
| 86>    H       -4.89640       -11.71753         0.41341
| 87>    H       -6.10994       -11.06009        -3.19150
| 88>    H       -4.09772       -10.33014        -1.00037
| 89>    H       -3.59335        -7.41330        -5.78789
| 90>    H        0.13455        -8.06036        -1.14473
| 91>    H        0.43590        -6.49883        -2.99679
| 92>    H       -0.39227        -5.76537        -5.02452
| 93>    H       -2.22555       -10.41387         2.55649
| 94>    H       -2.10601        -7.30466         0.16337
| 95>    H       -2.30133        -8.20694         3.09390
| 96>    H       -2.36804        -5.49785         1.64446
| 97>    H       -3.19761        -6.60057         7.79622
| 98>    H       -3.24388        -1.96829         5.88939
| 99>    H       -3.76074        -5.32783        10.23146
|100> *
|101> 
|102>                          ****END OF INPUT****
================================================================================

                       ****************************
                       * Single Point Calculation *
                       ****************************

---------------------------------
CARTESIAN COORDINATES (ANGSTROEM)
---------------------------------
  C    -10.320950  -18.060770    6.316620
  C    -10.677200  -17.748790    5.063780
  C    -11.827210  -18.214230    4.339140
  C    -11.928460  -17.727710    3.084830
  C    -10.876090  -16.840870    2.708350
  S     -9.744150  -16.651960    4.031540
  C    -10.707540  -16.197090    1.510060
  C    -11.551640  -16.270970    0.369360
  C    -11.118490  -15.519650   -0.670950
  C     -9.908990  -14.809730   -0.413740
  S     -9.332640  -15.128070    1.203970
  C     -9.240890  -13.980830   -1.262710
  C     -8.036360  -13.341970   -0.840890
  N     -7.632130  -13.618190    0.408250
  C     -6.526360  -13.043570    0.836260
  C     -5.797330  -12.177060    0.043650
  C     -6.283060  -11.938470   -1.255660
  N     -7.397810  -12.529130   -1.680640
  C     -5.641320  -11.072000   -2.217130
  C     -4.548690  -10.320810   -1.981350
  C     -3.932300   -9.457120   -2.927780
  S     -4.737980   -9.050520   -4.409840
  C     -3.519670   -7.967290   -4.874180
  C     -2.499720   -7.905460   -3.949450
  C     -2.710870   -8.781580   -2.833900
  C     -1.705760   -8.861910   -1.831770
  C     -0.627970   -8.011020   -1.907550
  C     -0.444320   -7.125240   -2.979680
  C     -1.344760   -7.076840   -4.011430
  O     -1.207870   -6.278380   -5.091340
  C     -1.774860   -9.814940   -0.720010
  C     -1.665990  -11.192920   -0.814950
  C     -1.399740  -12.125990   -1.873150
  O     -1.562350  -13.320490   -1.762360
  C     -0.773300  -11.600650   -3.196590
  F      0.165140  -10.662730   -2.985920
  F     -0.176290  -12.597250   -3.847980
  F     -1.677210  -11.075020   -4.034760
  S     -1.896070  -11.966810    0.741300
  C     -2.062650  -10.460250    1.497210
  C     -1.983730   -9.387610    0.628050
  C     -2.128660   -8.006870    0.987810
  C     -2.280310   -7.537780    2.248330
  C     -2.407380   -6.150570    2.506940
  C     -2.578510   -5.601460    3.744300
  C     -2.706150   -4.189670    4.060120
  C     -2.562260   -3.135670    3.193950
  C     -2.247850   -3.236390    1.822910
  N     -1.982620   -3.229830    0.705190
  C     -2.688460   -1.781240    3.567870
  N     -2.781150   -0.662240    3.806870
  C     -2.983720   -4.078660    5.486950
  C     -2.980790   -5.375840    6.057030
  C     -2.712850   -6.374470    5.005360
  O     -2.630290   -7.575330    5.158320
  C     -3.208070   -5.599990    7.393190
  C     -3.454880   -4.490900    8.208530
  C     -3.460060   -3.198380    7.630630
  C     -3.227160   -2.971800    6.280110
  S     -3.790690   -1.970740    8.814620
  C     -3.915730   -3.192770   10.052540
  C     -3.719810   -4.455870    9.604590
  Br    -4.292970   -2.685780   11.817920
  H    -10.918700  -18.732030    6.907840
  H     -9.434880  -17.655100    6.769160
  H    -12.524480  -18.894230    4.795970
  H    -12.723740  -17.969920    2.402240
  H    -12.445020  -16.870560    0.350790
  H    -11.615440  -15.440240   -1.622070
  H     -9.600260  -13.787960   -2.259970
  H     -6.222680  -13.289890    1.845970
  H     -4.896400  -11.717530    0.413410
  H     -6.109940  -11.060090   -3.191500
  H     -4.097720  -10.330140   -1.000370
  H     -3.593350   -7.413300   -5.787890
  H      0.134550   -8.060360   -1.144730
  H      0.435900   -6.498830   -2.996790
  H     -0.392270   -5.765370   -5.024520
  H     -2.225550  -10.413870    2.556490
  H     -2.106010   -7.304660    0.163370
  H     -2.301330   -8.206940    3.093900
  H     -2.368040   -5.497850    1.644460
  H     -3.197610   -6.600570    7.796220
  H     -3.243880   -1.968290    5.889390
  H     -3.760740   -5.327830   10.231460

----------------------------
CARTESIAN COORDINATES (A.U.)
----------------------------
  NO LB      ZA    FRAG     MASS         X           Y           Z
   0 C     6.0000    0    12.011  -19.503769  -34.129909   11.936682
   1 C     6.0000    0    12.011  -20.176984  -33.540352    9.569157
   2 C     6.0000    0    12.011  -22.350188  -34.419906    8.199786
   3 C     6.0000    0    12.011  -22.541523  -33.500517    5.829484
   4 C     6.0000    0    12.011  -20.552832  -31.824632    5.118040
   5 S    16.0000    0    32.060  -18.413775  -31.467644    7.618506
   6 C     6.0000    0    12.011  -20.234318  -30.608064    2.853600
   7 C     6.0000    0    12.011  -21.829436  -30.747677    0.697989
   8 C     6.0000    0    12.011  -21.010901  -29.327888   -1.267912
   9 C     6.0000    0    12.011  -18.725277  -27.986334   -0.781855
  10 S    16.0000    0    32.060  -17.636134  -28.587909    2.275174
  11 C     6.0000    0    12.011  -17.462751  -26.419940   -2.386176
  12 C     6.0000    0    12.011  -15.186520  -25.212669   -1.589052
  13 N     7.0000    0    14.007  -14.422636  -25.734650    0.771481
  14 C     6.0000    0    12.011  -12.333033  -24.648775    1.580302
  15 C     6.0000    0    12.011  -10.955366  -23.011309    0.082487
  16 C     6.0000    0    12.011  -11.873263  -22.560439   -2.372854
  17 N     7.0000    0    14.007  -13.979835  -23.676624   -3.175949
  18 C     6.0000    0    12.011  -10.660550  -20.923048   -4.189769
  19 C     6.0000    0    12.011   -8.595778  -19.503504   -3.744209
  20 C     6.0000    0    12.011   -7.430970  -17.871367   -5.532702
  21 S    16.0000    0    32.060   -8.953485  -17.103004   -8.333390
  22 C     6.0000    0    12.011   -6.651212  -15.055996   -9.210865
  23 C     6.0000    0    12.011   -4.723786  -14.939154   -7.463379
  24 C     6.0000    0    12.011   -5.122802  -16.594781   -5.355295
  25 C     6.0000    0    12.011   -3.223419  -16.746583   -3.461544
  26 C     6.0000    0    12.011   -1.186691  -15.138634   -3.604747
  27 C     6.0000    0    12.011   -0.839643  -13.464752   -5.630779
  28 C     6.0000    0    12.011   -2.541228  -13.373289   -7.580504
  29 O     8.0000    0    15.999   -2.282544  -11.864419   -9.621238
  30 C     6.0000    0    12.011   -3.353999  -18.547549   -1.360622
  31 C     6.0000    0    12.011   -3.148265  -21.151553   -1.540032
  32 C     6.0000    0    12.011   -2.645125  -22.914800   -3.539741
  33 O     8.0000    0    15.999   -2.952414  -25.172078   -3.330378
  34 C     6.0000    0    12.011   -1.461325  -21.922051   -6.040680
  35 F     9.0000    0    18.998    0.312069  -20.149640   -5.642571
  36 F     9.0000    0    18.998   -0.333140  -23.805353   -7.271628
  37 F     9.0000    0    18.998   -3.169468  -20.928755   -7.624591
  38 S    16.0000    0    32.060   -3.583053  -22.613994    1.400854
  39 C     6.0000    0    12.011   -3.897844  -19.767008    2.829317
  40 C     6.0000    0    12.011   -3.748706  -17.740012    1.186842
  41 C     6.0000    0    12.011   -4.022584  -15.130791    1.866690
  42 C     6.0000    0    12.011   -4.309161  -14.244340    4.248728
  43 C     6.0000    0    12.011   -4.549289  -11.622893    4.737430
  44 C     6.0000    0    12.011   -4.872678  -10.585225    7.075702
  45 C     6.0000    0    12.011   -5.113882   -7.917329    7.672515
  46 C     6.0000    0    12.011   -4.841970   -5.925558    6.035691
  47 C     6.0000    0    12.011   -4.247821   -6.115891    3.444801
  48 N     7.0000    0    14.007   -3.746609   -6.103494    1.332616
  49 C     6.0000    0    12.011   -5.080453   -3.366056    6.742297
  50 N     7.0000    0    14.007   -5.255612   -1.251452    7.193942
  51 C     6.0000    0    12.011   -5.638414   -7.707550   10.368833
  52 C     6.0000    0    12.011   -5.632877  -10.158865   11.446128
  53 C     6.0000    0    12.011   -5.126544  -12.046003    9.458760
  54 O     8.0000    0    15.999   -4.970528  -14.315299    9.747812
  55 C     6.0000    0    12.011   -6.062374  -10.582447   13.971104
  56 C     6.0000    0    12.011   -6.528777   -8.486571   15.511874
  57 C     6.0000    0    12.011   -6.538566   -6.044062   14.419801
  58 C     6.0000    0    12.011   -6.098449   -5.615888   11.867688
  59 S    16.0000    0    32.060   -7.163366   -3.724159   16.657218
  60 C     6.0000    0    12.011   -7.399657   -6.033461   18.996548
  61 C     6.0000    0    12.011   -7.029422   -8.420374   18.150045
  62 Br   35.0000    0    79.900   -8.112538   -5.075389   22.332632
  63 H     1.0000    0     1.008  -20.633353  -35.398407   13.053926
  64 H     1.0000    0     1.008  -17.829339  -33.363304   12.791859
  65 H     1.0000    0     1.008  -23.667837  -35.704920    9.063070
  66 H     1.0000    0     1.008  -24.044384  -33.958227    4.539576
  67 H     1.0000    0     1.008  -23.517680  -31.880738    0.662897
  68 H     1.0000    0     1.008  -21.950001  -29.177825   -3.065268
  69 H     1.0000    0     1.008  -18.141862  -26.055468   -4.270724
  70 H     1.0000    0     1.008  -11.759161  -25.114252    3.488378
  71 H     1.0000    0     1.008   -9.252855  -22.142923    0.781232
  72 H     1.0000    0     1.008  -11.546113  -20.900541   -6.031061
  73 H     1.0000    0     1.008   -7.743569  -19.521136   -1.890425
  74 H     1.0000    0     1.008   -6.790447  -14.009107  -10.937527
  75 H     1.0000    0     1.008    0.254263  -15.231873   -2.163226
  76 H     1.0000    0     1.008    0.823732  -12.281009   -5.663112
  77 H     1.0000    0     1.008   -0.741283  -10.894970   -9.494967
  78 H     1.0000    0     1.008   -4.205680  -19.679362    4.831066
  79 H     1.0000    0     1.008   -3.979782  -13.803807    0.308725
  80 H     1.0000    0     1.008   -4.348883  -15.508869    5.846624
  81 H     1.0000    0     1.008   -4.474947  -10.389431    3.107579
  82 H     1.0000    0     1.008   -6.042607  -12.473270   14.732721
  83 H     1.0000    0     1.008   -6.130045   -3.719529   11.129334
  84 H     1.0000    0     1.008   -7.106769  -10.068140   19.334657

--------------------------------
INTERNAL COORDINATES (ANGSTROEM)
--------------------------------
 C      0   0   0     0.000000000000     0.00000000     0.00000000
 C      1   0   0     1.339348217791     0.00000000     0.00000000
 C      2   1   0     1.436753466430   127.53353766     0.00000000
 C      3   2   1     1.349165241548   114.33986660   180.02139434
 C      4   3   2     1.426781340255   114.46291544     0.00000000
 S      5   4   3     1.751515608780   110.14351839     0.00000000
 C      5   4   3     1.370678924840   127.82973418   179.89699265
 C      7   5   4     1.420971341864   127.18075821     0.05390575
 C      8   7   5     1.354380139030   113.43980955   180.13088122
 C      9   8   7     1.425844886550   114.13745607     0.00000000
 S     10   9   8     1.746569586990   110.87026829     0.00000000
 C     10   9   8     1.361683840287   127.35935477   180.07129458
 C     12  10   9     1.427223434820   120.15233819   179.82449363
 N     13  12  10     1.341659465326   115.93142196     0.19401803
 C     14  13  12     1.317614510166   117.74266094   180.23608472
 C     15  14  13     1.382228249277   121.98873053     0.35257786
 C     16  15  14     1.407503213886   116.97490495   359.53521364
 N     17  16  15     1.331223046112   120.56204574     0.13155457
 C     17  16  15     1.444653954897   124.24604680   180.51821304
 C     19  17  16     1.346743829167   125.33988356   355.86784461
 C     20  19  17     1.421839228992   125.02986878   180.84143002
 S     21  20  19     1.735207672297   120.63587103    12.43371094
 C     22  21  20     1.695074666379    92.86574465   175.44519510
 C     23  22  21     1.378131533744   112.13518285     0.68718939
 C     21  20  19     1.398949245291   128.84132885   189.27037827
 C     25  21  20     1.421605978427   129.59272587     6.14665890
 C     26  25  21     1.375277311890   118.70394136   185.10729202
 C     27  26  25     1.402781618000   122.37042561   356.01927518
 C     28  27  26     1.370271073949   120.78028611   359.77549098
 O     29  28  27     1.349993648800   123.81915658   182.06715007
 C     26  25  21     1.465964286229   122.54847934     5.00909580
 C     31  26  25     1.385530642353   126.22031230    68.02639709
 C     32  31  26     1.435721396163   135.35145664     3.97505340
 O     33  32  31     1.210597656614   123.29105208   192.27420870
 C     33  32  31     1.555603620078   118.83278595    16.90915051
 F     35  33  32     1.343408131917   112.56109391    39.43726273
 F     35  33  32     1.331893926782   110.11426784   158.25022239
 F     35  33  32     1.340100419334   113.13781293   277.74086595
 S     32  31  26     1.753213221773   111.58435176   183.26686995
 C     39  32  31     1.693774441329    90.94161031   357.65943565
 C     40  39  32     1.382831892024   113.81757610     1.38218531
 C     41  40  39     1.434180919584   125.68623317   178.10145110
 C     42  41  40     1.353496886217   125.35212707     4.46939819
 C     43  42  41     1.416819501948   121.29014518   179.56370900
 C     44  43  42     1.364502487576   124.80490526   179.20382199
 C     45  44  43     1.452303427697   126.82838614   179.64389421
 C     46  45  44     1.371812961376   126.89627153   353.81947424
 C     47  46  45     1.410230069209   125.61736028   359.38482512
 N     48  47  46     1.148776734139   175.55607162   188.34273242
 C     47  46  45     1.410752717984   124.11908051   180.55806001
 N     50  47  46     1.147986688120   176.59811000   182.51507248
 C     46  45  44     1.457810746942   107.67385324   175.30081103
 C     52  46  45     1.416924748778   108.88556303     2.08917983
 C     53  52  46     1.474809651921   109.47375449   359.41720678
 O     54  53  52     1.213374490749   126.34240303   179.24960475
 C     53  52  46     1.373762339890   122.70796250   179.76644093
 C     56  53  52     1.398490300217   117.83028827     0.20597304
 C     57  56  53     1.415840101424   119.12158285     0.00000000
 C     52  46  45     1.383294935580   130.96807117   182.11384339
 S     58  57  56     1.737310705257   111.56839195   179.81213422
 C     60  58  57     1.743971974803    90.12885641     0.00000000
 C     61  60  58     1.354424401323   114.10035911     0.00000000
 Br    61  60  58     1.875077444294   119.55530788   180.02771294
 H      1   2   3     1.075842060202   120.77032472     0.00000000
 H      1   2   3     1.074467610214   121.69357436   180.00622704
 H      3   2   1     1.075769074569   120.62357625     0.00000000
 H      4   3   2     1.075669591743   124.34976432   179.96268553
 H      8   7   5     1.076095180456   122.41107731     0.14394172
 H      9   8   7     1.076055065970   124.90142699   180.01143130
 H     12  10   9     1.077438230898   121.49291143   359.90256481
 H     15  14  13     1.082778541023   116.04506603   180.32215664
 H     16  15  14     1.076831065395   120.79008694   179.95703575
 H     19  17  16     1.081269369491   114.44516055   175.71224137
 H     20  19  17     1.079714198388   119.54518659   358.97113712
 H     23  22  21     1.071074052809   120.98262312   181.31425049
 H     27  26  25     1.079706227823   119.09513418   179.43951726
 H     28  27  26     1.080495020164   119.00141580   181.57981093
 H     30  29  28     0.965840324536   110.14752234     0.38991540
 H     40  39  32     1.072735583823   119.60913533   180.63031766
 H     42  41  40     1.083195836495   115.53628161   184.13639627
 H     43  42  41     1.078520083679   121.15170177     0.03100880
 H     44  43  42     1.082341343754   116.21555012   359.53413134
 H     56  53  52     1.078750633325   120.87181186   180.08765820
 H     59  52  46     1.077020889723   122.70190158     0.28148231
 H     62  61  60     1.074688561119   123.93330631   179.99856204

---------------------------
INTERNAL COORDINATES (A.U.)
---------------------------
 C      0   0   0     0.000000000000     0.00000000     0.00000000
 C      1   0   0     2.531001329581     0.00000000     0.00000000
 C      2   1   0     2.715070573516   127.53353766     0.00000000
 C      3   2   1     2.549552815931   114.33986660   180.02139434
 C      4   3   2     2.696225986071   114.46291544     0.00000000
 S      5   4   3     3.309884819883   110.14351839     0.00000000
 C      5   4   3     2.590207785485   127.82973418   179.89699265
 C      7   5   4     2.685246680274   127.18075821     0.05390575
 C      8   7   5     2.559407543990   113.43980955   180.13088122
 C      9   8   7     2.694456345031   114.13745607     0.00000000
 S     10   9   8     3.300538193248   110.87026829     0.00000000
 C     10   9   8     2.573209539129   127.35935477   180.07129458
 C     12  10   9     2.697061423725   120.15233819   179.82449363
 N     13  12  10     2.535368954450   115.93142196     0.19401803
 C     14  13  12     2.489930574295   117.74266094   180.23608472
 C     15  14  13     2.612032845703   121.98873053     0.35257786
 C     16  15  14     2.659795606859   116.97490495   359.53521364
 N     17  16  15     2.515646980316   120.56204574     0.13155457
 C     17  16  15     2.730000333042   124.24604680   180.51821304
 C     19  17  16     2.544977009674   125.33988356   355.86784461
 C     20  19  17     2.686886749260   125.02986878   180.84143002
 S     21  20  19     3.279067286121   120.63587103    12.43371094
 C     22  21  20     3.203226896004    92.86574465   175.44519510
 C     23  22  21     2.604291175297   112.13518285     0.68718939
 C     21  20  19     2.643630948856   128.84132885   189.27037827
 C     25  21  20     2.686445969573   129.59272587     6.14665890
 C     26  25  21     2.598897477668   118.70394136   185.10729202
 C     27  26  25     2.650873083720   122.37042561   356.01927518
 C     28  27  26     2.589437058997   120.78028611   359.77549098
 O     29  28  27     2.551118278765   123.81915658   182.06715007
 C     26  25  21     2.770271023083   122.54847934     5.00909580
 C     31  26  25     2.618273464204   126.22031230    68.02639709
 C     32  31  26     2.713120243359   135.35145664     3.97505340
 O     33  32  31     2.287698029368   123.29105208   192.27420870
 C     33  32  31     2.939664814884   118.83278595    16.90915051
 F     35  33  32     2.538673455405   112.56109391    39.43726273
 F     35  33  32     2.516914761052   110.11426784   158.25022239
 F     35  33  32     2.532422784495   113.13781293   277.74086595
 S     32  31  26     3.313092843521   111.58435176   183.26686995
 C     39  32  31     3.200769826748    90.94161031   357.65943565
 C     40  39  32     2.613173565178   113.81757610     1.38218531
 C     41  40  39     2.710209164510   125.68623317   178.10145110
 C     42  41  40     2.557738438066   125.35212707     4.46939819
 C     43  42  41     2.677400839880   121.29014518   179.56370900
 C     44  43  42     2.578536010572   124.80490526   179.20382199
 C     45  44  43     2.744455741702   126.82838614   179.64389421
 C     46  45  44     2.592350803965   126.89627153   353.81947424
 C     47  46  45     2.664948616625   125.61736028   359.38482512
 N     48  47  46     2.170873416544   175.55607162   188.34273242
 C     47  46  45     2.665936279675   124.11908051   180.55806001
 N     50  47  46     2.169380445933   176.59811000   182.51507248
 C     46  45  44     2.754863066808   107.67385324   175.30081103
 C     52  46  45     2.677599727566   108.88556303     2.08917983
 C     53  52  46     2.786986341795   109.47375449   359.41720678
 O     54  53  52     2.292945485401   126.34240303   179.24960475
 C     53  52  46     2.596034595487   122.70796250   179.76644093
 C     56  53  52     2.642763668355   117.83028827     0.20597304
 C     57  56  53     2.675550041114   119.12158285     0.00000000
 C     52  46  45     2.614048590686   130.96807117   182.11384339
 S     58  57  56     3.283041442465   111.56839195   179.81213422
 C     60  58  57     3.295629417612    90.12885641     0.00000000
 C     61  60  58     2.559491187601   114.10035911     0.00000000
 Br    61  60  58     3.543382849609   119.55530788   180.02771294
 H      1   2   3     2.033046857136   120.77032472     0.00000000
 H      1   2   3     2.030449523074   121.69357436   180.00622704
 H      3   2   1     2.032908934278   120.62357625     0.00000000
 H      4   3   2     2.032720938981   124.34976432   179.96268553
 H      8   7   5     2.033525185094   122.41107731     0.14394172
 H      9   8   7     2.033449379702   124.90142699   180.01143130
 H     12  10   9     2.036063182613   121.49291143   359.90256481
 H     15  14  13     2.046154906220   116.04506603   180.32215664
 H     16  15  14     2.034915806095   120.79008694   179.95703575
 H     19  17  16     2.043302985336   114.44516055   175.71224137
 H     20  19  17     2.040364137859   119.54518659   358.97113712
 H     23  22  21     2.024036628958   120.98262312   181.31425049
 H     27  26  25     2.040349075675   119.09513418   179.43951726
 H     28  27  26     2.041839677176   119.00141580   181.57981093
 H     30  29  28     1.825173702471   110.14752234     0.38991540
 H     40  39  32     2.027176467538   119.60913533   180.63031766
 H     42  41  40     2.046943480379   115.53628161   184.13639627
 H     43  42  41     2.038107588088   121.15170177     0.03100880
 H     44  43  42     2.045328723116   116.21555012   359.53413134
 H     56  53  52     2.038543263779   120.87181186   180.08765820
 H     59  52  46     2.035274522089   122.70190158     0.28148231
 H     62  61  60     2.030867059773   123.93330631   179.99856204

---------------------
BASIS SET INFORMATION
---------------------
There are 7 groups of distinct atoms

 Group   1 Type C   : 7s4p1d contracted to 3s2p1d pattern {511/31/1}
 Group   2 Type S   : 10s7p1d contracted to 4s3p1d pattern {5311/511/1}
 Group   3 Type N   : 7s4p1d contracted to 3s2p1d pattern {511/31/1}
 Group   4 Type O   : 7s4p1d contracted to 3s2p1d pattern {511/31/1}
 Group   5 Type F   : 7s4p1d contracted to 3s2p1d pattern {511/31/1}
 Group   6 Type Br  : 14s10p6d contracted to 5s4p3d pattern {63311/5311/411}
 Group   7 Type H   : 4s1p contracted to 2s1p pattern {31/1}

Atom   0C    basis set group =>   1
Atom   1C    basis set group =>   1
Atom   2C    basis set group =>   1
Atom   3C    basis set group =>   1
Atom   4C    basis set group =>   1
Atom   5S    basis set group =>   2
Atom   6C    basis set group =>   1
Atom   7C    basis set group =>   1
Atom   8C    basis set group =>   1
Atom   9C    basis set group =>   1
Atom  10S    basis set group =>   2
Atom  11C    basis set group =>   1
Atom  12C    basis set group =>   1
Atom  13N    basis set group =>   3
Atom  14C    basis set group =>   1
Atom  15C    basis set group =>   1
Atom  16C    basis set group =>   1
Atom  17N    basis set group =>   3
Atom  18C    basis set group =>   1
Atom  19C    basis set group =>   1
Atom  20C    basis set group =>   1
Atom  21S    basis set group =>   2
Atom  22C    basis set group =>   1
Atom  23C    basis set group =>   1
Atom  24C    basis set group =>   1
Atom  25C    basis set group =>   1
Atom  26C    basis set group =>   1
Atom  27C    basis set group =>   1
Atom  28C    basis set group =>   1
Atom  29O    basis set group =>   4
Atom  30C    basis set group =>   1
Atom  31C    basis set group =>   1
Atom  32C    basis set group =>   1
Atom  33O    basis set group =>   4
Atom  34C    basis set group =>   1
Atom  35F    basis set group =>   5
Atom  36F    basis set group =>   5
Atom  37F    basis set group =>   5
Atom  38S    basis set group =>   2
Atom  39C    basis set group =>   1
Atom  40C    basis set group =>   1
Atom  41C    basis set group =>   1
Atom  42C    basis set group =>   1
Atom  43C    basis set group =>   1
Atom  44C    basis set group =>   1
Atom  45C    basis set group =>   1
Atom  46C    basis set group =>   1
Atom  47C    basis set group =>   1
Atom  48N    basis set group =>   3
Atom  49C    basis set group =>   1
Atom  50N    basis set group =>   3
Atom  51C    basis set group =>   1
Atom  52C    basis set group =>   1
Atom  53C    basis set group =>   1
Atom  54O    basis set group =>   4
Atom  55C    basis set group =>   1
Atom  56C    basis set group =>   1
Atom  57C    basis set group =>   1
Atom  58C    basis set group =>   1
Atom  59S    basis set group =>   2
Atom  60C    basis set group =>   1
Atom  61C    basis set group =>   1
Atom  62Br   basis set group =>   6
Atom  63H    basis set group =>   7
Atom  64H    basis set group =>   7
Atom  65H    basis set group =>   7
Atom  66H    basis set group =>   7
Atom  67H    basis set group =>   7
Atom  68H    basis set group =>   7
Atom  69H    basis set group =>   7
Atom  70H    basis set group =>   7
Atom  71H    basis set group =>   7
Atom  72H    basis set group =>   7
Atom  73H    basis set group =>   7
Atom  74H    basis set group =>   7
Atom  75H    basis set group =>   7
Atom  76H    basis set group =>   7
Atom  77H    basis set group =>   7
Atom  78H    basis set group =>   7
Atom  79H    basis set group =>   7
Atom  80H    basis set group =>   7
Atom  81H    basis set group =>   7
Atom  82H    basis set group =>   7
Atom  83H    basis set group =>   7
Atom  84H    basis set group =>   7
---------------------------------
AUXILIARY/J BASIS SET INFORMATION
---------------------------------
There are 7 groups of distinct atoms

 Group   1 Type C   : 12s5p4d2f1g contracted to 6s4p3d1f1g pattern {711111/2111/211/2/1}
 Group   2 Type S   : 14s5p5d2f1g contracted to 8s4p3d1f1g pattern {71111111/2111/311/2/1}
 Group   3 Type N   : 12s5p4d2f1g contracted to 6s4p3d1f1g pattern {711111/2111/211/2/1}
 Group   4 Type O   : 12s5p4d2f1g contracted to 6s4p3d1f1g pattern {711111/2111/211/2/1}
 Group   5 Type F   : 12s5p4d2f1g contracted to 6s4p3d1f1g pattern {711111/2111/211/2/1}
 Group   6 Type Br  : 19s5p5d3f1g contracted to 8s4p3d2f1g pattern {121111111/2111/311/21/1}
 Group   7 Type H   : 5s2p1d contracted to 3s1p1d pattern {311/2/1}

Atom   0C    basis set group =>   1
Atom   1C    basis set group =>   1
Atom   2C    basis set group =>   1
Atom   3C    basis set group =>   1
Atom   4C    basis set group =>   1
Atom   5S    basis set group =>   2
Atom   6C    basis set group =>   1
Atom   7C    basis set group =>   1
Atom   8C    basis set group =>   1
Atom   9C    basis set group =>   1
Atom  10S    basis set group =>   2
Atom  11C    basis set group =>   1
Atom  12C    basis set group =>   1
Atom  13N    basis set group =>   3
Atom  14C    basis set group =>   1
Atom  15C    basis set group =>   1
Atom  16C    basis set group =>   1
Atom  17N    basis set group =>   3
Atom  18C    basis set group =>   1
Atom  19C    basis set group =>   1
Atom  20C    basis set group =>   1
Atom  21S    basis set group =>   2
Atom  22C    basis set group =>   1
Atom  23C    basis set group =>   1
Atom  24C    basis set group =>   1
Atom  25C    basis set group =>   1
Atom  26C    basis set group =>   1
Atom  27C    basis set group =>   1
Atom  28C    basis set group =>   1
Atom  29O    basis set group =>   4
Atom  30C    basis set group =>   1
Atom  31C    basis set group =>   1
Atom  32C    basis set group =>   1
Atom  33O    basis set group =>   4
Atom  34C    basis set group =>   1
Atom  35F    basis set group =>   5
Atom  36F    basis set group =>   5
Atom  37F    basis set group =>   5
Atom  38S    basis set group =>   2
Atom  39C    basis set group =>   1
Atom  40C    basis set group =>   1
Atom  41C    basis set group =>   1
Atom  42C    basis set group =>   1
Atom  43C    basis set group =>   1
Atom  44C    basis set group =>   1
Atom  45C    basis set group =>   1
Atom  46C    basis set group =>   1
Atom  47C    basis set group =>   1
Atom  48N    basis set group =>   3
Atom  49C    basis set group =>   1
Atom  50N    basis set group =>   3
Atom  51C    basis set group =>   1
Atom  52C    basis set group =>   1
Atom  53C    basis set group =>   1
Atom  54O    basis set group =>   4
Atom  55C    basis set group =>   1
Atom  56C    basis set group =>   1
Atom  57C    basis set group =>   1
Atom  58C    basis set group =>   1
Atom  59S    basis set group =>   2
Atom  60C    basis set group =>   1
Atom  61C    basis set group =>   1
Atom  62Br   basis set group =>   6
Atom  63H    basis set group =>   7
Atom  64H    basis set group =>   7
Atom  65H    basis set group =>   7
Atom  66H    basis set group =>   7
Atom  67H    basis set group =>   7
Atom  68H    basis set group =>   7
Atom  69H    basis set group =>   7
Atom  70H    basis set group =>   7
Atom  71H    basis set group =>   7
Atom  72H    basis set group =>   7
Atom  73H    basis set group =>   7
Atom  74H    basis set group =>   7
Atom  75H    basis set group =>   7
Atom  76H    basis set group =>   7
Atom  77H    basis set group =>   7
Atom  78H    basis set group =>   7
Atom  79H    basis set group =>   7
Atom  80H    basis set group =>   7
Atom  81H    basis set group =>   7
Atom  82H    basis set group =>   7
Atom  83H    basis set group =>   7
Atom  84H    basis set group =>   7


           ************************************************************
           *        Program running with 6 parallel MPI-processes     *
           *              working on a common directory               *
           ************************************************************
------------------------------------------------------------------------------
                           ORCA GTO INTEGRAL CALCULATION
                           -- RI-GTO INTEGRALS CHOSEN --
------------------------------------------------------------------------------

                         BASIS SET STATISTICS AND STARTUP INFO

Gaussian basis set:
 # of primitive gaussian shells          ...  914
 # of primitive gaussian functions       ... 1776
 # of contracted shells                  ...  460
 # of contracted basis functions         ... 1030
 Highest angular momentum                ...    2
 Maximum contraction depth               ...    6
Auxiliary gaussian basis set:
 # of primitive gaussian shells          ... 1712
 # of primitive gaussian functions       ... 4816
 # of contracted shells                  ... 1068
 # of contracted aux-basis functions     ... 3348
 Highest angular momentum                ...    4
 Maximum contraction depth               ...   12
Ratio of auxiliary to basis functions    ...  3.25
Integral package used                  ... LIBINT
 One Electron integrals                  ... done
 Ordering auxiliary basis shells         ... done
 Integral threshhold             Thresh  ...  2.500e-11
 Primitive cut-off               TCut    ...  2.500e-12
 Pre-screening matrix                    ... done
 Shell pair data                         ... 
 Ordering of the shell pairs             ... done (   0.007 sec) 36988 of 106030 pairs
 Determination of significant pairs      ... done (   0.000 sec)
 Creation of shell pair data             ... done (   0.005 sec)
 Storage of shell pair data              ... done (   0.029 sec)
 Shell pair data done in (   0.041 sec)
 Computing two index integrals           ... done
 Cholesky decomposition of the V-matrix  ... done


Timings:
 Total evaluation time                   ...   1.790 sec (  0.030 min)
 One electron matrix time                ...   0.412 sec (  0.007 min) = 23.0%
 Schwartz matrix evaluation time         ...   0.597 sec (  0.010 min) = 33.3%
 Two index repulsion integral time       ...   0.255 sec (  0.004 min) = 14.3%
 Cholesky decomposition of V             ...   0.469 sec (  0.008 min) = 26.2%
 Three index repulsion integral time     ...   0.000 sec (  0.000 min) =  0.0%



           ************************************************************
           *        Program running with 6 parallel MPI-processes     *
           *              working on a common directory               *
           ************************************************************
-------------------------------------------------------------------------------
                                 ORCA SCF
-------------------------------------------------------------------------------

------------
SCF SETTINGS
------------
Hamiltonian:
 Density Functional     Method          .... DFT(GTOs)
 Exchange Functional    Exchange        .... WB88
 Correlation Functional Correlation     .... LYP
 LDA part of GGA corr.  LDAOpt          .... VWN-5
 Gradients option       PostSCFGGA      .... off
 Hybrid DFT is turned on
   Fraction HF Exchange ScalHFX         ....  0.190000
   Scaling of DF-GGA-X  ScalDFX         ....  0.350000
   Scaling of DF-GGA-C  ScalDFC         ....  0.810000
   Scaling of DF-LDA-C  ScalLDAC        ....  1.000000
   Perturbative correction              ....  0.000000
   Density functional embedding theory  .... OFF
 Long-range corrected/Screened/Range-Separated Hybrid DFT is turned on
   Amount of maximum screened exact exchange              ....  0.460000
   Range separation parameter mu (erf(mu*r12)/r12)        ....  0.330000
 RI-approximation to the Coulomb term is turned on
   Number of auxiliary basis functions  .... 3348
   RIJ-COSX (HFX calculated with COS-X)).... on


General Settings:
 Integral files         IntName         .... xtbopt
 Hartree-Fock type      HFTyp           .... RHF
 Total Charge           Charge          ....    0
 Multiplicity           Mult            ....    1
 Number of Electrons    NEL             ....  498
 Basis Dimension        Dim             .... 1030
 Nuclear Repulsion      ENuc            ....   9824.2722237950 Eh

Convergence Acceleration:
 DIIS                   CNVDIIS         .... on
   Start iteration      DIISMaxIt       ....    12
   Startup error        DIISStart       ....  0.200000
   # of expansion vecs  DIISMaxEq       ....     5
   Bias factor          DIISBfac        ....   1.050
   Max. coefficient     DIISMaxC        ....  10.000
 Newton-Raphson         CNVNR           .... off
 SOSCF                  CNVSOSCF        .... on
   Start iteration      SOSCFMaxIt      ....   150
   Startup grad/error   SOSCFStart      ....  0.003300
 Level Shifting         CNVShift        .... on
   Level shift para.    LevelShift      ....    0.2500
   Turn off err/grad.   ShiftErr        ....    0.0010
 Zerner damping         CNVZerner       .... off
 Static damping         CNVDamp         .... on
   Fraction old density DampFac         ....    0.7000
   Max. Damping (<1)    DampMax         ....    0.9800
   Min. Damping (>=0)   DampMin         ....    0.0000
   Turn off err/grad.   DampErr         ....    0.1000
 Fernandez-Rico         CNVRico         .... off

SCF Procedure:
 Maximum # iterations   MaxIter         ....   125
 SCF integral mode      SCFMode         .... Direct
   Integral package                     .... LIBINT
 Reset frequency        DirectResetFreq ....    20
 Integral Threshold     Thresh          ....  2.500e-11 Eh
 Primitive CutOff       TCut            ....  2.500e-12 Eh

Convergence Tolerance:
 Convergence Check Mode ConvCheckMode   .... Total+1el-Energy
 Convergence forced     ConvForced      .... 1
 Energy Change          TolE            ....  1.000e-08 Eh
 1-El. energy change                    ....  1.000e-05 Eh
 Orbital Gradient       TolG            ....  1.000e-05
 Orbital Rotation angle TolX            ....  1.000e-05
 DIIS Error             TolErr          ....  5.000e-07


Diagonalization of the overlap matrix:
Smallest eigenvalue                        ... 1.849e-04
Time for diagonalization                   ...    0.162 sec
Threshold for overlap eigenvalues          ... 1.000e-08
Number of eigenvalues below threshold      ... 0
Time for construction of square roots      ...    0.119 sec
Total time needed                          ...    0.283 sec

-------------------
DFT GRID GENERATION
-------------------

General Integration Accuracy     IntAcc      ...  4.670
Radial Grid Type                 RadialGrid  ... Gauss-Chebyshev
Angular Grid (max. acc.)         AngularGrid ... Lebedev-302
Angular grid pruning method      GridPruning ... 3 (G Style)
Weight generation scheme         WeightScheme... Becke
Basis function cutoff            BFCut       ...    1.0000e-11
Integration weight cutoff        WCut        ...    1.0000e-14
Grids for H and He will be reduced by one unit

# of grid points (after initial pruning)     ... 472778 (   0.0 sec)
# of grid points (after weights+screening)   ... 408153 (   4.0 sec)
nearest neighbour list constructed           ...    0.0 sec
Grid point re-assignment to atoms done       ...    0.1 sec
Grid point division into batches done        ...    1.5 sec
Reduced shell lists constructed in    2.2 sec

Total number of grid points                  ...   408153
Total number of batches                      ...     6421
Average number of points per batch           ...       63
Average number of grid points per atom       ...     4802
Average number of shells per batch           ...    79.44 (17.27%)
Average number of basis functions per batch  ...   167.93 (16.30%)
Average number of large shells per batch     ...    52.47 (66.05%)
Average number of large basis fcns per batch ...   113.31 (67.47%)
Maximum spatial batch extension              ...  17.46, 18.86, 13.63 au
Average spatial batch extension              ...   0.31,  0.33,  0.29 au

Time for grid setup =    6.718 sec

------------------------------
INITIAL GUESS: MODEL POTENTIAL
------------------------------
Loading Hartree-Fock densities                     ... done
Calculating cut-offs                               ... done
Setting up the integral package                    ... done
Initializing the effective Hamiltonian             ... done
Starting the Coulomb interaction                   ... done (   0.9 sec)
Reading the grid                                   ... done
Mapping shells                                     ... done
Starting the XC term evaluation                    ... done (   1.2 sec)
  promolecular density results
     # of electrons  =    497.988561833
     EX              =   -541.513449406
     EC              =    -17.901111678
     EX+EC           =   -559.414561084
Transforming the Hamiltonian                       ... done (   0.1 sec)
Diagonalizing the Hamiltonian                      ... done (   0.1 sec)
Back transforming the eigenvectors                 ... done (   0.0 sec)
Now organizing SCF variables                       ... done
                      ------------------
                      INITIAL GUESS DONE (   9.2 sec)
                      ------------------
--------------------
COSX GRID GENERATION
--------------------

General Integration Accuracy     IntAcc      ...  3.340
Radial Grid Type                 RadialGrid  ... Gauss-Chebyshev
Angular Grid (max. acc.)         AngularGrid ... Lebedev-50
Angular grid pruning method      GridPruning ... 3 (G Style)
Weight generation scheme         WeightScheme... Becke
Basis function cutoff            BFCut       ...    1.0000e-11
Integration weight cutoff        WCut        ...    1.0000e-14
Grids for H and He will be reduced by one unit

# of grid points (after initial pruning)     ...  44616 (   0.0 sec)
# of grid points (after weights+screening)   ...  40237 (   0.4 sec)
nearest neighbour list constructed           ...    0.0 sec
Grid point re-assignment to atoms done       ...    0.0 sec
Grid point division into batches done        ...    0.0 sec
Reduced shell lists constructed in    0.1 sec

Total number of grid points                  ...    40237
Total number of batches                      ...      673
Average number of points per batch           ...       59
Average number of grid points per atom       ...      473
Average number of shells per batch           ...    90.37 (19.65%)
Average number of basis functions per batch  ...   192.47 (18.69%)
Average number of large shells per batch     ...    59.95 (66.34%)
Average number of large basis fcns per batch ...   130.95 (68.03%)
Maximum spatial batch extension              ...  21.35, 24.98, 12.07 au
Average spatial batch extension              ...   0.70,  0.82,  0.55 au

Overlap Fitting                  UseSFitting ... on
Constructing numerical overlap ... done (      0.1 sec)
Inverting numerical overlap    ... done (      0.0 sec)
Obtaining analytic overlap     ... done (      0.0 sec)
Final contraction and storage  ... done (      0.0 sec)


General Integration Accuracy     IntAcc      ...  3.670
Radial Grid Type                 RadialGrid  ... Gauss-Chebyshev
Angular Grid (max. acc.)         AngularGrid ... Lebedev-50
Angular grid pruning method      GridPruning ... 3 (G Style)
Weight generation scheme         WeightScheme... Becke
Basis function cutoff            BFCut       ...    1.0000e-11
Integration weight cutoff        WCut        ...    1.0000e-14
Grids for H and He will be reduced by one unit

# of grid points (after initial pruning)     ...  55462 (   0.0 sec)
# of grid points (after weights+screening)   ...  49806 (   0.5 sec)
nearest neighbour list constructed           ...    0.0 sec
Grid point re-assignment to atoms done       ...    0.0 sec
Grid point division into batches done        ...    0.0 sec
Reduced shell lists constructed in    0.1 sec

Total number of grid points                  ...    49806
Total number of batches                      ...      818
Average number of points per batch           ...       60
Average number of grid points per atom       ...      586
Average number of shells per batch           ...    89.89 (19.54%)
Average number of basis functions per batch  ...   191.08 (18.55%)
Average number of large shells per batch     ...    59.66 (66.37%)
Average number of large basis fcns per batch ...   130.83 (68.47%)
Maximum spatial batch extension              ...  16.89, 15.25,  9.87 au
Average spatial batch extension              ...   0.66,  0.76,  0.53 au

Overlap Fitting                  UseSFitting ... on
Constructing numerical overlap ... done (      0.1 sec)
Inverting numerical overlap    ... done (      0.0 sec)
Obtaining analytic overlap     ... done (      0.0 sec)
Final contraction and storage  ... done (      0.0 sec)


General Integration Accuracy     IntAcc      ...  4.010
Radial Grid Type                 RadialGrid  ... Gauss-Chebyshev
Angular Grid (max. acc.)         AngularGrid ... Lebedev-110
Angular grid pruning method      GridPruning ... 3 (G Style)
Weight generation scheme         WeightScheme... Becke
Basis function cutoff            BFCut       ...    1.0000e-11
Integration weight cutoff        WCut        ...    1.0000e-14
Grids for H and He will be reduced by one unit

# of grid points (after initial pruning)     ... 108910 (   0.0 sec)
# of grid points (after weights+screening)   ...  96757 (   0.9 sec)
nearest neighbour list constructed           ...    0.0 sec
Grid point re-assignment to atoms done       ...    0.0 sec
Grid point division into batches done        ...    0.1 sec
Reduced shell lists constructed in    0.3 sec

Total number of grid points                  ...    96757
Total number of batches                      ...     1553
Average number of points per batch           ...       62
Average number of grid points per atom       ...     1138
Average number of shells per batch           ...    86.34 (18.77%)
Average number of basis functions per batch  ...   183.23 (17.79%)
Average number of large shells per batch     ...    57.76 (66.90%)
Average number of large basis fcns per batch ...   125.93 (68.73%)
Maximum spatial batch extension              ...  18.30, 22.88, 14.68 au
Average spatial batch extension              ...   0.54,  0.62,  0.47 au

Overlap Fitting                  UseSFitting ... on
Constructing numerical overlap ... done (      0.1 sec)
Inverting numerical overlap    ... done (      0.0 sec)
Obtaining analytic overlap     ... done (      0.0 sec)
Final contraction and storage  ... done (      0.0 sec)

Time for X-Grid setup             =    3.221 sec
--------------
SCF ITERATIONS
--------------
ITER       Energy         Delta-E        Max-DP      RMS-DP      [F,P]     Damp
               ***  Starting incremental Fock matrix formation  ***
  0  -7108.3148036652   0.000000000000 0.11081550  0.00102670  0.2350104 0.7000
  1  -7108.8484661337  -0.533662468504 0.07131530  0.00072530  0.0999080 0.7000
                               ***Turning on DIIS***
  2  -7109.0816696955  -0.233203561798 0.10604893  0.00131846  0.0384392 0.0000
  3  -7109.4517592804  -0.370089584858 0.06945556  0.00055131  0.0582185 0.0000
  4  -7109.5283173533  -0.076558072980 0.01678636  0.00017105  0.0221993 0.0000
  5  -7109.5334749396  -0.005157586224 0.00907412  0.00007647  0.0125481 0.0000
                      *** Initiating the SOSCF procedure ***
                           *** Shutting down DIIS ***
                      *** Re-Reading the Fockian *** 
                      *** Removing any level shift *** 
ITER      Energy       Delta-E        Grad      Rot      Max-DP    RMS-DP
  6  -7109.53475963  -0.0012846885  0.002717  0.002717  0.004040  0.000041
               *** Restarting incremental Fock matrix formation ***
  7  -7109.53518785  -0.0004282251  0.001904  0.008270  0.004051  0.000040
  8  -7109.53545477  -0.0002669171  0.000955  0.008544  0.003332  0.000049
  9  -7109.53546101  -0.0000062418  0.001771  0.002887  0.002015  0.000019
 10  -7109.53553501  -0.0000739950  0.000342  0.000692  0.000754  0.000007
 11  -7109.53553301   0.0000019938  0.000321  0.000435  0.000392  0.000004
 12  -7109.53553786  -0.0000048456  0.000035  0.000132  0.000132  0.000002
 13  -7109.53553777   0.0000000925  0.000032  0.000075  0.000070  0.000001
 14  -7109.53553797  -0.0000001999  0.000005  0.000021  0.000037  0.000000
 15  -7109.53553798  -0.0000000089  0.000005  0.000009  0.000026  0.000000
                  ***Gradient check signals convergence***
              ***Rediagonalizing the Fockian in SOSCF/NRSCF***

               *****************************************************
               *                     SUCCESS                       *
               *           SCF CONVERGED AFTER  16 CYCLES          *
               *****************************************************

Setting up the final grid:

General Integration Accuracy     IntAcc      ...  5.010
Radial Grid Type                 RadialGrid  ... Gauss-Chebyshev
Angular Grid (max. acc.)         AngularGrid ... Lebedev-434
Angular grid pruning method      GridPruning ... 3 (G Style)
Weight generation scheme         WeightScheme... Becke
Basis function cutoff            BFCut       ...    1.0000e-11
Integration weight cutoff        WCut        ...    1.0000e-14
Grids for H and He will be reduced by one unit

# of grid points (after initial pruning)     ... 832044 (   0.0 sec)
# of grid points (after weights+screening)   ... 716025 (   6.9 sec)
nearest neighbour list constructed           ...    0.0 sec
Grid point re-assignment to atoms done       ...    0.1 sec
Grid point division into batches done        ...    4.7 sec
Reduced shell lists constructed in    5.8 sec

Total number of grid points                  ...   716025
Total number of batches                      ...    11229
Average number of points per batch           ...       63
Average number of grid points per atom       ...     8424
Average number of shells per batch           ...    77.64 (16.88%)
Average number of basis functions per batch  ...   163.92 (15.91%)
Average number of large shells per batch     ...    51.12 (65.85%)
Average number of large basis fcns per batch ...   110.13 (67.18%)
Maximum spatial batch extension              ...  16.12, 19.18, 14.60 au
Average spatial batch extension              ...   0.25,  0.26,  0.24 au

Final grid set up in   13.7 sec
Final integration                            ... done (   2.6 sec)
Change in XC energy                          ...    -0.000166417
Integrated number of electrons               ...   498.000004201
Previous integrated no of electrons          ...   497.999725157
Old exchange energy                            =   -143.329762700 Eh
New exchange energy                            =   -143.326757771 Eh
Exchange energy change after final integration =      0.003004929 Eh
Total energy after final integration           =  -7109.532699440 Eh
Final COS-X integration done in                =    45.816 sec

----------------
TOTAL SCF ENERGY
----------------

Total Energy       :        -7109.53269944 Eh         -193460.22008 eV

Components:
Nuclear Repulsion  :         9824.27222380 Eh          267332.03811 eV
Electronic Energy  :       -16933.80492323 Eh         -460792.25819 eV
One Electron Energy:       -29375.11543258 Eh         -799337.52846 eV
Two Electron Energy:        12441.31050934 Eh          338545.27027 eV

Virial components:
Potential Energy   :       -14189.03695691 Eh         -386103.32471 eV
Kinetic Energy     :         7079.50425747 Eh          192643.10463 eV
Virial Ratio       :            2.00424160


DFT components:
N(Alpha)           :      249.000002100370 electrons
N(Beta)            :      249.000002100370 electrons
N(Total)           :      498.000004200740 electrons
E(XC)              :     -423.471745555130 Eh       
DFET-embed. en.    :        0.000000000000 Eh       

---------------
SCF CONVERGENCE
---------------

  Last Energy change         ...    2.3547e-08  Tolerance :   1.0000e-08
  Last MAX-Density change    ...    7.5495e-15  Tolerance :   1.0000e-07
  Last RMS-Density change    ...    3.9599e-17  Tolerance :   5.0000e-09
  Last Orbital Gradient      ...    1.1473e-06  Tolerance :   1.0000e-05
  Last Orbital Rotation      ...    4.6396e-06  Tolerance :   1.0000e-05

             **** THE GBW FILE WAS UPDATED (xtbopt.gbw) ****
             **** DENSITY FILE WAS UPDATED (xtbopt.scfp) ****
             **** ENERGY FILE WAS UPDATED (xtbopt.en.tmp) ****
             **** THE GBW FILE WAS UPDATED (xtbopt.gbw) ****
             **** DENSITY FILE WAS UPDATED (xtbopt.scfp) ****
----------------
ORBITAL ENERGIES
----------------

  NO   OCC          E(Eh)            E(eV) 
   0   2.0000    -482.888261    -13140.0576 
   1   2.0000     -88.989599     -2421.5301 
   2   2.0000     -88.978641     -2421.2319 
   3   2.0000     -88.970413     -2421.0080 
   4   2.0000     -88.929094     -2419.8837 
   5   2.0000     -88.924949     -2419.7709 
   6   2.0000     -62.565966     -1702.5065 
   7   2.0000     -56.399919     -1534.7198 
   8   2.0000     -56.397195     -1534.6457 
   9   2.0000     -56.397166     -1534.6449 
  10   2.0000     -24.806171      -675.0102 
  11   2.0000     -24.805898      -675.0028 
  12   2.0000     -24.799619      -674.8319 
  13   2.0000     -19.262661      -524.1637 
  14   2.0000     -19.237698      -523.4844 
  15   2.0000     -19.221768      -523.0509 
  16   2.0000     -14.420065      -392.3899 
  17   2.0000     -14.417706      -392.3257 
  18   2.0000     -14.394146      -391.6846 
  19   2.0000     -14.389788      -391.5660 
  20   2.0000     -10.519450      -286.2488 
  21   2.0000     -10.393746      -282.8282 
  22   2.0000     -10.372175      -282.2412 
  23   2.0000     -10.362187      -281.9694 
  24   2.0000     -10.350671      -281.6561 
  25   2.0000     -10.345377      -281.5120 
  26   2.0000     -10.344706      -281.4938 
  27   2.0000     -10.330709      -281.1129 
  28   2.0000     -10.328882      -281.0632 
  29   2.0000     -10.324512      -280.9443 
  30   2.0000     -10.323046      -280.9044 
  31   2.0000     -10.322981      -280.9026 
  32   2.0000     -10.322223      -280.8820 
  33   2.0000     -10.320667      -280.8396 
  34   2.0000     -10.318401      -280.7780 
  35   2.0000     -10.315433      -280.6972 
  36   2.0000     -10.311604      -280.5930 
  37   2.0000     -10.311075      -280.5786 
  38   2.0000     -10.310345      -280.5588 
  39   2.0000     -10.309219      -280.5281 
  40   2.0000     -10.308788      -280.5164 
  41   2.0000     -10.308591      -280.5110 
  42   2.0000     -10.304454      -280.3984 
  43   2.0000     -10.303219      -280.3648 
  44   2.0000     -10.302826      -280.3541 
  45   2.0000     -10.301265      -280.3117 
  46   2.0000     -10.300586      -280.2932 
  47   2.0000     -10.299608      -280.2666 
  48   2.0000     -10.299295      -280.2581 
  49   2.0000     -10.295660      -280.1592 
  50   2.0000     -10.294527      -280.1283 
  51   2.0000     -10.292685      -280.0782 
  52   2.0000     -10.289530      -279.9923 
  53   2.0000     -10.289214      -279.9838 
  54   2.0000     -10.288618      -279.9675 
  55   2.0000     -10.287750      -279.9439 
  56   2.0000     -10.286019      -279.8968 
  57   2.0000     -10.282220      -279.7934 
  58   2.0000     -10.281658      -279.7781 
  59   2.0000     -10.278750      -279.6990 
  60   2.0000     -10.276206      -279.6298 
  61   2.0000     -10.273884      -279.5666 
  62   2.0000     -10.270197      -279.4663 
  63   2.0000     -10.269352      -279.4433 
  64   2.0000     -10.268257      -279.4135 
  65   2.0000     -10.264001      -279.2977 
  66   2.0000     -10.251652      -278.9616 
  67   2.0000      -8.795400      -239.3350 
  68   2.0000      -8.084335      -219.9859 
  69   2.0000      -8.074586      -219.7207 
  70   2.0000      -8.065776      -219.4809 
  71   2.0000      -8.025758      -218.3920 
  72   2.0000      -8.018267      -218.1881 
  73   2.0000      -6.631699      -180.4577 
  74   2.0000      -6.617137      -180.0615 
  75   2.0000      -6.616925      -180.0557 
  76   2.0000      -6.053473      -164.7234 
  77   2.0000      -6.048964      -164.6007 
  78   2.0000      -6.047133      -164.5508 
  79   2.0000      -6.044274      -164.4731 
  80   2.0000      -6.040002      -164.3568 
  81   2.0000      -6.035822      -164.2431 
  82   2.0000      -6.034589      -164.2095 
  83   2.0000      -6.030323      -164.0934 
  84   2.0000      -6.029031      -164.0583 
  85   2.0000      -5.995578      -163.1480 
  86   2.0000      -5.991626      -163.0404 
  87   2.0000      -5.988488      -162.9550 
  88   2.0000      -5.986333      -162.8964 
  89   2.0000      -5.983697      -162.8247 
  90   2.0000      -5.979208      -162.7025 
  91   2.0000      -2.747601       -74.7660 
  92   2.0000      -2.743469       -74.6536 
  93   2.0000      -2.743321       -74.6495 
  94   2.0000      -2.731738       -74.3344 
  95   2.0000      -2.731731       -74.3342 
  96   2.0000      -1.394971       -37.9591 
  97   2.0000      -1.298234       -35.3267 
  98   2.0000      -1.295072       -35.2407 
  99   2.0000      -1.158508       -31.5246 
 100   2.0000      -1.155758       -31.4498 
 101   2.0000      -1.136173       -30.9168 
 102   2.0000      -1.067456       -29.0469 
 103   2.0000      -1.026086       -27.9212 
 104   2.0000      -1.017561       -27.6893 
 105   2.0000      -1.016736       -27.6668 
 106   2.0000      -0.998725       -27.1767 
 107   2.0000      -0.997545       -27.1446 
 108   2.0000      -0.992675       -27.0121 
 109   2.0000      -0.979446       -26.6521 
 110   2.0000      -0.969029       -26.3686 
 111   2.0000      -0.954441       -25.9716 
 112   2.0000      -0.948004       -25.7965 
 113   2.0000      -0.940947       -25.6045 
 114   2.0000      -0.929174       -25.2841 
 115   2.0000      -0.911543       -24.8044 
 116   2.0000      -0.907244       -24.6874 
 117   2.0000      -0.895875       -24.3780 
 118   2.0000      -0.892029       -24.2733 
 119   2.0000      -0.889126       -24.1943 
 120   2.0000      -0.877161       -23.8688 
 121   2.0000      -0.869970       -23.6731 
 122   2.0000      -0.862305       -23.4645 
 123   2.0000      -0.845836       -23.0164 
 124   2.0000      -0.838283       -22.8108 
 125   2.0000      -0.834951       -22.7202 
 126   2.0000      -0.833057       -22.6686 
 127   2.0000      -0.830306       -22.5938 
 128   2.0000      -0.821796       -22.3622 
 129   2.0000      -0.810590       -22.0573 
 130   2.0000      -0.804601       -21.8943 
 131   2.0000      -0.792318       -21.5601 
 132   2.0000      -0.777187       -21.1483 
 133   2.0000      -0.774730       -21.0815 
 134   2.0000      -0.761956       -20.7339 
 135   2.0000      -0.747295       -20.3349 
 136   2.0000      -0.738856       -20.1053 
 137   2.0000      -0.729902       -19.8616 
 138   2.0000      -0.726019       -19.7560 
 139   2.0000      -0.722044       -19.6478 
 140   2.0000      -0.702935       -19.1278 
 141   2.0000      -0.698018       -18.9940 
 142   2.0000      -0.695516       -18.9259 
 143   2.0000      -0.693269       -18.8648 
 144   2.0000      -0.687768       -18.7151 
 145   2.0000      -0.683281       -18.5930 
 146   2.0000      -0.678624       -18.4663 
 147   2.0000      -0.672641       -18.3035 
 148   2.0000      -0.669391       -18.2151 
 149   2.0000      -0.667244       -18.1566 
 150   2.0000      -0.659678       -17.9508 
 151   2.0000      -0.649923       -17.6853 
 152   2.0000      -0.641498       -17.4561 
 153   2.0000      -0.631774       -17.1914 
 154   2.0000      -0.627185       -17.0666 
 155   2.0000      -0.623788       -16.9741 
 156   2.0000      -0.617723       -16.8091 
 157   2.0000      -0.612323       -16.6622 
 158   2.0000      -0.608743       -16.5648 
 159   2.0000      -0.599977       -16.3262 
 160   2.0000      -0.594565       -16.1789 
 161   2.0000      -0.589784       -16.0488 
 162   2.0000      -0.588473       -16.0132 
 163   2.0000      -0.585558       -15.9339 
 164   2.0000      -0.578616       -15.7449 
 165   2.0000      -0.567048       -15.4302 
 166   2.0000      -0.565529       -15.3888 
 167   2.0000      -0.559368       -15.2212 
 168   2.0000      -0.556471       -15.1423 
 169   2.0000      -0.553855       -15.0712 
 170   2.0000      -0.550574       -14.9819 
 171   2.0000      -0.544963       -14.8292 
 172   2.0000      -0.543786       -14.7972 
 173   2.0000      -0.543234       -14.7822 
 174   2.0000      -0.540524       -14.7084 
 175   2.0000      -0.534663       -14.5489 
 176   2.0000      -0.531409       -14.4604 
 177   2.0000      -0.528783       -14.3889 
 178   2.0000      -0.528005       -14.3678 
 179   2.0000      -0.523938       -14.2571 
 180   2.0000      -0.520902       -14.1745 
 181   2.0000      -0.517984       -14.0951 
 182   2.0000      -0.514723       -14.0063 
 183   2.0000      -0.512492       -13.9456 
 184   2.0000      -0.512110       -13.9352 
 185   2.0000      -0.510671       -13.8961 
 186   2.0000      -0.509654       -13.8684 
 187   2.0000      -0.504159       -13.7189 
 188   2.0000      -0.503947       -13.7131 
 189   2.0000      -0.502685       -13.6788 
 190   2.0000      -0.498014       -13.5517 
 191   2.0000      -0.496033       -13.4977 
 192   2.0000      -0.494529       -13.4568 
 193   2.0000      -0.492562       -13.4033 
 194   2.0000      -0.490310       -13.3420 
 195   2.0000      -0.486369       -13.2348 
 196   2.0000      -0.483194       -13.1484 
 197   2.0000      -0.480532       -13.0759 
 198   2.0000      -0.479531       -13.0487 
 199   2.0000      -0.477667       -12.9980 
 200   2.0000      -0.474790       -12.9197 
 201   2.0000      -0.472928       -12.8690 
 202   2.0000      -0.472532       -12.8583 
 203   2.0000      -0.469597       -12.7784 
 204   2.0000      -0.465463       -12.6659 
 205   2.0000      -0.461224       -12.5505 
 206   2.0000      -0.454954       -12.3799 
 207   2.0000      -0.452809       -12.3216 
 208   2.0000      -0.451710       -12.2917 
 209   2.0000      -0.451208       -12.2780 
 210   2.0000      -0.448151       -12.1948 
 211   2.0000      -0.446755       -12.1568 
 212   2.0000      -0.443244       -12.0613 
 213   2.0000      -0.441985       -12.0270 
 214   2.0000      -0.440259       -11.9801 
 215   2.0000      -0.437884       -11.9154 
 216   2.0000      -0.435213       -11.8428 
 217   2.0000      -0.429886       -11.6978 
 218   2.0000      -0.426954       -11.6180 
 219   2.0000      -0.420716       -11.4483 
 220   2.0000      -0.417993       -11.3742 
 221   2.0000      -0.415967       -11.3190 
 222   2.0000      -0.413774       -11.2594 
 223   2.0000      -0.411139       -11.1877 
 224   2.0000      -0.409053       -11.1309 
 225   2.0000      -0.406836       -11.0706 
 226   2.0000      -0.398002       -10.8302 
 227   2.0000      -0.390590       -10.6285 
 228   2.0000      -0.383300       -10.4301 
 229   2.0000      -0.377457       -10.2711 
 230   2.0000      -0.375553       -10.2193 
 231   2.0000      -0.369166       -10.0455 
 232   2.0000      -0.363134        -9.8814 
 233   2.0000      -0.351415        -9.5625 
 234   2.0000      -0.350059        -9.5256 
 235   2.0000      -0.345061        -9.3896 
 236   2.0000      -0.341489        -9.2924 
 237   2.0000      -0.339988        -9.2515 
 238   2.0000      -0.327248        -8.9049 
 239   2.0000      -0.323462        -8.8018 
 240   2.0000      -0.318873        -8.6770 
 241   2.0000      -0.315422        -8.5831 
 242   2.0000      -0.302472        -8.2307 
 243   2.0000      -0.298177        -8.1138 
 244   2.0000      -0.296833        -8.0772 
 245   2.0000      -0.291683        -7.9371 
 246   2.0000      -0.287365        -7.8196 
 247   2.0000      -0.246155        -6.6982 
 248   2.0000      -0.217513        -5.9188 
 249   0.0000      -0.097617        -2.6563 
 250   0.0000      -0.066101        -1.7987 
 251   0.0000      -0.061752        -1.6804 
 252   0.0000      -0.059790        -1.6270 
 253   0.0000      -0.049883        -1.3574 
 254   0.0000      -0.018678        -0.5083 
 255   0.0000       0.000548         0.0149 
 256   0.0000       0.010842         0.2950 
 257   0.0000       0.013172         0.3584 
 258   0.0000       0.034316         0.9338 
 259   0.0000       0.036148         0.9836 
 260   0.0000       0.037209         1.0125 
 261   0.0000       0.046589         1.2677 
 262   0.0000       0.048628         1.3232 
 263   0.0000       0.053120         1.4455 
 264   0.0000       0.063863         1.7378 
 265   0.0000       0.064832         1.7642 
 266   0.0000       0.071106         1.9349 
 267   0.0000       0.075780         2.0621 
 268   0.0000       0.078298         2.1306 
 269   0.0000       0.080096         2.1795 
 270   0.0000       0.084064         2.2875 
 271   0.0000       0.093232         2.5370 
 272   0.0000       0.102386         2.7861 
 273   0.0000       0.103229         2.8090 
 274   0.0000       0.106305         2.8927 
 275   0.0000       0.108539         2.9535 
 276   0.0000       0.111189         3.0256 
 277   0.0000       0.114858         3.1255 
 278   0.0000       0.118438         3.2229 
 279   0.0000       0.120566         3.2808 
 280   0.0000       0.125046         3.4027 
 281   0.0000       0.125813         3.4235 
 282   0.0000       0.130217         3.5434 
 283   0.0000       0.131160         3.5690 
 284   0.0000       0.138186         3.7602 
 285   0.0000       0.143396         3.9020 
 286   0.0000       0.145703         3.9648 
 287   0.0000       0.149118         4.0577 
 288   0.0000       0.149835         4.0772 
 289   0.0000       0.152456         4.1485 
 290   0.0000       0.155527         4.2321 
 291   0.0000       0.156651         4.2627 
 292   0.0000       0.161047         4.3823 
 293   0.0000       0.163761         4.4562 
 294   0.0000       0.165970         4.5163 
 295   0.0000       0.167619         4.5611 
 296   0.0000       0.171241         4.6597 
 297   0.0000       0.177942         4.8420 
 298   0.0000       0.185288         5.0419 
 299   0.0000       0.189570         5.1585 
 300   0.0000       0.191387         5.2079 
 301   0.0000       0.198541         5.4026 
 302   0.0000       0.202391         5.5073 
 303   0.0000       0.203830         5.5465 
 304   0.0000       0.205783         5.5996 
 305   0.0000       0.210186         5.7194 
 306   0.0000       0.220466         5.9992 
 307   0.0000       0.221033         6.0146 
 308   0.0000       0.225187         6.1277 
 309   0.0000       0.228841         6.2271 
 310   0.0000       0.231769         6.3068 
 311   0.0000       0.233061         6.3419 
 312   0.0000       0.239880         6.5275 
 313   0.0000       0.247481         6.7343 
 314   0.0000       0.249205         6.7812 
 315   0.0000       0.249887         6.7998 
 316   0.0000       0.256079         6.9683 
 317   0.0000       0.257583         7.0092 
 318   0.0000       0.260433         7.0867 
 319   0.0000       0.263071         7.1585 
 320   0.0000       0.268413         7.3039 
 321   0.0000       0.272802         7.4233 
 322   0.0000       0.278075         7.5668 
 323   0.0000       0.285175         7.7600 
 324   0.0000       0.288525         7.8512 
 325   0.0000       0.294307         8.0085 
 326   0.0000       0.295134         8.0310 
 327   0.0000       0.298414         8.1203 
 328   0.0000       0.302807         8.2398 
 329   0.0000       0.307301         8.3621 
 330   0.0000       0.313278         8.5247 
 331   0.0000       0.315271         8.5790 
 332   0.0000       0.318938         8.6787 
 333   0.0000       0.323199         8.7947 
 334   0.0000       0.326107         8.8738 
 335   0.0000       0.326622         8.8878 
 336   0.0000       0.328988         8.9522 
 337   0.0000       0.332661         9.0522 
 338   0.0000       0.333813         9.0835 
 339   0.0000       0.335581         9.1316 
 340   0.0000       0.341211         9.2848 
 341   0.0000       0.343755         9.3540 
 342   0.0000       0.347503         9.4560 
 343   0.0000       0.351965         9.5775 
 344   0.0000       0.355163         9.6645 
 345   0.0000       0.356973         9.7137 
 346   0.0000       0.360388         9.8066 
 347   0.0000       0.363783         9.8990 
 348   0.0000       0.366132         9.9630 
 349   0.0000       0.368951        10.0397 
 350   0.0000       0.371258        10.1024 
 351   0.0000       0.376018        10.2320 
 352   0.0000       0.381499        10.3811 
 353   0.0000       0.384472        10.4620 
 354   0.0000       0.387869        10.5545 
 355   0.0000       0.392267        10.6741 
 356   0.0000       0.394563        10.7366 
 357   0.0000       0.397359        10.8127 
 358   0.0000       0.399439        10.8693 
 359   0.0000       0.403503        10.9799 
 360   0.0000       0.408103        11.1050 
 361   0.0000       0.410350        11.1662 
 362   0.0000       0.414653        11.2833 
 363   0.0000       0.418384        11.3848 
 364   0.0000       0.421369        11.4660 
 365   0.0000       0.423736        11.5305 
 366   0.0000       0.424535        11.5522 
 367   0.0000       0.429489        11.6870 
 368   0.0000       0.430363        11.7108 
 369   0.0000       0.439369        11.9558 
 370   0.0000       0.439705        11.9650 
 371   0.0000       0.442051        12.0288 
 372   0.0000       0.443860        12.0780 
 373   0.0000       0.446980        12.1629 
 374   0.0000       0.449433        12.2297 
 375   0.0000       0.451235        12.2787 
 376   0.0000       0.455736        12.4012 
 377   0.0000       0.457923        12.4607 
 378   0.0000       0.459643        12.5075 
 379   0.0000       0.461313        12.5530 
 380   0.0000       0.463144        12.6028 
 381   0.0000       0.465550        12.6683 
 382   0.0000       0.471562        12.8318 
 383   0.0000       0.472298        12.8519 
 384   0.0000       0.476614        12.9693 
 385   0.0000       0.477842        13.0027 
 386   0.0000       0.481441        13.1007 
 387   0.0000       0.484229        13.1766 
 388   0.0000       0.485993        13.2245 
 389   0.0000       0.487009        13.2522 
 390   0.0000       0.492154        13.3922 
 391   0.0000       0.494688        13.4611 
 392   0.0000       0.495746        13.4899 
[...]
 
sTD-DFT procedure...
setting up A+B and A-B matrices...  done
estimated time (min):    0.002
calculating (A-B)^0.5 ... done
calculating (A+B)*(A-B)^0.5 ... done
calculating (A-B)^0.5 *(A+B)*(A-B)^0.5 ... done
diagonalizing ...using LAPACKE_ssyevr ...done

   44 roots found, lowest/highest eigenvalue :     2.153     4.986

excitation energies, transition moments and amplitudes

molecular weight:  987.912
state   eV        nm        fL         fV        Rl        RV
   0   2.153     575.9   0.010988   0.012278  -19.591124  -21.628172     0.96 (  83->  84)    0.02 (  83->  85)    0.01 (  82->  84)
   1   2.196     564.5   0.031321   0.034550  -55.410846  -57.717282     0.92 (  82->  84)    0.04 (  82->  85)    0.02 (  83->  84)
   2   2.501     495.7   0.235561   0.262490  -108.151386  -95.013891     0.31 (  82->  86)    0.22 (  82->  85)    0.20 (  83->  87)
   3   2.521     491.9   1.007770   1.132738  -329.088037  -307.146872     0.56 (  83->  87)    0.16 (  82->  86)    0.10 (  83->  86)
   4   2.784     445.4   0.004212   0.003789  -1.107387  -1.324409     0.45 (  83->  85)    0.36 (  83->  86)    0.15 (  83->  87)
   5   2.905     426.7   0.341587   0.365595  -152.341994  -132.296705     0.85 (  83->  88)    0.04 (  83->  90)    0.03 (  82->  88)
   6   3.085     401.9   0.879867   0.900478  341.672092  407.681701     0.83 (  81->  84)    0.04 (  82->  87)    0.04 (  82->  88)
   7   3.116     397.9   0.001035   0.000981  -1.312619  -1.348288     0.49 (  83->  85)    0.46 (  83->  86)    0.03 (  83->  87)
   8   3.180     389.9   0.498493   0.523192  82.447265  77.359196     0.34 (  82->  88)    0.33 (  82->  87)    0.13 (  82->  86)
   9   3.362     368.8   0.168091   0.160960  21.481335  12.976495     0.65 (  78->  84)    0.12 (  82->  85)    0.06 (  82->  86)
  10   3.420     362.5   0.167293   0.158555   3.631540   6.586130     0.48 (  82->  85)    0.25 (  82->  86)    0.19 (  78->  84)
  11   3.561     348.2   0.002502   0.002199   3.198891   3.233414     0.46 (  72->  84)    0.29 (  71->  84)    0.07 (  72->  85)
  12   3.632     341.4   0.011476   0.013337   6.615167   7.336962     0.31 (  82->  88)    0.28 (  79->  87)    0.21 (  82->  87)
  13   3.652     339.5   0.004371   0.004883   4.228971   2.847935     0.45 (  79->  87)    0.19 (  82->  88)    0.14 (  82->  87)
  14   3.663     338.5   0.075539   0.074632  12.796910  10.017093     0.57 (  75->  84)    0.18 (  81->  85)    0.07 (  78->  85)
  15   3.760     329.7   0.005047   0.004474   4.524683   4.852810     0.49 (  77->  84)    0.20 (  80->  84)    0.11 (  76->  84)
  16   3.841     322.8   0.596375   0.548369  60.361818  66.690691     0.33 (  81->  85)    0.20 (  81->  86)    0.13 (  75->  84)
  17   3.895     318.3   0.006006   0.004332   4.273354   4.804602     0.42 (  83->  92)    0.28 (  80->  87)    0.07 (  80->  88)
  18   3.994     310.4   0.033815   0.030512  -10.413864  -7.398558     0.40 (  81->  86)    0.24 (  81->  85)    0.06 (  81->  87)
  19   4.021     308.4   0.000116   0.000112  -0.008796  -0.057360     0.92 (  79->  84)    0.04 (  79->  85)    0.01 (  79->  87)
  20   4.057     305.6   0.002766   0.002507   9.600045   9.844988     0.30 (  72->  85)    0.19 (  71->  85)    0.14 (  72->  86)
  21   4.071     304.5   0.058172   0.053462  -28.680819  -28.304640     0.39 (  83->  92)    0.16 (  77->  87)    0.10 (  76->  87)
  22   4.116     301.2   0.517163   0.471413  27.872937  23.441994     0.48 (  78->  85)    0.24 (  75->  84)    0.18 (  78->  86)
  23   4.127     300.4   0.004241   0.004537  -11.913481  -10.687300     0.75 (  79->  88)    0.11 (  79->  90)    0.05 (  79->  92)
  24   4.150     298.8   0.048657   0.042639   2.823567   1.947390     0.25 (  77->  86)    0.13 (  77->  85)    0.13 (  80->  84)
  25   4.176     296.9   0.020511   0.017249   0.384655  -1.076548     0.51 (  80->  84)    0.13 (  77->  84)    0.06 (  77->  85)
  26   4.222     293.6   0.003989   0.003727  15.336365  15.750218     0.64 (  83->  90)    0.06 (  83->  96)    0.05 (  82->  90)
  27   4.279     289.8   0.058879   0.056927  -36.119008  -34.065487     0.44 (  82->  90)    0.08 (  77->  87)    0.07 (  83->  90)
  28   4.297     288.6   0.015336   0.012267  -1.137322  -1.610100     0.84 (  74->  84)    0.06 (  76->  84)    0.02 (  82->  90)
  29   4.354     284.8   0.001597   0.001506   0.175857   0.127816     0.86 (  83->  89)    0.06 (  83->  90)    0.02 (  80->  84)
  30   4.368     283.9   0.024238   0.021531   7.526177  12.117718     0.38 (  81->  87)    0.36 (  81->  88)    0.05 (  81->  86)
  31   4.476     277.0   0.000120   0.000121   0.108634   0.107921     0.44 (  79->  86)    0.36 (  79->  85)    0.15 (  79->  87)
  32   4.507     275.1   0.087535   0.075348  54.087353  43.268877     0.18 (  82->  90)    0.17 (  77->  87)    0.13 (  80->  87)
  33   4.541     273.0   0.336118   0.286501  -47.528130  -64.567327     0.20 (  76->  87)    0.18 (  77->  88)    0.11 (  73->  87)
  34   4.578     270.8   0.049134   0.041779  16.739316  18.655494     0.62 (  82->  89)    0.12 (  82->  91)    0.06 (  82->  90)
  35   4.658     266.2   0.026000   0.020535   3.862334   4.714652     0.50 (  76->  84)    0.16 (  77->  84)    0.09 (  71->  84)
  36   4.668     265.6   0.012508   0.010490  -9.255802  -7.118585     0.41 (  74->  86)    0.28 (  74->  85)    0.11 (  74->  87)
  37   4.707     263.4   0.064547   0.050061  -15.044458  -11.943509     0.27 (  71->  84)    0.18 (  72->  84)    0.14 (  75->  85)
  38   4.766     260.2   0.158646   0.125803  29.017242  29.393444     0.30 (  75->  85)    0.20 (  69->  84)    0.13 (  71->  84)
  39   4.776     259.6   0.016636   0.013906  -2.044644  -1.399844     0.37 (  80->  85)    0.24 (  80->  86)    0.09 (  80->  87)
  40   4.851     255.6   0.010009   0.009280   9.835798   4.487812     0.36 (  80->  88)    0.07 (  73->  87)    0.07 (  76->  87)
  41   4.896     253.2   0.000034   0.000421  -0.777822  -0.240696     0.98 (  83-> 101)    0.01 (  80-> 101)    0.00 (  83-> 102)
  42   4.942     250.9   0.000854   0.000719  -0.811294  -0.512365     0.30 (  77->  85)    0.23 (  80->  86)    0.19 (  80->  85)
  43   4.986     248.7   0.202141   0.171330  -26.200105  -44.138907     0.31 (  83->  96)    0.17 (  73->  87)    0.09 (  80->  88)

-----------------------------------------------------------------------------
         ABSORPTION SPECTRUM VIA TRANSITION ELECTRIC DIPOLE MOMENTS
-----------------------------------------------------------------------------
State   Energy  Wavelength   fosc         T2         TX        TY        TZ  
        (cm-1)    (nm)                  (au**2)     (au)      (au)      (au) 
-----------------------------------------------------------------------------
   0   17365.2    575.9   0.010988393   0.20832  -0.20972  -0.40494   0.01886
   1   17714.6    564.5   0.031320967   0.58208  -0.13680  -0.62331  -0.41815
   2   20172.8    495.7   0.235561031   3.84427   1.09246   1.33165  -0.93675
   3   20330.8    491.9   1.007769710  16.31854  -1.54585  -2.54948   2.72563
   4   22452.6    445.4   0.004212050   0.06176  -0.11571  -0.16228   0.14845
   5   23433.6    426.7   0.341586688   4.79885  -0.61744  -1.33763   1.62122
   6   24880.5    401.9   0.879867117  11.64214   0.74196  -2.57162  -2.11623
   7   25134.6    397.9   0.001034677   0.01355  -0.00944  -0.11457   0.01835
   8   25650.6    389.9   0.498493209   6.39790   1.30856   2.16453  -0.01969
   9   27115.1    368.8   0.168090622   2.04084   0.31262  -0.19062  -1.38086
  10   27583.3    362.5   0.167293187   1.99668  -0.24977   0.25894   1.36647
  11   28718.3    348.2   0.002502125   0.02868  -0.02940   0.00399   0.16674
  12   29290.7    341.4   0.011475708   0.12898  -0.18680  -0.30622   0.01773
  13   29458.3    339.5   0.004371288   0.04885  -0.19160  -0.10651   0.02823
  14   29546.2    338.5   0.075539366   0.84168  -0.12643   0.52453   0.74200
  15   30330.0    329.7   0.005047449   0.05479  -0.01400  -0.09832   0.21195
  16   30978.8    322.8   0.596374878   6.33768  -0.35018   0.72434   2.38545
  17   31415.9    318.3   0.006006050   0.06294  -0.19463  -0.14627  -0.06052
  18   32212.3    310.4   0.033815442   0.34560  -0.06746  -0.31946   0.48887
  19   32429.2    308.4   0.000116044   0.00118  -0.01437   0.02412   0.01974
  20   32720.6    305.6   0.002765592   0.02783  -0.03964  -0.08652   0.13700
  21   32836.1    304.5   0.058172133   0.58323   0.50957   0.04699   0.56689
  22   33195.3    301.2   0.517162530   5.12892  -0.35437  -0.68095   2.13064
  23   33286.8    300.4   0.004240901   0.04194   0.11479  -0.10398  -0.13399
  24   33468.9    298.8   0.048656986   0.47861   0.18498   0.66650   0.01271
  25   33678.5    296.9   0.020510670   0.20049   0.07226   0.37079   0.24039
  26   34055.5    293.6   0.003989185   0.03856   0.04122  -0.04380  -0.18694
  27   34509.0    289.8   0.058879122   0.56170  -0.53965   0.13085  -0.50334
  28   34654.7    288.6   0.015336096   0.14569  -0.12315  -0.01853  -0.36080
  29   35114.9    284.8   0.001597419   0.01498   0.01578  -0.09088   0.08042
  30   35226.4    283.9   0.024237896   0.22652  -0.29994  -0.25519   0.26727
  31   36102.1    277.0   0.000119898   0.00109   0.02546   0.02096   0.00249
  32   36350.7    275.1   0.087534757   0.79276  -0.61290  -0.44033   0.47246
  33   36624.1    273.0   0.336118323   3.02134   1.49721   0.86127   0.19471
  34   36926.1    270.8   0.049133717   0.43805   0.56402   0.31777  -0.13766
  35   37572.0    266.2   0.025999748   0.22781  -0.06270   0.06165   0.46913
  36   37650.2    265.6   0.012508241   0.10937  -0.16773   0.06830  -0.27672
  37   37965.6    263.4   0.064547024   0.55971  -0.05317  -0.52938   0.52597
  38   38438.5    260.2   0.158646000   1.35875  -0.15947   0.98476   0.60297
  39   38522.3    259.6   0.016635713   0.14217  -0.06630   0.35665  -0.10284
  40   39124.8    255.6   0.010009438   0.08422   0.10053  -0.02812   0.27079
  41   39487.5    253.2   0.000033619   0.00028   0.00299  -0.00909  -0.01374
  42   39860.6    250.9   0.000854341   0.00706  -0.05612   0.06048  -0.01577
  43   40214.8    248.7   0.202140599   1.65479   0.76903   0.01037   1.03115

-----------------------------------------------------------------------------
         ABSORPTION SPECTRUM VIA TRANSITION VELOCITY DIPOLE MOMENTS
-----------------------------------------------------------------------------
State   Energy  Wavelength   fosc         P2         PX        PY        PZ  
        (cm-1)    (nm)                  (au**2)     (au)      (au)      (au) 
-----------------------------------------------------------------------------
   0   17365.2    575.9   0.012278386   0.00146  -0.01689  -0.03412   0.00282
   1   17714.6    564.5   0.034549604   0.00418  -0.01142  -0.05489  -0.03224
   2   20172.8    495.7   0.262489860   0.03619   0.10653   0.12733  -0.09290
   3   20330.8    491.9   1.132738487   0.15740  -0.15413  -0.25071   0.26606
   4   22452.6    445.4   0.003788846   0.00058  -0.01095  -0.01568   0.01469
   5   23433.6    426.7   0.365595435   0.05855  -0.07082  -0.14817   0.17772
   6   24880.5    401.9   0.900478139   0.15312   0.08781  -0.29793  -0.23801
   7   25134.6    397.9   0.000980841   0.00017  -0.00102  -0.01285   0.00156
   8   25650.6    389.9   0.523192411   0.09172   0.15621   0.25942  -0.00423
   9   27115.1    368.8   0.160960480   0.02983   0.03739  -0.01806  -0.16765
  10   27583.3    362.5   0.158554602   0.02989  -0.03203   0.02921   0.16736
  11   28718.3    348.2   0.002199142   0.00043  -0.00330  -0.00022   0.02051
  12   29290.7    341.4   0.013337050   0.00267  -0.02612  -0.04447   0.00310
  13   29458.3    339.5   0.004883163   0.00098  -0.02765  -0.01393   0.00494
  14   29546.2    338.5   0.074632317   0.01507  -0.01803   0.06524   0.10242
  15   30330.0    329.7   0.004474105   0.00093  -0.00303  -0.01294   0.02740
  16   30978.8    322.8   0.548368671   0.11610  -0.04866   0.09818   0.32264
  17   31415.9    318.3   0.004331878   0.00093  -0.02350  -0.01726  -0.00896
  18   32212.3    310.4   0.030512110   0.00672  -0.01023  -0.04579   0.06720
  19   32429.2    308.4   0.000112131   0.00002  -0.00195   0.00331   0.00318
  20   32720.6    305.6   0.002506718   0.00056  -0.00500  -0.01325   0.01897
  21   32836.1    304.5   0.053461510   0.01200   0.07330   0.00698   0.08110
  22   33195.3    301.2   0.471412502   0.10695  -0.05180  -0.10090   0.30674
  23   33286.8    300.4   0.004537255   0.00103   0.01778  -0.01754  -0.02021
  24   33468.9    298.8   0.042639283   0.00975   0.02748   0.09486   0.00090
  25   33678.5    296.9   0.017248913   0.00397   0.01143   0.05195   0.03378
  26   34055.5    293.6   0.003727076   0.00087   0.00799  -0.00509  -0.02789
  27   34509.0    289.8   0.056927190   0.01343  -0.08318   0.01999  -0.07815
  28   34654.7    288.6   0.012267062   0.00291  -0.01780  -0.00261  -0.05081
  29   35114.9    284.8   0.001506376   0.00036   0.00285  -0.01370   0.01287
  30   35226.4    283.9   0.021530825   0.00518  -0.04776  -0.03823   0.03796
  31   36102.1    277.0   0.000120629   0.00003   0.00421   0.00345   0.00038
  32   36350.7    275.1   0.075348058   0.01872  -0.09214  -0.06665   0.07607
  33   36624.1    273.0   0.286500741   0.07171   0.23106   0.13285   0.02596
  34   36926.1    270.8   0.041778864   0.01054   0.08816   0.04863  -0.02018
  35   37572.0    266.2   0.020534937   0.00527  -0.00998   0.01036   0.07118
  36   37650.2    265.6   0.010489805   0.00270  -0.02534   0.01050  -0.04413
  37   37965.6    263.4   0.050060916   0.01299  -0.00932  -0.08031   0.08033
  38   38438.5    260.2   0.125803178   0.03305  -0.02501   0.15452   0.09245
  39   38522.3    259.6   0.013906052   0.00366  -0.00930   0.05741  -0.01670
  40   39124.8    255.6   0.009280449   0.00248   0.02152  -0.00147   0.04490
  41   39487.5    253.2   0.000421483   0.00011   0.00499  -0.00766  -0.00549
  42   39860.6    250.9   0.000718882   0.00020  -0.00854   0.01068  -0.00298
  43   40214.8    248.7   0.171329502   0.04709   0.13278   0.00415   0.17158

-------------------------------------------------------------------
                             CD SPECTRUM
-------------------------------------------------------------------
State   Energy Wavelength       R         MX        MY        MZ   
        (cm-1)   (nm)       (1e40*cgs)   (au)      (au)      (au)  
-------------------------------------------------------------------
   0   17365.2    575.9    -19.59112   0.25588  -0.33551   0.04827
   1   17714.6    564.5    -55.41085  -0.45381  -0.18167  -0.14289
   2   20172.8    495.7    -108.15139  -3.55799   3.14750  -0.16481
   3   20330.8    491.9    -329.08804   7.89405  -5.40254  -0.06404
   4   22452.6    445.4     -1.10739   0.39101  -0.22853   0.08660
   5   23433.6    426.7    -152.34199   5.21083  -3.53431  -0.53291
   6   24880.5    401.9    341.67209  -5.15283   1.21105  -2.59332
   7   25134.6    397.9     -1.31262   0.04744  -0.06179  -0.05794
   8   25650.6    389.9     82.44726   0.09165  -0.23464  -1.93923
   9   27115.1    368.8     21.48134  -1.77028   0.64018  -0.42317
  10   27583.3    362.5      3.63154   2.21286  -0.62353   0.51137
  11   28718.3    348.2      3.19889   0.18084   0.25796  -0.05568
  12   29290.7    341.4      6.61517  -0.18507   0.21659   0.20810
  13   29458.3    339.5      4.22897   0.11832   0.17378   0.82334
  14   29546.2    338.5     12.79691   1.76380  -0.38967   0.50284
  15   30330.0    329.7      4.52468   0.32850  -0.16737  -0.14652
  16   30978.8    322.8     60.36182   3.88746  -1.19829   0.82718
  17   31415.9    318.3      4.27335  -0.36090   0.38327   0.53395
  18   32212.3    310.4    -10.41386   1.70705  -0.09239   0.26555
  19   32429.2    308.4     -0.00880   0.00379  -0.05009   0.06583
  20   32720.6    305.6      9.60004  -0.07810   0.43126  -0.04752
  21   32836.1    304.5    -28.68082   2.88840  -2.32581  -2.18894
  22   33195.3    301.2     27.87294   1.70236  -1.16088  -0.14338
  23   33286.8    300.4    -11.91348  -0.19163   0.35368  -0.81584
  24   33468.9    298.8      2.82357   0.15524  -0.05548  -0.29233
  25   33678.5    296.9      0.38465   0.71582  -0.11947  -0.03768
  26   34055.5    293.6     15.33636  -0.75957   0.51028   0.06099
  27   34509.0    289.8    -36.11901  -1.56824   0.37339   1.47404
  28   34654.7    288.6     -1.13732  -0.87327   0.11877   0.27860
  29   35114.9    284.8      0.17586   0.18194  -0.03114  -0.08016
  30   35226.4    283.9      7.52618   0.95090  -0.60109   0.37373
  31   36102.1    277.0      0.10863  -0.01840   0.00490  -0.03825
  32   36350.7    275.1     54.08735   2.14988  -1.77015   0.65348
  33   36624.1    273.0    -47.52813   0.56590   0.05728  -3.56920
  34   36926.1    270.8     16.73932  -0.77434   0.65621  -1.14203
  35   37572.0    266.2      3.86233   1.31731  -0.31696   0.18279
  36   37650.2    265.6     -9.25580  -0.79949  -0.12052   0.31297
  37   37965.6    263.4    -15.04446   0.61970  -0.44874  -0.26766
  38   38438.5    260.2     29.01724   3.55069  -0.27599   1.18564
  39   38522.3    259.6     -2.04464  -0.22092   0.08767   0.36213
  40   39124.8    255.6      9.83580   1.57516  -1.28778  -0.87257
  41   39487.5    253.2     -0.77782  -0.30539  -0.00631  -0.30253
  42   39860.6    250.9     -0.81129  -0.13454  -0.02779   0.15395
  43   40214.8    248.7    -26.20010   4.98807  -3.38855  -3.57822

sTD-DFT done

Total run time:        2.483 sec

           *** ORCA-CIS/TD-DFT FINISHED WITHOUT ERROR ***

-------------------------   --------------------
FINAL SINGLE POINT ENERGY     -7109.532699439629
-------------------------   --------------------


                            ***************************************
                            *     ORCA property calculations      *
                            ***************************************

                                    ---------------------
                                    Active property flags
                                    ---------------------
   (+) Dipole Moment


------------------------------------------------------------------------------
                       ORCA ELECTRIC PROPERTIES CALCULATION
------------------------------------------------------------------------------

Dipole Moment Calculation                       ... on
Quadrupole Moment Calculation                   ... off
Polarizability Calculation                      ... off
GBWName                                         ... xtbopt.gbw
Electron density file                           ... xtbopt.scfp
The origin for moment calculation is the CENTER OF MASS  = (-8.530470, -17.370280  3.837139)

-------------
DIPOLE MOMENT
-------------
                                X             Y             Z
Electronic contribution:     35.30147      88.12602      88.72657
Nuclear contribution   :    -35.14449     -88.17019     -87.35545
                        -----------------------------------------
Total Dipole Moment    :      0.15698      -0.04416       1.37111
                        -----------------------------------------
Magnitude (a.u.)       :      1.38078
Magnitude (Debye)      :      3.50966



--------------------
Rotational spectrum 
--------------------
 
Rotational constants in cm-1:     0.000764     0.000443     0.000305 
Rotational constants in MHz :    22.899963    13.270615     9.131398 

 Dipole components along the rotational axes: 
x,y,z [a.u.] :     0.805629    -0.912093    -0.652379 
x,y,z [Debye]:     2.047746    -2.318357    -1.658215 

 

Timings for individual modules:

Sum of individual times         ...      458.039 sec (=   7.634 min)
GTO integral calculation        ...        2.500 sec (=   0.042 min)   0.5 %
SCF iterations                  ...      452.330 sec (=   7.539 min)  98.8 %
CIS module                      ...        3.209 sec (=   0.053 min)   0.7 %
                             ****ORCA TERMINATED NORMALLY****
TOTAL RUN TIME: 0 days 0 hours 7 minutes 38 seconds 978 msec
