      -----------------------------------------------------------      
     |                   =====================                   |     
     |                           x T B                           |     
     |                   =====================                   |     
     |                         S. Grimme                         |     
     |          Mulliken Center for Theoretical Chemistry        |     
     |                    University of Bonn                     |     
     |                Version 6.2 RC2 (SAW190805)                |     
      -----------------------------------------------------------      

   This program is distributed in the hope that it will be useful,
   but WITHOUT ANY WARRANTY; without even the implied warranty of
   MERCHANTABILITY or FITNESS FOR A PARTICULAR PURPOSE.
   
   FOR NON-COMMERCIAL, ACADEMIA USE ONLY.
   
   Cite this work as:
   * S. Grimme, C. Bannwarth, P. Shushkov, J. Chem. Theory Comput., 2017,
     13, 1989-2009. DOI: 10.1021/acs.jctc.7b00118
   * C. Bannwarth, S. Ehlert and S. Grimme., J. Chem. Theory Comput., 2019,
     15, 1652-1671. DOI: 10.1021/acs.jctc.8b01176
   * P. Pracht, E. Caldeweyher, S. Ehlert, S. Grimme, ChemRxiv, 2019, preprint.
     DOI: 10.26434/chemrxiv.8326202.v1
   
   for DFT-D4:
   * E. Caldeweyher, C. Bannwarth and S. Grimme, J. Chem. Phys., 2017,
     147, 034112. DOI: 10.1063/1.4993215
   * E. Caldeweyher, S. Ehlert, A. Hansen, H. Neugebauer, S. Spicher,
     C. Bannwarth and S. Grimme, J. Chem. Phys., 2019, 150, 154122.
     DOI: 10.1063/1.5090222
   
   for sTDA-xTB:
   * S. Grimme and C. Bannwarth, J. Chem. Phys., 2016, 145, 054103.
     DOI: 10.1063/1.4959605
   
   in the mass-spec context:
   * V. Asgeirsson, C. Bauer and S. Grimme, Chem. Sci., 2017, 8, 4879.
     DOI: 10.1039/c7sc00601b
   
   for metadynamics refer to:
   * S. Grimme, J. Chem. Theory Comput., 2019, 155, 2847-2862
     DOI: 10.1021/acs.jctc.9b00143
   
   with help from (in alphabetical order)
   C. Bannwarth, F. Bohle, G. Brandenburg, E. Caldeweyher, M. Checinski,
   S. Dohm, S. Ehlert, S. Ehrlich, F. März, H. Neugebauer, J. Pisarek,
   P. Pracht, P. Shushkov, and S. Spicher.
   
 * started run on 2021/05/14 at 20:16:53.267     

           -------------------------------------------------
          |                Calculation Setup                |
           -------------------------------------------------

          program call               : /ihome/ghutchison/geoffh/xtb/xtb /ihome/ghutchison/blp62/GA/running_GA/generations/68/0_14_0_14_0.xyz -opt
          hostname                   : smp-n131
          coordinate file            : /ihome/ghutchison/blp62/GA/running_GA/generations/68/0_14_0_14_0.xyz
          omp threads                :                    12
          number of atoms            :                   105
          number of electrons        :                   376
          charge                     :                     0
          spin                       :                   0.0
          first test random number   :      0.90042828001846


########################################################################
# WARNING! Please study the warnings concerning your input carefully
#  - XTBPATH is not set, using XTBHOME instead
#  - the use of '-opt' is discouraged, please use '--opt' next time
########################################################################

           ------------------------------------------------- 
          |                 G F N 2 - x T B                 |
          | Geometry, Frequencies, Noncovalent interactions |
          |            JCTC 2019 parametrisation            |
           ------------------------------------------------- 
             KAB for C  - Si     :                1.0500
             KAB for H  - Pd     :                0.9500
             k(s)              :                1.8500
             k(p)              :                2.2300
             k(d)              :                2.2300
             k(f)              :                2.0000
             kEN (H0ij)        :               -2.0000
             D4 a1             :                0.5200
             D4 a2             :                5.0000
             D4 s6             :                1.0000
             D4 s8             :                2.7000
             D4 s9             :                5.0000
             alphaj            :                2.0000

  Z AO/shell   Hii/eV     exponent
  1     Wed Apr 25 08:07:45 CEST 2018   EN: 2.200 GM2: 0.406  GM3: 0.0800  RAES: 1.40
     1s    -10.707211    1.230000
  6     Wed Apr 25 08:07:45 CEST 2018   EN: 2.550 GM2: 0.538  GM3: 0.1500  RAES: 3.00
     2s    -13.970922    2.096432
     2p    -10.063292    1.800000
  7     Wed Apr 25 08:07:45 CEST 2018   EN: 3.040 GM2: 0.461  GM3:-0.0640  RAES: 1.90
     2s    -16.686243    2.339881
     2p    -12.523956    2.014332
  8     Wed Apr 25 08:07:45 CEST 2018   EN: 3.440 GM2: 0.452  GM3:-0.0517  RAES: 1.80
     2s    -20.229985    2.439742
     2p    -15.503117    2.137023
 16     Tue Apr 24 11:44:34 CEST 2018   EN: 2.580 GM2: 0.340  GM3:-0.0502  RAES: 3.10
     3s    -20.029654    1.981333
     3p    -11.377694    2.025643
     3d     -0.420282    1.702555
 32     Tue Apr 24 21:32:01 CEST 2018   EN: 2.010 GM2: 0.802  GM3:-0.0065  RAES: 5.00
     4s    -16.369792    1.990429
     4p     -8.207673    1.830340
     4d     -0.994226    1.100000

           ------------------------------------------------- 
          |        Self-Consistent Charge Iterations        |
           ------------------------------------------------- 

          ...................................................
          :                      SETUP                      :
          :.................................................:
          :  # basis functions                 390          :
          :  # atomic orbitals                 383          :
          :  # shells                          193          :
          :  # electrons                       376          :
          :  max. iterations                   250          :
          :  Hamiltonian                  GFN2-xTB          :
          :  restarted?                      false          :
          :  GBSA solvation                  false          :
          :  PC potential                    false          :
          :  electronic temp.          300.0000000     K    :
          :  accuracy                    1.0000000          :
          :  -> integral cutoff          0.2500000E+02      :
          :  -> integral neglect         0.1000000E-07      :
          :  -> SCF convergence          0.1000000E-05 Eh   :
          :  -> wf. convergence          0.1000000E-03 e    :
          :  Broyden damping             0.4000000          :
          ...................................................

 iter      E             dE          RMSdq      gap      omega  full diag
   1   -206.1131423 -0.206113E+03  0.690E+00    0.12       0.0  T
   2   -193.3727330  0.127404E+02  0.818E+00    0.14       1.0  T
   3   -195.2453133 -0.187258E+01  0.632E+00    0.10       1.0  T
   4   -196.4383769 -0.119306E+01  0.534E+00    0.05       1.0  T
   5   -193.7770039  0.266137E+01  0.564E+00    0.19       1.0  T
   6   -205.5178127 -0.117408E+02  0.320E+00    0.11       1.0  T
   7   -206.6960141 -0.117820E+01  0.363E+00    0.16       1.0  T
   8   -207.5884261 -0.892412E+00  0.314E+00    0.21       1.0  T
   9   -207.9281585 -0.339732E+00  0.287E+00    0.25       1.0  T
  10   -207.4929796  0.435179E+00  0.290E+00    0.06       1.0  T
  11   -207.4952208 -0.224112E-02  0.249E+00    0.10       1.0  T
  12   -207.7475093 -0.252289E+00  0.204E+00    0.13       1.0  T
  13   -207.9878286 -0.240319E+00  0.148E+00    0.15       1.0  T
  14   -207.7953035  0.192525E+00  0.156E+00    0.12       1.0  T
  15   -208.0076170 -0.212314E+00  0.112E+00    0.15       1.0  T
  16   -207.9862195  0.213975E-01  0.106E+00    0.13       1.0  T
  17   -208.0621941 -0.759746E-01  0.802E-01    0.13       1.0  T
  18   -208.1189970 -0.568029E-01  0.449E-01    0.16       1.0  T
  19   -208.1271330 -0.813596E-02  0.350E-01    0.13       1.0  T
  20   -208.1328023 -0.566938E-02  0.307E-01    0.14       1.0  T
  21   -208.1343413 -0.153894E-02  0.268E-01    0.14       1.0  T
  22   -208.1379378 -0.359656E-02  0.153E-01    0.14       1.0  T
  23   -208.1386254 -0.687530E-03  0.118E-01    0.14       1.0  T
  24   -208.1372403  0.138507E-02  0.119E-01    0.12       1.0  T
  25   -208.1386170 -0.137670E-02  0.992E-02    0.14       1.0  T
  26   -208.1391726 -0.555561E-03  0.664E-02    0.13       1.0  T
  27   -208.1397565 -0.583895E-03  0.383E-02    0.14       1.0  T
  28   -208.1399175 -0.161037E-03  0.287E-02    0.14       1.0  T
  29   -208.1399356 -0.181154E-04  0.258E-02    0.14       1.0  T
  30   -208.1400542 -0.118556E-03  0.987E-03    0.14       1.0  T
  31   -208.1400608 -0.663727E-05  0.664E-03    0.14       1.5  T
  32   -208.1400617 -0.886751E-06  0.448E-03    0.14       2.2  T
  33   -208.1400630 -0.135544E-05  0.265E-03    0.14       3.7  T
  34   -208.1400650 -0.199386E-05  0.116E-03    0.14       8.4  T
  35   -208.1400652 -0.134464E-06  0.723E-04    0.14      13.5  T
  36   -208.1400652 -0.757920E-07  0.231E-04    0.14      42.2  T

   *** convergence criteria satisfied after 36 iterations ***

         #    Occupation            Energy/Eh            Energy/eV
      -------------------------------------------------------------
         1        2.0000           -0.7871662             -21.4199
       ...           ...                  ...                  ...
       182        2.0000           -0.4108141             -11.1788
       183        2.0000           -0.4067431             -11.0680
       184        2.0000           -0.4035858             -10.9821
       185        1.9998           -0.3888643             -10.5815
       186        1.9678           -0.3838948             -10.4463
       187        1.9312           -0.3831554             -10.4262
       188        1.9108           -0.3828984             -10.4192 (HOMO)
       189        0.1611           -0.3776744             -10.2770 (LUMO)
       190        0.0281           -0.3759496             -10.2301
       191        0.0012           -0.3729189             -10.1476
       192        0.0000           -0.3663895              -9.9700
       193                         -0.3524133              -9.5897
       ...                                ...                  ...
       383                          1.9966671              54.3321
      -------------------------------------------------------------
                  HL-Gap            0.0052240 Eh            0.1422 eV
             Fermi-level           -0.3799875 Eh          -10.3400 eV

 SCC (total)                   0 d,  0 h,  0 min,  0.602 sec
 SCC setup                      ...        0 min,  0.003 sec (  0.431%)
 Dispersion                     ...        0 min,  0.006 sec (  1.045%)
 integral evaluation            ...        0 min,  0.028 sec (  4.591%)
 zeroth order Hamiltonian       ...        0 min,  0.002 sec (  0.310%)
 iterations                     ...        0 min,  0.536 sec ( 89.019%)
 molecular gradient             ...        0 min,  0.026 sec (  4.374%)
 printout                       ...        0 min,  0.001 sec (  0.212%)

         :::::::::::::::::::::::::::::::::::::::::::::::::::::
         ::                     SUMMARY                     ::
         :::::::::::::::::::::::::::::::::::::::::::::::::::::
         :: total energy            -204.974530300488 Eh    ::
         :: gradient norm              0.442077102190 Eh/a0 ::
         :: HOMO-LUMO gap              0.142153217710 eV    ::
         ::.................................................::
         :: SCC energy              -208.140065245863 Eh    ::
         :: -> isotropic ES            0.176343711651 Eh    ::
         :: -> anisotropic ES          0.020360620134 Eh    ::
         :: -> anisotropic XC          0.195922513323 Eh    ::
         :: -> dispersion             -0.178658513165 Eh    ::
         :: repulsion energy           3.163515714614 Eh    ::
         :: add. restraining           0.000000000000 Eh    ::
         :::::::::::::::::::::::::::::::::::::::::::::::::::::

      ----------------------------------------------------------- 
     |                   =====================                   |
     |                        A N C O P T                        |
     |                   =====================                   |
     |               Approximate Normal Coordinate               |
     |                Rational Function Optimizer                |
      ----------------------------------------------------------- 

          ...................................................
          :                      SETUP                      :
          :.................................................:
          :   optimization level            normal          :
          :   max. optcycles                   315          :
          :   ANC micro-cycles                  20          :
          :   degrees of freedom               309          :
          :.................................................:
          :   RF solver                   davidson          :
          :   input Hessian                  false          :
          :   write xtbopt.log                true          :
          :   linear?                        false          :
          :   energy convergence         0.5000000E-05 Eh   :
          :   grad. convergence          0.1000000E-02 Eh/α :
          :   maximium RF displ.         2.0000000          :
          :   Hlow (freq-cutoff)         0.5000000E-02      :
          :   Hmax (freq-cutoff)         5.0000000          :
          :   S6 in model hess.         20.0000000          :
          ...................................................

generating ANC from model Hessian ...
Using Lindh-Hessian (1995)
 Shifting diagonal of input Hessian by   5.915265693804332E-003
 Lowest  eigenvalues of input Hessian
    0.005000    0.005901   -0.000000   -0.000000   -0.000000    0.000000
    0.000000    0.000000    0.005923    0.005933    0.005944    0.005959
    0.005980    0.006003    0.006018    0.006061    0.006079    0.006094
 Highest eigenvalues
    2.462317    2.464745    2.518313    2.543310    2.554996    2.559729
 

........................................................................
.............................. CYCLE    1 ..............................
........................................................................
   1   -208.1400652 -0.208140E+03  0.250E-04    0.14       0.0  T
   2   -208.1400648  0.426707E-06  0.144E-03    0.14       6.8  T
   3   -208.1400652 -0.382581E-06  0.461E-04    0.14      21.2  T
   4   -208.1400652 -0.347414E-07  0.343E-04    0.14      28.4  T
     SCC iter.                  ...        0 min,  0.061 sec
     gradient                   ...        0 min,  0.026 sec
 * total energy  :  -204.9745303 Eh     change       -0.1711433E-07 Eh
   gradient norm :     0.4420820 Eh/α   predicted     0.0000000E+00 (-100.00%)
   displ. norm   :     0.6306544 α      lambda       -0.2069852E+00
   maximum displ.:     0.1220934 α      in ANC's #51, #76, #164, ...

........................................................................
.............................. CYCLE    2 ..............................
........................................................................
   1   -208.3402929 -0.208340E+03  0.567E-01    0.19       0.0  T
   2   -207.8743546  0.465938E+00  0.151E+00    0.08       1.0  T
   3   -208.3015990 -0.427244E+00  0.524E-01    0.17       1.0  T
   4   -208.2637183  0.378807E-01  0.635E-01    0.08       1.0  T
   5   -208.2387724  0.249460E-01  0.622E-01    0.08       1.0  T
   6   -208.2769221 -0.381498E-01  0.498E-01    0.06       1.0  T
   7   -208.2566138  0.203083E-01  0.567E-01    0.04       1.0  T
   8   -208.3473297 -0.907158E-01  0.269E-01    0.20       1.0  T
   9   -208.3494100 -0.208034E-02  0.197E-01    0.19       1.0  T
  10   -208.3500467 -0.636742E-03  0.164E-01    0.17       1.0  T
  11   -208.3521440 -0.209730E-02  0.118E-01    0.15       1.0  T
  12   -208.3527956 -0.651547E-03  0.923E-02    0.14       1.0  T
  13   -208.3539701 -0.117457E-02  0.586E-02    0.15       1.0  T
  14   -208.3543671 -0.396927E-03  0.385E-02    0.16       1.0  T
  15   -208.3545881 -0.221054E-03  0.153E-02    0.17       1.0  T
  16   -208.3546053 -0.172074E-04  0.898E-03    0.17       1.1  T
  17   -208.3546197 -0.144120E-04  0.395E-03    0.17       2.5  T
  18   -208.3546208 -0.110289E-05  0.237E-03    0.17       4.1  T
  19   -208.3546215 -0.673561E-06  0.144E-03    0.17       6.8  T
     SCC iter.                  ...        0 min,  0.281 sec
     gradient                   ...        0 min,  0.026 sec
 * total energy  :  -205.1418272 Eh     change       -0.1672969E+00 Eh
   gradient norm :     0.2569070 Eh/α   predicted    -0.1446569E+00 ( -13.53%)
   displ. norm   :     0.7070905 α      lambda       -0.1429928E+00
   maximum displ.:     0.1470142 α      in ANC's #51, #97, #76, ...

........................................................................
.............................. CYCLE    3 ..............................
........................................................................
   1   -208.4788541 -0.208479E+03  0.593E-01    0.22       0.0  T
   2   -208.0050775  0.473777E+00  0.157E+00    0.10       1.0  T
   3   -208.2669596 -0.261882E+00  0.861E-01    0.08       1.0  T
   4   -208.4188824 -0.151923E+00  0.547E-01    0.07       1.0  T
   5   -208.4367854 -0.179030E-01  0.583E-01    0.13       1.0  T
   6   -208.4825511 -0.457657E-01  0.286E-01    0.21       1.0  T
   7   -208.4917215 -0.917037E-02  0.197E-01    0.18       1.0  T
   8   -208.4938815 -0.215997E-02  0.113E-01    0.16       1.0  T
   9   -208.4916108  0.227070E-02  0.138E-01    0.14       1.0  T
  10   -208.4941378 -0.252706E-02  0.809E-02    0.15       1.0  T
  11   -208.4942907 -0.152889E-03  0.629E-02    0.15       1.0  T
  12   -208.4952592 -0.968492E-03  0.254E-02    0.15       1.0  T
  13   -208.4953909 -0.131708E-03  0.130E-02    0.16       1.0  T
  14   -208.4954101 -0.191542E-04  0.777E-03    0.16       1.3  T
  15   -208.4954207 -0.106941E-04  0.312E-03    0.16       3.1  T
  16   -208.4954215 -0.780657E-06  0.197E-03    0.16       5.0  T
  17   -208.4954217 -0.202996E-06  0.103E-03    0.16       9.5  T
     SCC iter.                  ...        0 min,  0.248 sec
     gradient                   ...        0 min,  0.025 sec
 * total energy  :  -205.2488611 Eh     change       -0.1070339E+00 Eh
   gradient norm :     0.1178289 Eh/α   predicted    -0.1072430E+00 (   0.20%)
   displ. norm   :     0.7763277 α      lambda       -0.7337733E-01
   maximum displ.:     0.2260485 α      in ANC's #51, #48, #76, ...

........................................................................
.............................. CYCLE    4 ..............................
........................................................................
   1   -208.5731757 -0.208573E+03  0.384E-01    0.19       0.0  T
   2   -208.3955321  0.177644E+00  0.998E-01    0.11       1.0  T
   3   -208.5365990 -0.141067E+00  0.428E-01    0.15       1.0  T
   4   -208.5143305  0.222684E-01  0.486E-01    0.12       1.0  T
   5   -208.5396284 -0.252979E-01  0.425E-01    0.19       1.0  T
   6   -208.5642015 -0.245731E-01  0.237E-01    0.14       1.0  T
   7   -208.5725473 -0.834582E-02  0.155E-01    0.23       1.0  T
   8   -208.5743365 -0.178912E-02  0.125E-01    0.19       1.0  T
   9   -208.5746730 -0.336489E-03  0.105E-01    0.20       1.0  T
  10   -208.5762806 -0.160760E-02  0.540E-02    0.19       1.0  T
  11   -208.5767055 -0.424931E-03  0.279E-02    0.16       1.0  T
  12   -208.5768533 -0.147847E-03  0.171E-02    0.17       1.0  T
  13   -208.5768792 -0.258119E-04  0.102E-02    0.17       1.0  T
  14   -208.5769044 -0.252740E-04  0.299E-03    0.17       3.3  T
  15   -208.5769056 -0.118636E-05  0.146E-03    0.17       6.7  T
  16   -208.5769059 -0.258968E-06  0.732E-04    0.17      13.3  T
     SCC iter.                  ...        0 min,  0.232 sec
     gradient                   ...        0 min,  0.025 sec
 * total energy  :  -205.3092660 Eh     change       -0.6040488E-01 Eh
   gradient norm :     0.0966914 Eh/α   predicted    -0.5880037E-01 (  -2.66%)
   displ. norm   :     0.8069820 α      lambda       -0.5334465E-01
   maximum displ.:     0.2318465 α      in ANC's #48, #51, #53, ...

........................................................................
.............................. CYCLE    5 ..............................
........................................................................
   1   -208.6433047 -0.208643E+03  0.338E-01    0.18       0.0  T
   2   -208.6356289  0.767578E-02  0.309E-01    0.16       1.0  T
   3   -208.6147148  0.209141E-01  0.432E-01    0.19       1.0  T
   4   -208.4477355  0.166979E+00  0.884E-01    0.09       1.0  T
   5   -208.6334022 -0.185667E+00  0.263E-01    0.25       1.0  T
   6   -208.6380287 -0.462655E-02  0.166E-01    0.23       1.0  T
   7   -208.6428715 -0.484282E-02  0.123E-01    0.21       1.0  T
   8   -208.6437970 -0.925464E-03  0.872E-02    0.21       1.0  T
   9   -208.6443074 -0.510419E-03  0.658E-02    0.20       1.0  T
  10   -208.6450898 -0.782407E-03  0.349E-02    0.19       1.0  T
  11   -208.6452153 -0.125469E-03  0.203E-02    0.18       1.0  T
  12   -208.6452731 -0.577877E-04  0.800E-03    0.18       1.2  T
  13   -208.6452644  0.868342E-05  0.820E-03    0.18       1.2  T
  14   -208.6452802 -0.158327E-04  0.301E-03    0.18       3.2  T
  15   -208.6452803 -0.518487E-07  0.232E-03    0.18       4.2  T
  16   -208.6452815 -0.122714E-05  0.621E-04    0.18      15.7  T
     SCC iter.                  ...        0 min,  0.230 sec
     gradient                   ...        0 min,  0.025 sec
 * total energy  :  -205.3554380 Eh     change       -0.4617201E-01 Eh
   gradient norm :     0.0844183 Eh/α   predicted    -0.4404192E-01 (  -4.61%)
   displ. norm   :     0.8355064 α      lambda       -0.4454638E-01
   maximum displ.:     0.2763496 α      in ANC's #48, #51, #43, ...

........................................................................
.............................. CYCLE    6 ..............................
........................................................................
   1   -208.6817727 -0.208682E+03  0.350E-01    0.20       0.0  T
   2   -208.6687467  0.130260E-01  0.360E-01    0.31       1.0  T
   3   -208.5945174  0.742293E-01  0.688E-01    0.13       1.0  T
   4   -208.6504989 -0.559814E-01  0.425E-01    0.26       1.0  T
   5   -208.6736488 -0.231499E-01  0.262E-01    0.29       1.0  T
   6   -208.6781202 -0.447142E-02  0.174E-01    0.28       1.0  T
   7   -208.6825654 -0.444521E-02  0.110E-01    0.26       1.0  T
   8   -208.6834015 -0.836115E-03  0.771E-02    0.25       1.0  T
   9   -208.6843639 -0.962385E-03  0.369E-02    0.22       1.0  T
  10   -208.6844260 -0.620342E-04  0.208E-02    0.22       1.0  T
  11   -208.6845002 -0.742747E-04  0.798E-03    0.21       1.2  T
  12   -208.6845019 -0.166985E-05  0.577E-03    0.21       1.7  T
  13   -208.6845087 -0.680360E-05  0.200E-03    0.21       4.9  T
  14   -208.6845089 -0.197572E-06  0.129E-03    0.21       7.6  T
     SCC iter.                  ...        0 min,  0.201 sec
     gradient                   ...        0 min,  0.025 sec
 * total energy  :  -205.3940627 Eh     change       -0.3862471E-01 Eh
   gradient norm :     0.0681578 Eh/α   predicted    -0.3782146E-01 (  -2.08%)
   displ. norm   :     0.8860927 α      lambda       -0.4005175E-01
   maximum displ.:     0.2514336 α      in ANC's #48, #39, #53, ...

........................................................................
.............................. CYCLE    7 ..............................
........................................................................
   1   -208.7558594 -0.208756E+03  0.416E-01    0.21       0.0  T
   2   -208.6885535  0.673059E-01  0.679E-01    0.13       1.0  T
   3   -208.7240539 -0.355004E-01  0.449E-01    0.33       1.0  T
   4   -208.7261796 -0.212571E-02  0.417E-01    0.18       1.0  T
   5   -208.7371360 -0.109564E-01  0.330E-01    0.26       1.0  T
   6   -208.7512318 -0.140958E-01  0.202E-01    0.28       1.0  T
   7   -208.7559926 -0.476073E-02  0.122E-01    0.24       1.0  T
   8   -208.7576075 -0.161491E-02  0.680E-02    0.21       1.0  T
   9   -208.7582834 -0.675920E-03  0.221E-02    0.19       1.0  T
  10   -208.7583219 -0.384845E-04  0.112E-02    0.19       1.0  T
  11   -208.7583346 -0.126954E-04  0.601E-03    0.19       1.6  T
  12   -208.7583399 -0.534181E-05  0.334E-03    0.19       2.9  T
  13   -208.7583411 -0.123701E-05  0.191E-03    0.19       5.1  T
     SCC iter.                  ...        0 min,  0.185 sec
     gradient                   ...        0 min,  0.025 sec
 * total energy  :  -205.4268837 Eh     change       -0.3282098E-01 Eh
   gradient norm :     0.0631196 Eh/α   predicted    -0.3574947E-01 (   8.92%)
   displ. norm   :     0.8739377 α      lambda       -0.3466569E-01
   maximum displ.:     0.2891721 α      in ANC's #48, #51, #27, ...

........................................................................
.............................. CYCLE    8 ..............................
........................................................................
   1   -208.7913264 -0.208791E+03  0.396E-01    0.23       0.0  T
   2   -208.7777843  0.135421E-01  0.387E-01    0.36       1.0  T
   3   -208.6858315  0.919528E-01  0.764E-01    0.15       1.0  T
   4   -208.7648029 -0.789715E-01  0.366E-01    0.35       1.0  T
   5   -208.7862318 -0.214289E-01  0.241E-01    0.34       1.0  T
   6   -208.7898023 -0.357049E-02  0.161E-01    0.31       1.0  T
   7   -208.7921354 -0.233309E-02  0.113E-01    0.30       1.0  T
   8   -208.7937255 -0.159011E-02  0.687E-02    0.28       1.0  T
   9   -208.7940983 -0.372805E-03  0.443E-02    0.27       1.0  T
  10   -208.7943762 -0.277856E-03  0.186E-02    0.25       1.0  T
  11   -208.7944066 -0.304271E-04  0.697E-03    0.25       1.4  T
  12   -208.7944119 -0.531603E-05  0.384E-03    0.25       2.5  T
  13   -208.7944138 -0.184379E-05  0.221E-03    0.25       4.4  T
     SCC iter.                  ...        0 min,  0.188 sec
     gradient                   ...        0 min,  0.025 sec
 * total energy  :  -205.4551427 Eh     change       -0.2825904E-01 Eh
   gradient norm :     0.0698013 Eh/α   predicted    -0.3057111E-01 (   8.18%)
   displ. norm   :     0.8910935 α      lambda       -0.3131231E-01
   maximum displ.:     0.2941670 α      in ANC's #48, #39, #43, ...

........................................................................
.............................. CYCLE    9 ..............................
........................................................................
   1   -208.8268939 -0.208827E+03  0.430E-01    0.26       0.0  T
   2   -208.8127656  0.141283E-01  0.407E-01    0.41       1.0  T
   3   -208.6987491  0.114016E+00  0.808E-01    0.15       1.0  T
   4   -208.7951074 -0.963583E-01  0.370E-01    0.37       1.0  T
   5   -208.8236106 -0.285032E-01  0.227E-01    0.38       1.0  T
   6   -208.8243240 -0.713414E-03  0.176E-01    0.35       1.0  T
   7   -208.8264464 -0.212235E-02  0.134E-01    0.35       1.0  T
   8   -208.8286790 -0.223266E-02  0.853E-02    0.31       1.0  T
   9   -208.8291913 -0.512294E-03  0.582E-02    0.30       1.0  T
  10   -208.8296134 -0.422036E-03  0.284E-02    0.28       1.0  T
  11   -208.8296985 -0.851959E-04  0.850E-03    0.27       1.1  T
  12   -208.8297070 -0.846411E-05  0.404E-03    0.27       2.4  T
  13   -208.8297088 -0.183788E-05  0.219E-03    0.27       4.5  T
  14   -208.8297096 -0.743343E-06  0.955E-04    0.27      10.2  T
     SCC iter.                  ...        0 min,  0.201 sec
     gradient                   ...        0 min,  0.025 sec
 * total energy  :  -205.4761498 Eh     change       -0.2100711E-01 Eh
   gradient norm :     0.1278001 Eh/α   predicted    -0.2808789E-01 (  33.71%)
   displ. norm   :     0.7738306 α      lambda       -0.2883822E-01
   maximum displ.:     0.2310328 α      in ANC's #39, #48, #40, ...

........................................................................
.............................. CYCLE   10 ..............................
........................................................................
   1   -208.8228211 -0.208823E+03  0.371E-01    0.31       0.0  T
   2   -208.7599738  0.628473E-01  0.649E-01    0.17       1.0  T
   3   -208.8112420 -0.512682E-01  0.310E-01    0.40       1.0  T
   4   -208.8169880 -0.574599E-02  0.223E-01    0.27       1.0  T
   5   -208.8196200 -0.263198E-02  0.165E-01    0.32       1.0  T
   6   -208.8231517 -0.353170E-02  0.953E-02    0.31       1.0  T
   7   -208.8246533 -0.150169E-02  0.386E-02    0.28       1.0  T
   8   -208.8247894 -0.136097E-03  0.172E-02    0.27       1.0  T
   9   -208.8247822  0.724757E-05  0.127E-02    0.26       1.0  T
  10   -208.8248034 -0.211997E-04  0.585E-03    0.27       1.7  T
  11   -208.8248074 -0.400980E-05  0.248E-03    0.27       3.9  T
  12   -208.8248081 -0.727914E-06  0.114E-03    0.27       8.5  T
     SCC iter.                  ...        0 min,  0.172 sec
     gradient                   ...        0 min,  0.025 sec
 * total energy  :  -205.4979794 Eh     change       -0.2182955E-01 Eh
   gradient norm :     0.0822946 Eh/α   predicted    -0.2305345E-01 (   5.61%)
   displ. norm   :     0.8159963 α      lambda       -0.2662882E-01
   maximum displ.:     0.2567194 α      in ANC's #27, #46, #16, ...

........................................................................
.............................. CYCLE   11 ..............................
........................................................................
   1   -208.8936365 -0.208894E+03  0.438E-01    0.27       0.0  T
   2   -208.8844957  0.914072E-02  0.354E-01    0.40       1.0  T
   3   -208.7354988  0.148997E+00  0.913E-01    0.16       1.0  T
   4   -208.8699665 -0.134468E+00  0.314E-01    0.39       1.0  T
   5   -208.8905923 -0.206258E-01  0.188E-01    0.37       1.0  T
   6   -208.8926535 -0.206115E-02  0.130E-01    0.34       1.0  T
   7   -208.8934811 -0.827653E-03  0.956E-02    0.34       1.0  T
   8   -208.8949196 -0.143841E-02  0.538E-02    0.31       1.0  T
   9   -208.8951260 -0.206450E-03  0.331E-02    0.30       1.0  T
  10   -208.8952550 -0.128990E-03  0.158E-02    0.29       1.0  T
  11   -208.8952752 -0.202346E-04  0.476E-03    0.28       2.1  T
  12   -208.8952758 -0.537619E-06  0.279E-03    0.28       3.5  T
  13   -208.8952770 -0.122568E-05  0.154E-03    0.28       6.3  T
     SCC iter.                  ...        0 min,  0.184 sec
     gradient                   ...        0 min,  0.025 sec
 * total energy  :  -205.5121047 Eh     change       -0.1412534E-01 Eh
   gradient norm :     0.1017409 Eh/α   predicted    -0.2217980E-01 (  57.02%)
   displ. norm   :     0.7607537 α      lambda       -0.2668799E-01
   maximum displ.:     0.2476861 α      in ANC's #39, #43, #48, ...

........................................................................
.............................. CYCLE   12 ..............................
........................................................................
   1   -208.9093282 -0.208909E+03  0.354E-01    0.32       0.0  T
   2   -208.9071009  0.222732E-02  0.237E-01    0.37       1.0  T
   3   -208.8586786  0.484223E-01  0.583E-01    0.22       1.0  T
   4   -208.9020250 -0.433464E-01  0.204E-01    0.43       1.0  T
   5   -208.9090383 -0.701332E-02  0.919E-02    0.34       1.0  T
   6   -208.9097193 -0.680981E-03  0.561E-02    0.35       1.0  T
   7   -208.9100577 -0.338462E-03  0.297E-02    0.34       1.0  T
   8   -208.9101654 -0.107641E-03  0.151E-02    0.33       1.0  T
   9   -208.9101898 -0.244549E-04  0.858E-03    0.33       1.1  T
  10   -208.9101972 -0.733595E-05  0.345E-03    0.33       2.8  T
  11   -208.9101985 -0.129588E-05  0.160E-03    0.33       6.1  T
  12   -208.9101987 -0.212403E-06  0.949E-04    0.33      10.3  T
     SCC iter.                  ...        0 min,  0.178 sec
     gradient                   ...        0 min,  0.026 sec
 * total energy  :  -205.5276978 Eh     change       -0.1559310E-01 Eh
   gradient norm :     0.1081427 Eh/α   predicted    -0.2106676E-01 (  35.10%)
   displ. norm   :     0.7467341 α      lambda       -0.2538973E-01
   maximum displ.:     0.2195594 α      in ANC's #1, #43, #40, ...

........................................................................
.............................. CYCLE   13 ..............................
........................................................................
   1   -208.8920692 -0.208892E+03  0.434E-01    0.33       0.0  T
   2   -208.8919106  0.158535E-03  0.250E-01    0.30       1.0  T
   3   -208.8674165  0.244941E-01  0.392E-01    0.44       1.0  T
   4   -208.8905562 -0.231396E-01  0.118E-01    0.29       1.0  T
   5   -208.8924433 -0.188713E-02  0.523E-02    0.33       1.0  T
   6   -208.8927835 -0.340193E-03  0.285E-02    0.31       1.0  T
   7   -208.8927955 -0.119620E-04  0.266E-02    0.33       1.0  T
   8   -208.8928841 -0.886507E-04  0.122E-02    0.32       1.0  T
   9   -208.8929021 -0.179550E-04  0.444E-03    0.32       2.2  T
  10   -208.8929042 -0.211461E-05  0.225E-03    0.32       4.3  T
  11   -208.8929050 -0.773156E-06  0.132E-03    0.32       7.4  T
     SCC iter.                  ...        0 min,  0.159 sec
     gradient                   ...        0 min,  0.025 sec
 * total energy  :  -205.5407911 Eh     change       -0.1309326E-01 Eh
   gradient norm :     0.1119686 Eh/α   predicted    -0.1977364E-01 (  51.02%)
   displ. norm   :     0.7079838 α      lambda       -0.2168419E-01
   maximum displ.:     0.2018369 α      in ANC's #39, #16, #40, ...

........................................................................
.............................. CYCLE   14 ..............................
........................................................................
   1   -208.9147274 -0.208915E+03  0.374E-01    0.34       0.0  T
   2   -208.9142197  0.507739E-03  0.221E-01    0.35       1.0  T
   3   -208.8748187  0.394010E-01  0.506E-01    0.23       1.0  T
   4   -208.9108717 -0.360531E-01  0.164E-01    0.42       1.0  T
   5   -208.9146580 -0.378628E-02  0.649E-02    0.34       1.0  T
   6   -208.9149166 -0.258619E-03  0.478E-02    0.34       1.0  T
   7   -208.9152006 -0.283982E-03  0.214E-02    0.34       1.0  T
   8   -208.9152562 -0.556335E-04  0.103E-02    0.33       1.0  T
   9   -208.9152722 -0.159988E-04  0.482E-03    0.33       2.0  T
  10   -208.9152743 -0.208721E-05  0.244E-03    0.34       4.0  T
  11   -208.9152750 -0.678297E-06  0.103E-03    0.34       9.5  T
     SCC iter.                  ...        0 min,  0.160 sec
     gradient                   ...        0 min,  0.025 sec
 * total energy  :  -205.5567732 Eh     change       -0.1598214E-01 Eh
   gradient norm :     0.0670424 Eh/α   predicted    -0.1627660E-01 (   1.84%)
   displ. norm   :     0.8087258 α      lambda       -0.1919741E-01
   maximum displ.:     0.2168613 α      in ANC's #39, #27, #44, ...

........................................................................
.............................. CYCLE   15 ..............................
........................................................................
   1   -208.9313775 -0.208931E+03  0.449E-01    0.34       0.0  T
   2   -208.7518846  0.179493E+00  0.100E+00    0.10       1.0  T
   3   -208.9206636 -0.168779E+00  0.336E-01    0.45       1.0  T
   4   -208.9293136 -0.864992E-02  0.221E-01    0.26       1.0  T
   5   -208.9315914 -0.227788E-02  0.148E-01    0.35       1.0  T
   6   -208.9350272 -0.343577E-02  0.814E-02    0.32       1.0  T
   7   -208.9360267 -0.999455E-03  0.390E-02    0.28       1.0  T
   8   -208.9360796 -0.529220E-04  0.300E-02    0.27       1.0  T
   9   -208.9360759  0.366154E-05  0.235E-02    0.26       1.0  T
  10   -208.9361487 -0.728228E-04  0.875E-03    0.27       1.1  T
  11   -208.9361586 -0.980791E-05  0.501E-03    0.27       1.9  T
  12   -208.9361619 -0.330581E-05  0.178E-03    0.27       5.5  T
  13   -208.9361623 -0.416232E-06  0.878E-04    0.27      11.1  T
     SCC iter.                  ...        0 min,  0.191 sec
     gradient                   ...        0 min,  0.025 sec
 * total energy  :  -205.5658177 Eh     change       -0.9044514E-02 Eh
   gradient norm :     0.1251373 Eh/α   predicted    -0.1587660E-01 (  75.54%)
   displ. norm   :     0.6656027 α      lambda       -0.2585492E-01
   maximum displ.:     0.1698324 α      in ANC's #51, #52, #40, ...

........................................................................
.............................. CYCLE   16 ..............................
........................................................................
   1   -209.0088669 -0.209009E+03  0.382E-01    0.30       0.0  T
   2   -208.9996856  0.918130E-02  0.368E-01    0.43       1.0  T
   3   -208.9708317  0.288538E-01  0.498E-01    0.18       1.0  T
   4   -208.9954170 -0.245852E-01  0.269E-01    0.50       1.0  T
   5   -209.0091001 -0.136832E-01  0.143E-01    0.39       1.0  T
   6   -209.0106724 -0.157230E-02  0.863E-02    0.34       1.0  T
   7   -209.0112073 -0.534879E-03  0.542E-02    0.34       1.0  T
   8   -209.0116443 -0.437012E-03  0.233E-02    0.31       1.0  T
   9   -209.0116737 -0.293806E-04  0.126E-02    0.30       1.0  T
  10   -209.0116821 -0.838951E-05  0.612E-03    0.30       1.6  T
  11   -209.0116862 -0.413091E-05  0.274E-03    0.30       3.6  T
  12   -209.0116872 -0.101743E-05  0.137E-03    0.30       7.1  T
     SCC iter.                  ...        0 min,  0.177 sec
     gradient                   ...        0 min,  0.025 sec
 * total energy  :  -205.5776552 Eh     change       -0.1183745E-01 Eh
   gradient norm :     0.1525740 Eh/α   predicted    -0.1865466E-01 (  57.59%)
   displ. norm   :     0.6516860 α      lambda       -0.2766947E-01
   maximum displ.:     0.1995014 α      in ANC's #1, #39, #44, ...

........................................................................
.............................. CYCLE   17 ..............................
........................................................................
   1   -208.9524718 -0.208952E+03  0.413E-01    0.32       0.0  T
   2   -208.9517510  0.720788E-03  0.253E-01    0.27       1.0  T
   3   -208.9299746  0.217764E-01  0.363E-01    0.49       1.0  T
   4   -208.9480470 -0.180724E-01  0.200E-01    0.26       1.0  T
   5   -208.9529750 -0.492809E-02  0.843E-02    0.34       1.0  T
   6   -208.9536139 -0.638880E-03  0.383E-02    0.31       1.0  T
   7   -208.9537587 -0.144807E-03  0.203E-02    0.32       1.0  T
   8   -208.9537777 -0.190071E-04  0.145E-02    0.30       1.0  T
   9   -208.9538189 -0.411648E-04  0.439E-03    0.31       2.2  T
  10   -208.9538207 -0.178382E-05  0.226E-03    0.31       4.3  T
  11   -208.9538211 -0.439529E-06  0.147E-03    0.31       6.6  T
     SCC iter.                  ...        0 min,  0.162 sec
     gradient                   ...        0 min,  0.025 sec
 * total energy  :  -205.5842871 Eh     change       -0.6631906E-02 Eh
   gradient norm :     0.1219334 Eh/α   predicted    -0.1971027E-01 ( 197.20%)
   displ. norm   :     0.6005423 α      lambda       -0.3378898E-01
   maximum displ.:     0.1596748 α      in ANC's #40, #50, #42, ...

........................................................................
.............................. CYCLE   18 ..............................
........................................................................
   1   -208.9120053 -0.208912E+03  0.290E-01    0.28       0.0  T
   2   -208.9097308  0.227453E-02  0.214E-01    0.38       1.0  T
   3   -208.8728796  0.368512E-01  0.471E-01    0.17       1.0  T
   4   -208.9083457 -0.354662E-01  0.180E-01    0.46       1.0  T
   5   -208.9124320 -0.408627E-02  0.775E-02    0.39       1.0  T
   6   -208.9129346 -0.502635E-03  0.506E-02    0.34       1.0  T
   7   -208.9132166 -0.282005E-03  0.278E-02    0.33       1.0  T
   8   -208.9133229 -0.106271E-03  0.127E-02    0.31       1.0  T
   9   -208.9133259 -0.294185E-05  0.884E-03    0.31       1.1  T
  10   -208.9133348 -0.890711E-05  0.390E-03    0.31       2.5  T
  11   -208.9133367 -0.191914E-05  0.158E-03    0.31       6.2  T
  12   -208.9133369 -0.164360E-06  0.109E-03    0.31       9.0  T
     SCC iter.                  ...        0 min,  0.177 sec
     gradient                   ...        0 min,  0.025 sec
 * total energy  :  -205.5840160 Eh     change        0.2710817E-03 Eh
   gradient norm :     0.1671001 Eh/α   predicted    -0.2298750E-01 (*******%)
   displ. norm   :     0.5616770 α      lambda       -0.4160338E-01
   maximum displ.:     0.1520780 α      in ANC's #46, #23, #106, ...

........................................................................
.............................. CYCLE   19 ..............................
........................................................................
   1   -209.0031991 -0.209003E+03  0.423E-01    0.33       0.0  T
   2   -208.8348915  0.168308E+00  0.968E-01    0.09       1.0  T
   3   -208.9918222 -0.156931E+00  0.344E-01    0.50       1.0  T
   4   -209.0043286 -0.125063E-01  0.210E-01    0.30       1.0  T
   5   -209.0054307 -0.110210E-02  0.144E-01    0.34       1.0  T
   6   -209.0082045 -0.277383E-02  0.751E-02    0.33       1.0  T
   7   -209.0090860 -0.881464E-03  0.351E-02    0.28       1.0  T
   8   -209.0091614 -0.754026E-04  0.258E-02    0.26       1.0  T
   9   -209.0091309  0.304649E-04  0.216E-02    0.25       1.0  T
  10   -209.0092011 -0.701900E-04  0.745E-03    0.26       1.3  T
  11   -209.0092068 -0.566662E-05  0.392E-03    0.26       2.5  T
  12   -209.0092085 -0.173205E-05  0.158E-03    0.26       6.2  T
     SCC iter.                  ...        0 min,  0.174 sec
     gradient                   ...        0 min,  0.025 sec
 * total energy  :  -205.5961127 Eh     change       -0.1209671E-01 Eh
   gradient norm :     0.1420614 Eh/α   predicted    -0.2736421E-01 ( 126.21%)
   displ. norm   :     0.5214973 α      lambda       -0.3051606E-01
   maximum displ.:     0.1451402 α      in ANC's #1, #63, #91, ...

........................................................................
.............................. CYCLE   20 ..............................
........................................................................
   1   -208.9911479 -0.208991E+03  0.358E-01    0.33       0.0  T
   2   -208.9824491  0.869883E-02  0.390E-01    0.41       1.0  T
   3   -208.9792355  0.321352E-02  0.360E-01    0.19       1.0  T
   4   -208.9889736 -0.973803E-02  0.221E-01    0.48       1.0  T
   5   -208.9970751 -0.810155E-02  0.101E-01    0.33       1.0  T
   6   -208.9978257 -0.750579E-03  0.460E-02    0.30       1.0  T
   7   -208.9980271 -0.201422E-03  0.282E-02    0.31       1.0  T
   8   -208.9981034 -0.762325E-04  0.184E-02    0.30       1.0  T
   9   -208.9981373 -0.339386E-04  0.847E-03    0.29       1.2  T
  10   -208.9981415 -0.415825E-05  0.445E-03    0.30       2.2  T
  11   -208.9981437 -0.227447E-05  0.220E-03    0.30       4.4  T
     SCC iter.                  ...        0 min,  0.163 sec
     gradient                   ...        0 min,  0.025 sec
 * total energy  :  -205.6060474 Eh     change       -0.9934648E-02 Eh
   gradient norm :     0.1347582 Eh/α   predicted    -0.1940760E-01 (  95.35%)
   displ. norm   :     0.5821917 α      lambda       -0.2462937E-01
   maximum displ.:     0.1722969 α      in ANC's #26, #52, #44, ...
 * RMSD in coord.:     1.0861887 α      energy gain  -0.6315171E+00 Eh

generating ANC from model Hessian ...
Using Lindh-Hessian (1995)
 Shifting diagonal of input Hessian by   5.012054616035382E-003
 Lowest  eigenvalues of input Hessian
    0.005000   -0.000000   -0.000000   -0.000000    0.000000    0.000000
    0.000000    0.005023    0.005034    0.005059    0.005090    0.005123
    0.005146    0.005194    0.005245    0.005256    0.005381    0.005494
 Highest eigenvalues
    2.573063    2.607732    2.618318    2.619926    2.622292    2.638695
 

........................................................................
.............................. CYCLE   21 ..............................
........................................................................
   1   -208.9810004 -0.208981E+03  0.337E-01    0.27       0.0  T
   2   -208.9823166 -0.131619E-02  0.209E-01    0.32       1.0  T
   3   -208.9789857  0.333084E-02  0.192E-01    0.26       1.0  T
   4   -208.9789993 -0.135986E-04  0.161E-01    0.38       1.0  T
   5   -208.9817260 -0.272669E-02  0.102E-01    0.27       1.0  T
   6   -208.9830889 -0.136291E-02  0.502E-02    0.32       1.0  T
   7   -208.9833963 -0.307412E-03  0.148E-02    0.31       1.0  T
   8   -208.9834075 -0.112217E-04  0.993E-03    0.30       1.0  T
   9   -208.9834188 -0.112471E-04  0.541E-03    0.30       1.8  T
  10   -208.9834231 -0.431610E-05  0.194E-03    0.30       5.0  T
  11   -208.9834234 -0.297494E-06  0.109E-03    0.30       8.9  T
  12   -208.9834235 -0.932241E-07  0.592E-04    0.30      16.5  T
  13   -208.9834235 -0.248994E-07  0.320E-04    0.30      30.5  T
     SCC iter.                  ...        0 min,  0.185 sec
     gradient                   ...        0 min,  0.027 sec
 * total energy  :  -205.6117684 Eh     change       -0.5721062E-02 Eh
   gradient norm :     0.1261045 Eh/α   predicted     0.0000000E+00 (-100.00%)
   displ. norm   :     0.5554731 α      lambda       -0.2075968E-01
   maximum displ.:     0.2245894 α      in ANC's #42, #19, #33, ...

........................................................................
.............................. CYCLE   22 ..............................
........................................................................
   1   -209.0169934 -0.209017E+03  0.294E-01    0.33       0.0  T
   2   -209.0126561  0.433729E-02  0.238E-01    0.43       1.0  T
   3   -208.9880307  0.246254E-01  0.423E-01    0.20       1.0  T
   4   -209.0164978 -0.284670E-01  0.111E-01    0.46       1.0  T
   5   -209.0176493 -0.115152E-02  0.584E-02    0.39       1.0  T
   6   -209.0180254 -0.376107E-03  0.281E-02    0.36       1.0  T
   7   -209.0181143 -0.889148E-04  0.179E-02    0.34       1.0  T
   8   -209.0181444 -0.301115E-04  0.836E-03    0.33       1.2  T
   9   -209.0181480 -0.354422E-05  0.462E-03    0.34       2.1  T
  10   -209.0181495 -0.154786E-05  0.254E-03    0.33       3.8  T
     SCC iter.                  ...        0 min,  0.146 sec
     gradient                   ...        0 min,  0.025 sec
 * total energy  :  -205.6260877 Eh     change       -0.1431928E-01 Eh
   gradient norm :     0.0392590 Eh/α   predicted    -0.1358255E-01 (  -5.14%)
   displ. norm   :     0.7441446 α      lambda       -0.1432415E-01
   maximum displ.:     0.3248240 α      in ANC's #42, #19, #15, ...

........................................................................
.............................. CYCLE   23 ..............................
........................................................................
   1   -209.0393912 -0.209039E+03  0.434E-01    0.36       0.0  T
   2   -209.0388941  0.497144E-03  0.244E-01    0.39       1.0  T
   3   -208.9896131  0.492810E-01  0.503E-01    0.17       1.0  T
   4   -209.0383702 -0.487571E-01  0.128E-01    0.45       1.0  T
   5   -209.0396677 -0.129749E-02  0.463E-02    0.41       1.0  T
   6   -209.0399991 -0.331415E-03  0.243E-02    0.37       1.0  T
   7   -209.0400531 -0.540685E-04  0.105E-02    0.36       1.0  T
   8   -209.0400576 -0.444310E-05  0.714E-03    0.36       1.4  T
   9   -209.0400592 -0.163782E-05  0.510E-03    0.35       1.9  T
  10   -209.0400614 -0.220114E-05  0.294E-03    0.36       3.3  T
     SCC iter.                  ...        0 min,  0.145 sec
     gradient                   ...        0 min,  0.025 sec
 * total energy  :  -205.6340173 Eh     change       -0.7929635E-02 Eh
   gradient norm :     0.0461749 Eh/α   predicted    -0.1112809E-01 (  40.34%)
   displ. norm   :     0.7265710 α      lambda       -0.1243499E-01
   maximum displ.:     0.3168892 α      in ANC's #42, #19, #37, ...

........................................................................
.............................. CYCLE   24 ..............................
........................................................................
   1   -209.0430790 -0.209043E+03  0.343E-01    0.38       0.0  T
   2   -209.0430622  0.167947E-04  0.185E-01    0.39       1.0  T
   3   -209.0375848  0.547740E-02  0.184E-01    0.32       1.0  T
   4   -209.0427282 -0.514343E-02  0.666E-02    0.41       1.0  T
   5   -209.0432325 -0.504318E-03  0.268E-02    0.38       1.0  T
   6   -209.0432722 -0.396353E-04  0.162E-02    0.38       1.0  T
   7   -209.0432968 -0.246335E-04  0.723E-03    0.38       1.3  T
   8   -209.0433026 -0.582976E-05  0.325E-03    0.38       3.0  T
   9   -209.0433037 -0.107004E-05  0.160E-03    0.38       6.1  T
     SCC iter.                  ...        0 min,  0.135 sec
     gradient                   ...        0 min,  0.025 sec
 * total energy  :  -205.6441283 Eh     change       -0.1011100E-01 Eh
   gradient norm :     0.0613871 Eh/α   predicted    -0.9499749E-02 (  -6.05%)
   displ. norm   :     0.7813829 α      lambda       -0.1138337E-01
   maximum displ.:     0.3124064 α      in ANC's #19, #42, #37, ...

........................................................................
.............................. CYCLE   25 ..............................
........................................................................
   1   -209.0309985 -0.209031E+03  0.348E-01    0.41       0.0  T
   2   -209.0301157  0.882724E-03  0.208E-01    0.45       1.0  T
   3   -209.0113365  0.187792E-01  0.386E-01    0.31       1.0  T
   4   -209.0301063 -0.187698E-01  0.965E-02    0.47       1.0  T
   5   -209.0314342 -0.132787E-02  0.296E-02    0.42       1.0  T
   6   -209.0314455 -0.113402E-04  0.234E-02    0.42       1.0  T
   7   -209.0314986 -0.530540E-04  0.104E-02    0.41       1.0  T
   8   -209.0315071 -0.854680E-05  0.537E-03    0.41       1.8  T
   9   -209.0315100 -0.290703E-05  0.262E-03    0.41       3.7  T
  10   -209.0315108 -0.715578E-06  0.121E-03    0.42       8.0  T
     SCC iter.                  ...        0 min,  0.150 sec
     gradient                   ...        0 min,  0.025 sec
 * total energy  :  -205.6529537 Eh     change       -0.8825343E-02 Eh
   gradient norm :     0.0506479 Eh/α   predicted    -0.9166799E-02 (   3.87%)
   displ. norm   :     0.8141602 α      lambda       -0.1050499E-01
   maximum displ.:     0.3288593 α      in ANC's #19, #42, #26, ...

........................................................................
.............................. CYCLE   26 ..............................
........................................................................
   1   -209.0539807 -0.209054E+03  0.353E-01    0.43       0.0  T
   2   -209.0539360  0.446648E-04  0.195E-01    0.44       1.0  T
   3   -209.0479212  0.601480E-02  0.207E-01    0.40       1.0  T
   4   -209.0538299 -0.590869E-02  0.634E-02    0.46       1.0  T
   5   -209.0541730 -0.343151E-03  0.377E-02    0.42       1.0  T
   6   -209.0542813 -0.108257E-03  0.233E-02    0.44       1.0  T
   7   -209.0543349 -0.536271E-04  0.725E-03    0.43       1.3  T
   8   -209.0543396 -0.472588E-05  0.395E-03    0.43       2.5  T
   9   -209.0543416 -0.190143E-05  0.198E-03    0.43       4.9  T
     SCC iter.                  ...        0 min,  0.130 sec
     gradient                   ...        0 min,  0.025 sec
 * total energy  :  -205.6604406 Eh     change       -0.7486905E-02 Eh
   gradient norm :     0.0539852 Eh/α   predicted    -0.8734148E-02 (  16.66%)
   displ. norm   :     0.7786255 α      lambda       -0.1007389E-01
   maximum displ.:     0.3462144 α      in ANC's #19, #42, #26, ...

........................................................................
.............................. CYCLE   27 ..............................
........................................................................
   1   -209.0652912 -0.209065E+03  0.335E-01    0.47       0.0  T
   2   -209.0634232  0.186800E-02  0.222E-01    0.54       1.0  T
   3   -209.0481445  0.152787E-01  0.362E-01    0.38       1.0  T
   4   -209.0654047 -0.172602E-01  0.702E-02    0.51       1.0  T
   5   -209.0658759 -0.471261E-03  0.299E-02    0.49       1.0  T
   6   -209.0659356 -0.596383E-04  0.191E-02    0.49       1.0  T
   7   -209.0659677 -0.321447E-04  0.821E-03    0.48       1.2  T
   8   -209.0659711 -0.339699E-05  0.456E-03    0.48       2.1  T
   9   -209.0659735 -0.237112E-05  0.211E-03    0.49       4.6  T
     SCC iter.                  ...        0 min,  0.143 sec
     gradient                   ...        0 min,  0.026 sec
 * total energy  :  -205.6686013 Eh     change       -0.8160750E-02 Eh
   gradient norm :     0.0272388 Eh/α   predicted    -0.8090632E-02 (  -0.86%)
   displ. norm   :     0.8308626 α      lambda       -0.8264365E-02
   maximum displ.:     0.3668705 α      in ANC's #19, #10, #26, ...

........................................................................
.............................. CYCLE   28 ..............................
........................................................................
   1   -209.0772310 -0.209077E+03  0.334E-01    0.51       0.0  T
   2   -209.0759744  0.125656E-02  0.213E-01    0.57       1.0  T
   3   -209.0635006  0.124739E-01  0.325E-01    0.44       1.0  T
   4   -209.0774482 -0.139476E-01  0.591E-02    0.55       1.0  T
   5   -209.0777520 -0.303831E-03  0.272E-02    0.53       1.0  T
   6   -209.0777851 -0.330617E-04  0.182E-02    0.53       1.0  T
   7   -209.0778180 -0.328727E-04  0.682E-03    0.53       1.4  T
   8   -209.0778209 -0.296187E-05  0.331E-03    0.53       3.0  T
   9   -209.0778221 -0.113593E-05  0.164E-03    0.53       6.0  T
     SCC iter.                  ...        0 min,  0.137 sec
     gradient                   ...        0 min,  0.025 sec
 * total energy  :  -205.6757429 Eh     change       -0.7141545E-02 Eh
   gradient norm :     0.0302606 Eh/α   predicted    -0.6984774E-02 (  -2.20%)
   displ. norm   :     0.8796126 α      lambda       -0.8174721E-02
   maximum displ.:     0.3810514 α      in ANC's #19, #26, #10, ...

........................................................................
.............................. CYCLE   29 ..............................
........................................................................
   1   -209.0780230 -0.209078E+03  0.342E-01    0.55       0.0  T
   2   -209.0775074  0.515651E-03  0.204E-01    0.59       1.0  T
   3   -209.0680210  0.948641E-02  0.275E-01    0.49       1.0  T
   4   -209.0782378 -0.102168E-01  0.532E-02    0.58       1.0  T
   5   -209.0784648 -0.227026E-03  0.227E-02    0.57       1.0  T
   6   -209.0784701 -0.529059E-05  0.176E-02    0.57       1.0  T
   7   -209.0785042 -0.340777E-04  0.557E-03    0.57       1.8  T
   8   -209.0785066 -0.247286E-05  0.254E-03    0.57       3.8  T
   9   -209.0785071 -0.478336E-06  0.160E-03    0.57       6.1  T
     SCC iter.                  ...        0 min,  0.132 sec
     gradient                   ...        0 min,  0.025 sec
 * total energy  :  -205.6823549 Eh     change       -0.6612037E-02 Eh
   gradient norm :     0.0483047 Eh/α   predicted    -0.7249829E-02 (   9.65%)
   displ. norm   :     0.8243074 α      lambda       -0.8047579E-02
   maximum displ.:     0.3705972 α      in ANC's #19, #10, #25, ...

........................................................................
.............................. CYCLE   30 ..............................
........................................................................
   1   -209.1143161 -0.209114E+03  0.304E-01    0.58       0.0  T
   2   -209.1136683  0.647830E-03  0.192E-01    0.62       1.0  T
   3   -209.1073962  0.627204E-02  0.241E-01    0.54       1.0  T
   4   -209.1146757 -0.727947E-02  0.453E-02    0.60       1.0  T
   5   -209.1148261 -0.150431E-03  0.194E-02    0.59       1.0  T
   6   -209.1148321 -0.592139E-05  0.135E-02    0.60       1.0  T
   7   -209.1148492 -0.171290E-04  0.592E-03    0.59       1.6  T
   8   -209.1148527 -0.346066E-05  0.218E-03    0.59       4.5  T
   9   -209.1148529 -0.233625E-06  0.167E-03    0.59       5.8  T
     SCC iter.                  ...        0 min,  0.137 sec
     gradient                   ...        0 min,  0.025 sec
 * total energy  :  -205.6886423 Eh     change       -0.6287433E-02 Eh
   gradient norm :     0.0320975 Eh/α   predicted    -0.6757887E-02 (   7.48%)
   displ. norm   :     0.8584356 α      lambda       -0.7542864E-02
   maximum displ.:     0.3876118 α      in ANC's #19, #26, #10, ...

........................................................................
.............................. CYCLE   31 ..............................
........................................................................
   1   -209.1076665 -0.209108E+03  0.326E-01    0.62       0.0  T
   2   -209.1075082  0.158290E-03  0.188E-01    0.64       1.0  T
   3   -209.1030860  0.442219E-02  0.209E-01    0.60       1.0  T
   4   -209.1078587 -0.477277E-02  0.428E-02    0.63       1.0  T
   5   -209.1080229 -0.164165E-03  0.200E-02    0.62       1.0  T
   6   -209.1080464 -0.235042E-04  0.944E-03    0.63       1.0  T
   7   -209.1080526 -0.623953E-05  0.351E-03    0.63       2.8  T
   8   -209.1080534 -0.774258E-06  0.257E-03    0.63       3.8  T
   9   -209.1080540 -0.546132E-06  0.131E-03    0.63       7.4  T
     SCC iter.                  ...        0 min,  0.133 sec
     gradient                   ...        0 min,  0.025 sec
 * total energy  :  -205.6939947 Eh     change       -0.5352357E-02 Eh
   gradient norm :     0.0453659 Eh/α   predicted    -0.6550651E-02 (  22.39%)
   displ. norm   :     0.7904437 α      lambda       -0.7353469E-02
   maximum displ.:     0.3485164 α      in ANC's #19, #9, #10, ...

........................................................................
.............................. CYCLE   32 ..............................
........................................................................
   1   -209.0950087 -0.209095E+03  0.288E-01    0.64       0.0  T
   2   -209.0949301  0.785794E-04  0.163E-01    0.66       1.0  T
   3   -209.0916315  0.329861E-02  0.171E-01    0.62       1.0  T
   4   -209.0951510 -0.351957E-02  0.335E-02    0.65       1.0  T
   5   -209.0952398 -0.887624E-04  0.160E-02    0.65       1.0  T
   6   -209.0952470 -0.722694E-05  0.811E-03    0.65       1.2  T
   7   -209.0952528 -0.573623E-05  0.360E-03    0.65       2.7  T
   8   -209.0952542 -0.138103E-05  0.188E-03    0.65       5.2  T
     SCC iter.                  ...        0 min,  0.113 sec
     gradient                   ...        0 min,  0.025 sec
 * total energy  :  -205.6996798 Eh     change       -0.5685133E-02 Eh
   gradient norm :     0.0337414 Eh/α   predicted    -0.5973970E-02 (   5.08%)
   displ. norm   :     0.7833436 α      lambda       -0.7049166E-02
   maximum displ.:     0.3174928 α      in ANC's #19, #10, #9, ...

........................................................................
.............................. CYCLE   33 ..............................
........................................................................
   1   -209.1322968 -0.209132E+03  0.250E-01    0.66       0.0  T
   2   -209.1320175  0.279247E-03  0.155E-01    0.71       1.0  T
   3   -209.1293079  0.270965E-02  0.161E-01    0.64       1.0  T
   4   -209.1326106 -0.330272E-02  0.359E-02    0.68       1.0  T
   5   -209.1327047 -0.941423E-04  0.180E-02    0.69       1.0  T
   6   -209.1327248 -0.200884E-04  0.961E-03    0.68       1.0  T
   7   -209.1327310 -0.613659E-05  0.432E-03    0.68       2.3  T
   8   -209.1327325 -0.157107E-05  0.211E-03    0.68       4.6  T
   9   -209.1327329 -0.335051E-06  0.115E-03    0.68       8.4  T
     SCC iter.                  ...        0 min,  0.128 sec
     gradient                   ...        0 min,  0.025 sec
 * total energy  :  -205.7047566 Eh     change       -0.5076814E-02 Eh
   gradient norm :     0.0425226 Eh/α   predicted    -0.5687378E-02 (  12.03%)
   displ. norm   :     0.8274000 α      lambda       -0.7127495E-02
   maximum displ.:     0.3543076 α      in ANC's #19, #10, #25, ...

........................................................................
.............................. CYCLE   34 ..............................
........................................................................
   1   -209.1189370 -0.209119E+03  0.308E-01    0.70       0.0  T
   2   -209.1189139  0.231510E-04  0.178E-01    0.72       1.0  T
   3   -209.1164352  0.247865E-02  0.160E-01    0.69       1.0  T
   4   -209.1191132 -0.267792E-02  0.316E-02    0.71       1.0  T
   5   -209.1191804 -0.672248E-04  0.176E-02    0.71       1.0  T
   6   -209.1191926 -0.122069E-04  0.119E-02    0.71       1.0  T
   7   -209.1192063 -0.136815E-04  0.372E-03    0.71       2.6  T
   8   -209.1192071 -0.789312E-06  0.178E-03    0.71       5.5  T
   9   -209.1192072 -0.123593E-06  0.106E-03    0.71       9.2  T
     SCC iter.                  ...        0 min,  0.131 sec
     gradient                   ...        0 min,  0.025 sec
 * total energy  :  -205.7102558 Eh     change       -0.5499126E-02 Eh
   gradient norm :     0.0444071 Eh/α   predicted    -0.6003463E-02 (   9.17%)
   displ. norm   :     0.7982003 α      lambda       -0.7281799E-02
   maximum displ.:     0.3098103 α      in ANC's #19, #9, #10, ...

........................................................................
.............................. CYCLE   35 ..............................
........................................................................
   1   -209.1323060 -0.209132E+03  0.307E-01    0.72       0.0  T
   2   -209.1323952 -0.891684E-04  0.176E-01    0.73       1.0  T
   3   -209.1310311  0.136403E-02  0.130E-01    0.73       1.0  T
   4   -209.1325004 -0.146930E-02  0.312E-02    0.74       1.0  T
   5   -209.1325745 -0.741089E-04  0.169E-02    0.73       1.0  T
   6   -209.1325893 -0.147115E-04  0.103E-02    0.73       1.0  T
   7   -209.1325985 -0.922552E-05  0.423E-03    0.73       2.3  T
   8   -209.1326002 -0.167523E-05  0.180E-03    0.73       5.4  T
   9   -209.1326003 -0.170753E-06  0.874E-04    0.73      11.2  T
     SCC iter.                  ...        0 min,  0.132 sec
     gradient                   ...        0 min,  0.025 sec
 * total energy  :  -205.7145026 Eh     change       -0.4246840E-02 Eh
   gradient norm :     0.0686076 Eh/α   predicted    -0.5960604E-02 (  40.35%)
   displ. norm   :     0.7442277 α      lambda       -0.7109827E-02
   maximum displ.:     0.2651861 α      in ANC's #19, #10, #26, ...

........................................................................
.............................. CYCLE   36 ..............................
........................................................................
   1   -209.1182121 -0.209118E+03  0.266E-01    0.74       0.0  T
   2   -209.1182304 -0.182632E-04  0.153E-01    0.75       1.0  T
   3   -209.1166926  0.153777E-02  0.134E-01    0.75       1.0  T
   4   -209.1183548 -0.166216E-02  0.306E-02    0.75       1.0  T
   5   -209.1184379 -0.831192E-04  0.160E-02    0.76       1.0  T
   6   -209.1184571 -0.192129E-04  0.768E-03    0.75       1.3  T
   7   -209.1184616 -0.452811E-05  0.305E-03    0.75       3.2  T
   8   -209.1184624 -0.788897E-06  0.144E-03    0.75       6.8  T
     SCC iter.                  ...        0 min,  0.119 sec
     gradient                   ...        0 min,  0.025 sec
 * total energy  :  -205.7192295 Eh     change       -0.4726927E-02 Eh
   gradient norm :     0.0494747 Eh/α   predicted    -0.5523891E-02 (  16.86%)
   displ. norm   :     0.6797436 α      lambda       -0.6922700E-02
   maximum displ.:     0.2725988 α      in ANC's #19, #10, #9, ...

........................................................................
.............................. CYCLE   37 ..............................
........................................................................
   1   -209.1215849 -0.209122E+03  0.235E-01    0.76       0.0  T
   2   -209.1215234  0.615073E-04  0.142E-01    0.79       1.0  T
   3   -209.1200029  0.152054E-02  0.124E-01    0.76       1.0  T
   4   -209.1218535 -0.185061E-02  0.248E-02    0.78       1.0  T
   5   -209.1218959 -0.424200E-04  0.127E-02    0.78       1.0  T
   6   -209.1218988 -0.290050E-05  0.845E-03    0.78       1.2  T
   7   -209.1219049 -0.608308E-05  0.378E-03    0.78       2.6  T
   8   -209.1219065 -0.156138E-05  0.179E-03    0.78       5.4  T
   9   -209.1219066 -0.133965E-06  0.763E-04    0.78      12.8  T
     SCC iter.                  ...        0 min,  0.132 sec
     gradient                   ...        0 min,  0.025 sec
 * total energy  :  -205.7228274 Eh     change       -0.3597814E-02 Eh
   gradient norm :     0.0594683 Eh/α   predicted    -0.5060675E-02 (  40.66%)
   displ. norm   :     0.6642149 α      lambda       -0.6985263E-02
   maximum displ.:     0.2441906 α      in ANC's #19, #10, #9, ...

........................................................................
.............................. CYCLE   38 ..............................
........................................................................
   1   -209.1562677 -0.209156E+03  0.226E-01    0.79       0.0  T
   2   -209.1562688 -0.115264E-05  0.136E-01    0.80       1.0  T
   3   -209.1551877  0.108112E-02  0.114E-01    0.80       1.0  T
   4   -209.1565057 -0.131795E-02  0.228E-02    0.80       1.0  T
   5   -209.1565439 -0.382357E-04  0.102E-02    0.80       1.0  T
   6   -209.1565479 -0.398965E-05  0.524E-03    0.80       1.9  T
   7   -209.1565487 -0.816973E-06  0.325E-03    0.80       3.0  T
     SCC iter.                  ...        0 min,  0.104 sec
     gradient                   ...        0 min,  0.025 sec
 * total energy  :  -205.7266765 Eh     change       -0.3849183E-02 Eh
   gradient norm :     0.0548442 Eh/α   predicted    -0.5033517E-02 (  30.77%)
   displ. norm   :     0.6969589 α      lambda       -0.6905323E-02
   maximum displ.:     0.2264986 α      in ANC's #19, #10, #26, ...

........................................................................
.............................. CYCLE   39 ..............................
........................................................................
   1   -209.1398383 -0.209140E+03  0.266E-01    0.79       0.0  T
   2   -209.1399078 -0.695218E-04  0.158E-01    0.79       1.0  T
   3   -209.1389538  0.953974E-03  0.122E-01    0.83       1.0  T
   4   -209.1398468 -0.892934E-03  0.478E-02    0.80       1.0  T
   5   -209.1401105 -0.263764E-03  0.174E-02    0.81       1.0  T
   6   -209.1401355 -0.249734E-04  0.895E-03    0.80       1.1  T
   7   -209.1401382 -0.272663E-05  0.340E-03    0.80       2.9  T
   8   -209.1401393 -0.105911E-05  0.180E-03    0.80       5.4  T
     SCC iter.                  ...        0 min,  0.120 sec
     gradient                   ...        0 min,  0.025 sec
 * total energy  :  -205.7300937 Eh     change       -0.3417139E-02 Eh
   gradient norm :     0.0602278 Eh/α   predicted    -0.5129796E-02 (  50.12%)
   displ. norm   :     0.6494880 α      lambda       -0.5671816E-02
   maximum displ.:     0.2196234 α      in ANC's #19, #10, #9, ...

........................................................................
.............................. CYCLE   40 ..............................
........................................................................
   1   -209.1274160 -0.209127E+03  0.223E-01    0.81       0.0  T
   2   -209.1274851 -0.690689E-04  0.131E-01    0.80       1.0  T
   3   -209.1270264  0.458679E-03  0.862E-02    0.82       1.0  T
   4   -209.1275149 -0.488491E-03  0.327E-02    0.81       1.0  T
   5   -209.1276267 -0.111774E-03  0.113E-02    0.81       1.0  T
   6   -209.1276306 -0.390721E-05  0.905E-03    0.81       1.1  T
   7   -209.1276369 -0.626258E-05  0.340E-03    0.81       2.9  T
   8   -209.1276379 -0.996186E-06  0.137E-03    0.81       7.1  T
   9   -209.1276380 -0.102497E-06  0.750E-04    0.81      13.0  T
     SCC iter.                  ...        0 min,  0.128 sec
     gradient                   ...        0 min,  0.025 sec
 * total energy  :  -205.7338452 Eh     change       -0.3751488E-02 Eh
   gradient norm :     0.0464116 Eh/α   predicted    -0.4032205E-02 (   7.48%)
   displ. norm   :     0.5919902 α      lambda       -0.6421005E-02
   maximum displ.:     0.1931687 α      in ANC's #10, #6, #4, ...

........................................................................
.............................. CYCLE   41 ..............................
........................................................................
   1   -209.2051394 -0.209205E+03  0.203E-01    0.85       0.0  T
   2   -209.2050952  0.442341E-04  0.128E-01    0.85       1.0  T
   3   -209.2043540  0.741207E-03  0.102E-01    0.84       1.0  T
   4   -209.2054141 -0.106017E-02  0.278E-02    0.84       1.0  T
   5   -209.2054890 -0.748264E-04  0.159E-02    0.84       1.0  T
   6   -209.2055081 -0.191639E-04  0.808E-03    0.84       1.2  T
   7   -209.2055114 -0.331233E-05  0.382E-03    0.84       2.6  T
   8   -209.2055128 -0.138033E-05  0.165E-03    0.84       5.9  T
     SCC iter.                  ...        0 min,  0.113 sec
     gradient                   ...        0 min,  0.026 sec
 * total energy  :  -205.7336617 Eh     change        0.1834623E-03 Eh
   gradient norm :     0.0915373 Eh/α   predicted    -0.4335627E-02 (*******%)
   displ. norm   :     0.4775669 α      lambda       -0.9684733E-02
   maximum displ.:     0.1822526 α      in ANC's #19, #9, #10, ...

........................................................................
.............................. CYCLE   42 ..............................
........................................................................
   1   -209.1706762 -0.209171E+03  0.219E-01    0.80       0.0  T
   2   -209.1708124 -0.136212E-03  0.136E-01    0.83       1.0  T
   3   -209.1702998  0.512631E-03  0.914E-02    0.83       1.0  T
   4   -209.1708275 -0.527731E-03  0.355E-02    0.83       1.0  T
   5   -209.1709631 -0.135553E-03  0.131E-02    0.83       1.0  T
   6   -209.1709745 -0.114542E-04  0.756E-03    0.83       1.3  T
   7   -209.1709775 -0.294701E-05  0.398E-03    0.83       2.5  T
   8   -209.1709790 -0.150038E-05  0.163E-03    0.83       6.0  T
     SCC iter.                  ...        0 min,  0.113 sec
     gradient                   ...        0 min,  0.025 sec
 * total energy  :  -205.7380173 Eh     change       -0.4355646E-02 Eh
   gradient norm :     0.0640861 Eh/α   predicted    -0.5946766E-02 (  36.53%)
   displ. norm   :     0.5145370 α      lambda       -0.7854977E-02
   maximum displ.:     0.2238534 α      in ANC's #15, #6, #19, ...
 * RMSD in coord.:     1.3760545 α      energy gain  -0.1319700E+00 Eh

generating ANC from model Hessian ...
Using Lindh-Hessian (1995)
 Shifting diagonal of input Hessian by   5.008356802672156E-003
 Lowest  eigenvalues of input Hessian
    0.005000   -0.000000   -0.000000   -0.000000    0.000000    0.000000
    0.000000    0.005016    0.005022    0.005046    0.005070    0.005091
    0.005162    0.005227    0.005325    0.005380    0.005421    0.005521
 Highest eigenvalues
    2.505314    2.613715    2.632013    2.635464    2.640177    2.658297
 

........................................................................
.............................. CYCLE   43 ..............................
........................................................................
   1   -209.1068582 -0.209107E+03  0.289E-01    0.81       0.0  T
   2   -209.1069554 -0.972060E-04  0.171E-01    0.79       1.0  T
   3   -209.1056325  0.132295E-02  0.137E-01    0.82       1.0  T
   4   -209.1070810 -0.144851E-02  0.407E-02    0.81       1.0  T
   5   -209.1072586 -0.177624E-03  0.228E-02    0.81       1.0  T
   6   -209.1073028 -0.442110E-04  0.109E-02    0.81       1.0  T
   7   -209.1073089 -0.611045E-05  0.456E-03    0.81       2.1  T
   8   -209.1073107 -0.178152E-05  0.251E-03    0.81       3.9  T
   9   -209.1073112 -0.478923E-06  0.117E-03    0.81       8.3  T
  10   -209.1073113 -0.107825E-06  0.610E-04    0.81      16.0  T
  11   -209.1073113 -0.213588E-07  0.232E-04    0.81      42.1  T
     SCC iter.                  ...        0 min,  0.155 sec
     gradient                   ...        0 min,  0.026 sec
 * total energy  :  -205.7359415 Eh     change        0.2075799E-02 Eh
   gradient norm :     0.1219520 Eh/α   predicted     0.0000000E+00 (-100.00%)
   displ. norm   :     0.3694079 α      lambda       -0.1354046E-01
   maximum displ.:     0.1528870 α      in ANC's #21, #19, #42, ...

........................................................................
.............................. CYCLE   44 ..............................
........................................................................
   1   -209.1634567 -0.209163E+03  0.223E-01    0.84       0.0  T
   2   -209.1635521 -0.954191E-04  0.131E-01    0.84       1.0  T
   3   -209.1630745  0.477551E-03  0.828E-02    0.83       1.0  T
   4   -209.1635495 -0.474909E-03  0.323E-02    0.83       1.0  T
   5   -209.1636732 -0.123712E-03  0.114E-02    0.83       1.0  T
   6   -209.1636799 -0.675401E-05  0.724E-03    0.83       1.3  T
   7   -209.1636825 -0.261368E-05  0.350E-03    0.83       2.8  T
   8   -209.1636833 -0.775910E-06  0.148E-03    0.83       6.6  T
     SCC iter.                  ...        0 min,  0.114 sec
     gradient                   ...        0 min,  0.025 sec
 * total energy  :  -205.7431905 Eh     change       -0.7248925E-02 Eh
   gradient norm :     0.0324384 Eh/α   predicted    -0.7694129E-02 (   6.14%)
   displ. norm   :     0.4427389 α      lambda       -0.3648695E-02
   maximum displ.:     0.1736221 α      in ANC's #21, #19, #20, ...

........................................................................
.............................. CYCLE   45 ..............................
........................................................................
   1   -209.1735942 -0.209174E+03  0.229E-01    0.84       0.0  T
   2   -209.1736130 -0.188507E-04  0.131E-01    0.84       1.0  T
   3   -209.1724849  0.112815E-02  0.103E-01    0.82       1.0  T
   4   -209.1737154 -0.123058E-02  0.166E-02    0.84       1.0  T
   5   -209.1737364 -0.209453E-04  0.966E-03    0.84       1.0  T
   6   -209.1737392 -0.280955E-05  0.572E-03    0.84       1.7  T
   7   -209.1737419 -0.270667E-05  0.219E-03    0.84       4.5  T
     SCC iter.                  ...        0 min,  0.103 sec
     gradient                   ...        0 min,  0.025 sec
 * total energy  :  -205.7452342 Eh     change       -0.2043681E-02 Eh
   gradient norm :     0.0280716 Eh/α   predicted    -0.2181953E-02 (   6.77%)
   displ. norm   :     0.6502083 α      lambda       -0.5115054E-02
   maximum displ.:     0.3167098 α      in ANC's #21, #19, #20, ...

........................................................................
.............................. CYCLE   46 ..............................
........................................................................
   1   -209.1678564 -0.209168E+03  0.269E-01    0.84       0.0  T
   2   -209.1679014 -0.450107E-04  0.152E-01    0.85       1.0  T
   3   -209.1667999  0.110155E-02  0.102E-01    0.83       1.0  T
   4   -209.1679718 -0.117190E-02  0.221E-02    0.84       1.0  T
   5   -209.1680133 -0.415067E-04  0.106E-02    0.84       1.0  T
   6   -209.1680160 -0.269224E-05  0.634E-03    0.84       1.5  T
   7   -209.1680202 -0.424934E-05  0.276E-03    0.84       3.5  T
   8   -209.1680208 -0.609257E-06  0.116E-03    0.84       8.4  T
     SCC iter.                  ...        0 min,  0.117 sec
     gradient                   ...        0 min,  0.025 sec
 * total energy  :  -205.7482006 Eh     change       -0.2966425E-02 Eh
   gradient norm :     0.0460163 Eh/α   predicted    -0.3638780E-02 (  22.67%)
   displ. norm   :     0.5250277 α      lambda       -0.3654232E-02
   maximum displ.:     0.2230128 α      in ANC's #21, #19, #20, ...

........................................................................
.............................. CYCLE   47 ..............................
........................................................................
   1   -209.1620878 -0.209162E+03  0.193E-01    0.84       0.0  T
   2   -209.1621091 -0.213568E-04  0.111E-01    0.84       1.0  T
   3   -209.1614817  0.627454E-03  0.737E-02    0.84       1.0  T
   4   -209.1621637 -0.682006E-03  0.102E-02    0.84       1.0  T
   5   -209.1621690 -0.532770E-05  0.687E-03    0.84       1.4  T
   6   -209.1621707 -0.164866E-05  0.260E-03    0.84       3.8  T
   7   -209.1621712 -0.579811E-06  0.124E-03    0.84       7.9  T
     SCC iter.                  ...        0 min,  0.104 sec
     gradient                   ...        0 min,  0.025 sec
 * total energy  :  -205.7508288 Eh     change       -0.2628175E-02 Eh
   gradient norm :     0.0470755 Eh/α   predicted    -0.2330775E-02 ( -11.32%)
   displ. norm   :     0.6488789 α      lambda       -0.4571941E-02
   maximum displ.:     0.2567084 α      in ANC's #21, #19, #7, ...

........................................................................
.............................. CYCLE   48 ..............................
........................................................................
   1   -209.1745472 -0.209175E+03  0.234E-01    0.82       0.0  T
   2   -209.1746155 -0.682868E-04  0.133E-01    0.83       1.0  T
   3   -209.1740131  0.602378E-03  0.713E-02    0.82       1.0  T
   4   -209.1746782 -0.665088E-03  0.131E-02    0.83       1.0  T
   5   -209.1746871 -0.897192E-05  0.943E-03    0.83       1.0  T
   6   -209.1746936 -0.645826E-05  0.418E-03    0.83       2.3  T
   7   -209.1746939 -0.263393E-06  0.317E-03    0.83       3.1  T
   8   -209.1746950 -0.112283E-05  0.104E-03    0.83       9.4  T
     SCC iter.                  ...        0 min,  0.116 sec
     gradient                   ...        0 min,  0.025 sec
 * total energy  :  -205.7526111 Eh     change       -0.1782367E-02 Eh
   gradient norm :     0.0571579 Eh/α   predicted    -0.3248466E-02 (  82.26%)
   displ. norm   :     0.6039182 α      lambda       -0.5778123E-02
   maximum displ.:     0.2758099 α      in ANC's #21, #19, #20, ...

........................................................................
.............................. CYCLE   49 ..............................
........................................................................
   1   -209.1578238 -0.209158E+03  0.260E-01    0.82       0.0  T
   2   -209.1579396 -0.115771E-03  0.148E-01    0.83       1.0  T
   3   -209.1573075  0.632071E-03  0.781E-02    0.82       1.0  T
   4   -209.1579566 -0.649141E-03  0.236E-02    0.83       1.0  T
   5   -209.1580215 -0.648507E-04  0.112E-02    0.82       1.0  T
   6   -209.1580289 -0.744669E-05  0.554E-03    0.82       1.8  T
   7   -209.1580291 -0.159966E-06  0.366E-03    0.82       2.7  T
   8   -209.1580306 -0.149485E-05  0.163E-03    0.82       6.0  T
     SCC iter.                  ...        0 min,  0.118 sec
     gradient                   ...        0 min,  0.025 sec
 * total energy  :  -205.7551883 Eh     change       -0.2577143E-02 Eh
   gradient norm :     0.0595773 Eh/α   predicted    -0.3942756E-02 (  52.99%)
   displ. norm   :     0.5006426 α      lambda       -0.4097790E-02
[...]
    20   6 C      2.917    -0.014    28.357     8.732
    21   6 C      2.983     0.021    27.521     8.605
    22   6 C      3.082    -0.038    28.843     8.804
    23   6 C      3.023    -0.067    29.645     8.931
    24   6 C      3.106     0.012    27.611     8.610
    25  16 S      2.322     0.080   137.835    19.760
    26   6 C      3.107     0.014    27.555     8.601
    27   6 C      3.034    -0.066    29.597     8.923
    28  32 Ge     3.697     0.175   168.281    23.293
    29   6 C      3.660    -0.149    23.696     6.985
    30   6 C      3.660    -0.149    23.692     6.984
    31   6 C      3.070    -0.045    29.041     8.836
    32   6 C      3.024     0.020    27.531     8.607
    33  16 S      2.275     0.059   138.686    19.821
    34   6 C      3.018     0.007    27.848     8.656
    35   6 C      3.153     0.069    26.172     8.367
    36   6 C      3.137     0.068    26.258     8.387
    37   7 N      1.842    -0.199    26.144     7.578
    38   6 C      2.963     0.061    26.627     8.464
    39   6 C      2.827     0.225    23.283     7.907
    40   8 O      0.858    -0.330    20.334     6.046
    41   6 C      2.895    -0.043    29.068     8.840
    42   6 C      2.896    -0.042    29.031     8.834
    43   6 C      2.826     0.224    23.287     7.907
    44   8 O      0.858    -0.319    20.119     6.014
    45   6 C      2.965     0.061    26.627     8.464
    46   7 N      1.850    -0.191    25.957     7.551
    47   6 C      3.005     0.006    27.872     8.660
    48  16 S      2.342     0.033   139.720    19.894
    49   6 C      3.023     0.028    27.355     8.579
    50   6 C      3.071    -0.042    28.965     8.825
    51   6 C      3.042    -0.062    29.497     8.908
    52   6 C      3.102     0.021    27.400     8.577
    53  16 S      2.279    -0.010   141.488    20.020
    54   6 C      3.101     0.028    27.246     8.554
    55   6 C      3.041    -0.068    29.658     8.932
    56  32 Ge     3.699     0.180   168.176    23.285
    57   6 C      3.660    -0.147    23.656     6.979
    58   6 C      3.660    -0.148    23.674     6.982
    59   6 C      3.080    -0.027    28.596     8.767
    60   6 C      2.984     0.025    27.442     8.593
    61  16 S      2.297     0.015   140.448    19.946
    62   6 C      2.952    -0.012    28.319     8.728
    63   6 C      3.009    -0.039    28.948     8.826
    64   6 C      2.875     0.225    23.287     7.911
    65   8 O      0.856    -0.356    20.820     6.118
    66   6 C      3.040    -0.011    28.247     8.717
    67   6 C      2.919    -0.008    28.209     8.710
    68   6 C      2.981     0.032    27.269     8.566
    69   6 C      2.980     0.035    27.209     8.556
    70   6 C      2.920    -0.020    28.518     8.757
    71   6 C      3.035     0.014    27.659     8.626
    72   6 C      3.019     0.029    27.343     8.577
    73   6 C      2.947     0.006    27.896     8.663
    74   6 C      1.932     0.119    28.162     8.570
    75   7 N      0.911    -0.229    26.011     7.376
    76   6 C      1.933     0.124    28.052     8.553
    77   7 N      0.911    -0.232    26.087     7.387
    78   6 C      1.911     0.116    28.251     8.584
    79   7 N      0.911    -0.194    25.204     7.261
    80   6 C      1.910     0.116    28.254     8.584
    81   7 N      0.911    -0.197    25.275     7.271
    82   1 H      0.926     0.068     2.104     2.268
    83   1 H      0.926     0.073     2.057     2.243
    84   1 H      0.925     0.069     2.093     2.262
    85   1 H      0.926     0.056     2.244     2.343
    86   1 H      0.925     0.069     2.098     2.265
    87   1 H      0.925     0.066     2.132     2.283
    88   1 H      0.925     0.067     2.123     2.279
    89   1 H      0.925     0.070     2.081     2.256
    90   1 H      0.925     0.067     2.117     2.275
    91   1 H      0.925     0.066     2.135     2.285
    92   1 H      0.926     0.052     2.297     2.370
    93   1 H      0.925     0.081     1.969     2.194
    94   1 H      0.925     0.082     1.955     2.187
    95   1 H      0.926     0.088     1.896     2.153
    96   1 H      0.925     0.077     2.006     2.215
    97   1 H      0.925     0.069     2.098     2.265
    98   1 H      0.925     0.072     2.067     2.248
    99   1 H      0.925     0.070     2.082     2.256
   100   1 H      0.925     0.075     2.032     2.229
   101   1 H      0.925     0.066     2.130     2.282
   102   1 H      0.926     0.043     2.406     2.426
   103   1 H      0.925     0.082     1.961     2.190
   104   1 H      0.926     0.073     2.054     2.241
   105   1 H      0.926     0.066     2.130     2.282

 Mol. C6AA /au·bohr⁶  :     251626.995539
 Mol. C8AA /au·bohr⁸  :    7760218.849858
 Mol. α(0) /au        :        808.228558


Wiberg/Mayer (AO) data.
largest (>0.10) Wiberg bond orders for each atom
          total WBO             WBO to atom ...
     1  C   3.961        C    2 1.414    C   10 1.290    C   14 1.074
     2  C   3.973        C    1 1.414    C    3 1.365    H   82 0.958
     3  C   3.981        C    2 1.365    C    6 1.297    C    4 1.091
     4  C   3.950        N    5 2.817    C    3 1.091
     5  N   2.988        C    4 2.817
     6  C   3.975        C    9 1.355    C    3 1.297    C    7 1.094
     7  C   3.949        N    8 2.812    C    6 1.094
     8  N   2.984        C    7 2.812
     9  C   3.978        C   10 1.435    C    6 1.355    H   83 0.963
    10  C   3.956        C    9 1.435    C    1 1.290    C   11 1.009
    11  C   3.918        O   12 1.718    C   13 1.076    C   10 1.009
    12  O   2.113        C   11 1.718    S   25 0.121
    13  C   3.945        C   20 1.458    C   14 1.154    C   11 1.076
    14  C   3.968        C   15 1.482    C   13 1.154    C    1 1.074
    15  C   3.936        C   14 1.482    C   18 1.097    C   16 1.095
    16  C   3.946        N   17 2.767    C   15 1.095
    17  N   2.968        C   16 2.767
    18  C   3.945        N   19 2.756    C   15 1.097
    19  N   2.964        C   18 2.756
    20  C   3.942        C   13 1.458    C   21 1.333    H   84 0.939
    21  C   3.922        C   20 1.333    C   22 1.312    S   25 1.114
    22  C   3.964        C   23 1.484    C   21 1.312    H   85 0.960
    23  C   3.927        C   22 1.484    C   24 1.305    Ge  28 0.819
    24  C   3.938        C   23 1.305    C   26 1.233    S   25 1.217
    25  S   2.770        C   24 1.217    C   21 1.114    O   12 0.121
    26  C   3.909        C   27 1.345    C   24 1.233    S   33 1.171
    27  C   3.924        C   31 1.427    C   26 1.345    Ge  28 0.817
    28  Ge  3.636        C   30 0.890    C   29 0.889    C   23 0.819    C   27 0.817
    29  C   3.978        H   86 0.963    H   88 0.963    H   87 0.963    Ge  28 0.889
    30  C   3.977        H   91 0.963    H   89 0.963    H   90 0.963    Ge  28 0.890
    31  C   3.945        C   27 1.427    C   32 1.371    H   92 0.959
    32  C   3.923        C   31 1.371    C   34 1.248    S   33 1.131
    33  S   2.653        C   26 1.171    C   32 1.131
    34  C   3.903        C   35 1.280    C   32 1.248    S   48 1.143
    35  C   3.964        N   46 1.330    C   34 1.280    C   36 1.130
    36  C   3.962        N   37 1.327    C   47 1.275    C   35 1.130
    37  N   3.076        C   38 1.488    C   36 1.327
    38  C   3.948        N   37 1.488    C   45 1.195    C   39 1.009
    39  C   3.927        O   40 1.783    C   41 1.048    C   38 1.009
    40  O   2.032        C   39 1.783
    41  C   3.970        C   42 1.800    C   39 1.048    H   93 0.961
    42  C   3.969        C   41 1.800    C   43 1.044    H   94 0.960
    43  C   3.927        O   44 1.792    C   42 1.044    C   45 1.008
    44  O   2.039        C   43 1.792
    45  C   3.942        N   46 1.485    C   38 1.195    C   43 1.008
    46  N   3.101        C   45 1.485    C   35 1.330
    47  C   3.905        C   36 1.275    C   49 1.252    S   48 1.142
    48  S   2.618        C   34 1.143    C   47 1.142
    49  C   3.919        C   50 1.371    C   47 1.252    S   53 1.118
    50  C   3.954        C   51 1.422    C   49 1.371    H   95 0.948
    51  C   3.928        C   50 1.422    C   52 1.353    Ge  56 0.812
    52  C   3.903        C   51 1.353    C   54 1.238    S   53 1.147
    53  S   2.574        C   52 1.147    C   49 1.118
    54  C   3.925        C   55 1.332    C   52 1.238    S   61 1.186
    55  C   3.926        C   59 1.449    C   54 1.332    Ge  56 0.810
    56  Ge  3.633        C   57 0.894    C   58 0.890    C   51 0.812    C   55 0.810
    57  C   3.976        H   97 0.962    H   98 0.962    H   96 0.960    Ge  56 0.894
    58  C   3.978        H  101 0.963    H   99 0.962    H  100 0.961    Ge  56 0.890
    59  C   3.975        C   55 1.449    C   60 1.349    H  102 0.957
    60  C   3.912        C   59 1.349    C   62 1.301    S   61 1.099
    61  S   2.600        C   54 1.186    C   60 1.099
    62  C   3.940        C   63 1.482    C   60 1.301    H  103 0.950
    63  C   3.942        C   62 1.482    C   72 1.165    C   64 1.027
    64  C   3.921        O   65 1.778    C   63 1.027    C   66 1.002
    65  O   2.053        C   64 1.778
    66  C   3.954        C   67 1.436    C   71 1.289    C   64 1.002
    67  C   3.979        C   66 1.436    C   68 1.354    H  104 0.963
    68  C   3.976        C   67 1.354    C   69 1.299    C   80 1.093
    69  C   3.982        C   70 1.363    C   68 1.299    C   78 1.091
    70  C   3.975        C   71 1.417    C   69 1.363    H  105 0.960
    71  C   3.963        C   70 1.417    C   66 1.289    C   72 1.068
    72  C   3.972        C   73 1.467    C   63 1.165    C   71 1.068
    73  C   3.952        C   72 1.467    C   76 1.102    C   74 1.101
    74  C   3.947        N   75 2.766    C   73 1.101
    75  N   2.966        C   74 2.766
    76  C   3.946        N   77 2.763    C   73 1.102
    77  N   2.980        C   76 2.763
    78  C   3.950        N   79 2.817    C   69 1.091
    79  N   2.988        C   78 2.817
    80  C   3.949        N   81 2.813    C   68 1.093
    81  N   2.984        C   80 2.813
    82  H   0.994        C    2 0.958
    83  H   0.993        C    9 0.963
    84  H   0.994        C   20 0.939
    85  H   0.996        C   22 0.960
    86  H   0.995        C   29 0.963
    87  H   0.995        C   29 0.963
    88  H   0.995        C   29 0.963
    89  H   0.995        C   30 0.963
    90  H   0.995        C   30 0.963
    91  H   0.995        C   30 0.963
    92  H   0.997        C   31 0.959
    93  H   0.993        C   41 0.961
    94  H   0.993        C   42 0.960
    95  H   0.992        C   50 0.948
    96  H   0.994        C   57 0.960
    97  H   0.994        C   57 0.962
    98  H   0.994        C   57 0.962
    99  H   0.995        C   58 0.962
   100  H   0.994        C   58 0.961
   101  H   0.995        C   58 0.963
   102  H   0.997        C   59 0.957
   103  H   0.991        C   62 0.950
   104  H   0.993        C   67 0.963
   105  H   0.994        C   70 0.960

molecular dipole:
                 x           y           z       tot (Debye)
 q only:       -0.710       0.180      -3.798
   full:       -0.596       0.136      -4.334      11.126
molecular quadrupole (traceless):
                xx          xy          yy          xz          yz          zz
 q only:     -127.742    -110.567     102.301      58.572      87.382      25.441
  q+dip:     -133.295    -148.501     114.605      67.698     113.673      18.690
   full:     -132.288    -152.103     109.032      67.282     121.395      23.255

           -------------------------------------------------
          |                Geometry Summary                 |
           -------------------------------------------------

      molecular mass/u    :     1254.3942000
   center of mass at/Å    :       -4.5170312      -9.9522458       5.6439768
  moments of inertia/u·Å² :        0.1673770E+05   0.1010133E+06   0.1018141E+06
rotational constants/cm⁻¹ :        0.1007166E-02   0.1668852E-03   0.1655726E-03

 * 94 selected distances

     #   Z        #   Z                                     value/Å
     1   6 C      2   6 C                                 1.3843680
     2   6 C      3   6 C                                 1.3971477
     4   6 C      5   7 N                                 1.1448763
     3   6 C      6   6 C                                 1.4075929
     7   6 C      8   7 N                                 1.1452347
     6   6 C      9   6 C                                 1.3962167
     1   6 C     10   6 C                                 1.4074241
     9   6 C     10   6 C                                 1.3776520
    11   6 C     12   8 O                                 1.2167980
    14   6 C     15   6 C                                 1.3718248
    16   6 C     17   7 N                                 1.1477241
    18   6 C     19   7 N                                 1.1487228
    13   6 C     20   6 C                                 1.3778277
    20   6 C     21   6 C                                 1.3964751
    21   6 C     22   6 C                                 1.4068006
    22   6 C     23   6 C                                 1.3729387
    23   6 C     24   6 C                                 1.4073553
    21   6 C     25  16 S                                 1.7532714
    24   6 C     25  16 S                                 1.7135343
    24   6 C     26   6 C                                 1.4098724
    26   6 C     27   6 C                                 1.4008856
    28  32 Ge    29   6 C                                 1.9823658 (max)
    28  32 Ge    30   6 C                                 1.9822326
    27   6 C     31   6 C                                 1.3825141
    31   6 C     32   6 C                                 1.3921375
    26   6 C     33  16 S                                 1.7235447
    32   6 C     33  16 S                                 1.7435585
    32   6 C     34   6 C                                 1.4047761
    34   6 C     35   6 C                                 1.4003298
    35   6 C     36   6 C                                 1.4372462
    36   6 C     37   7 N                                 1.3340765
    37   7 N     38   6 C                                 1.3161800
    39   6 C     40   8 O                                 1.2144256
    41   6 C     42   6 C                                 1.3373267
    43   6 C     44   8 O                                 1.2127113
    38   6 C     45   6 C                                 1.4312225
    35   6 C     46   7 N                                 1.3321395
    45   6 C     46   7 N                                 1.3157177
    36   6 C     47   6 C                                 1.4033765
    34   6 C     48  16 S                                 1.7361354
    47   6 C     48  16 S                                 1.7406119
    47   6 C     49   6 C                                 1.4054324
    49   6 C     50   6 C                                 1.3932131
    50   6 C     51   6 C                                 1.3826680
    51   6 C     52   6 C                                 1.3982834
    49   6 C     53  16 S                                 1.7477152
    52   6 C     53  16 S                                 1.7242882
    52   6 C     54   6 C                                 1.4073744
    54   6 C     55   6 C                                 1.4024236
    56  32 Ge    57   6 C                                 1.9788393
    56  32 Ge    58   6 C                                 1.9807689
    55   6 C     59   6 C                                 1.3782005
    59   6 C     60   6 C                                 1.3976883
    54   6 C     61  16 S                                 1.7140785
    60   6 C     61  16 S                                 1.7535270
    60   6 C     62   6 C                                 1.4000436
    62   6 C     63   6 C                                 1.3725409
    64   6 C     65   8 O                                 1.2092972
    66   6 C     67   6 C                                 1.3776533
    67   6 C     68   6 C                                 1.3968084
    68   6 C     69   6 C                                 1.4074633
    69   6 C     70   6 C                                 1.3972716
    66   6 C     71   6 C                                 1.4083263
    70   6 C     71   6 C                                 1.3831291
    63   6 C     72   6 C                                 1.4387437
    72   6 C     73   6 C                                 1.3733454
    74   6 C     75   7 N                                 1.1478192
    76   6 C     77   7 N                                 1.1479880
    78   6 C     79   7 N                                 1.1450984
    80   6 C     81   7 N                                 1.1450667
     2   6 C     82   1 H                                 1.0781417
     9   6 C     83   1 H                                 1.0794165
    20   6 C     84   1 H                                 1.0833749
    22   6 C     85   1 H                                 1.0767664
    29   6 C     86   1 H                                 1.0854890
    29   6 C     87   1 H                                 1.0857494
    29   6 C     88   1 H                                 1.0856546
    30   6 C     89   1 H                                 1.0855476
    30   6 C     90   1 H                                 1.0856723
    30   6 C     91   1 H                                 1.0857445
    31   6 C     92   1 H                                 1.0765203
    41   6 C     93   1 H                                 1.0817306
    42   6 C     94   1 H                                 1.0817108
    50   6 C     95   1 H                                 1.0756422 (min)
    57   6 C     96   1 H                                 1.0857749
    57   6 C     97   1 H                                 1.0857886
    57   6 C     98   1 H                                 1.0856887
    58   6 C     99   1 H                                 1.0856087
    58   6 C    100   1 H                                 1.0858705
    58   6 C    101   1 H                                 1.0857123
    59   6 C    102   1 H                                 1.0756988
    62   6 C    103   1 H                                 1.0864624
    67   6 C    104   1 H                                 1.0793821
    70   6 C    105   1 H                                 1.0787072

 * 6 distinct bonds (by element types)

   Z      Z             #   av. dist./Å        max./Å        min./Å
   1 H    6 C          24     1.0825773     1.0864624     1.0756422
   6 C    6 C          40     1.3955980     1.4387437     1.3373267
   6 C    7 N          12     1.2058870     1.3340765     1.1448763
   6 C    8 O           4     1.2133080     1.2167980     1.2092972
   6 C   16 S          10     1.7350265     1.7535270     1.7135343
   6 C   32 Ge          4     1.9810516     1.9823658     1.9788393


optimized geometry written to: xtbopt.xyz


           -------------------------------------------------
          | TOTAL ENERGY             -205.858918513225 Eh   |
          | GRADIENT NORM               0.000920517547 Eh/α |
          | HOMO-LUMO GAP               0.682204913738 eV   |
           -------------------------------------------------

------------------------------------------------------------------------
 * finished run on 2021/05/14 at 20:18:37.245     
------------------------------------------------------------------------
 total:
 * wall-time:     0 d,  0 h,  1 min, 43.978 sec
 *  cpu-time:     0 d,  0 h, 17 min, 49.906 sec
 * ratio c/w:    10.290 speedup
 SCF:
 * wall-time:     0 d,  0 h,  0 min,  0.604 sec
 *  cpu-time:     0 d,  0 h,  0 min,  7.215 sec
 * ratio c/w:    11.952 speedup
 ANC optimizer:
 * wall-time:     0 d,  0 h,  1 min, 43.298 sec
 *  cpu-time:     0 d,  0 h, 17 min, 42.039 sec
 * ratio c/w:    10.281 speedup

