      -----------------------------------------------------------      
     |                   =====================                   |     
     |                           x T B                           |     
     |                   =====================                   |     
     |                         S. Grimme                         |     
     |          Mulliken Center for Theoretical Chemistry        |     
     |                    University of Bonn                     |     
     |                Version 6.2 RC2 (SAW190805)                |     
      -----------------------------------------------------------      

   This program is distributed in the hope that it will be useful,
   but WITHOUT ANY WARRANTY; without even the implied warranty of
   MERCHANTABILITY or FITNESS FOR A PARTICULAR PURPOSE.
   
   FOR NON-COMMERCIAL, ACADEMIA USE ONLY.
   
   Cite this work as:
   * S. Grimme, C. Bannwarth, P. Shushkov, J. Chem. Theory Comput., 2017,
     13, 1989-2009. DOI: 10.1021/acs.jctc.7b00118
   * C. Bannwarth, S. Ehlert and S. Grimme., J. Chem. Theory Comput., 2019,
     15, 1652-1671. DOI: 10.1021/acs.jctc.8b01176
   * P. Pracht, E. Caldeweyher, S. Ehlert, S. Grimme, ChemRxiv, 2019, preprint.
     DOI: 10.26434/chemrxiv.8326202.v1
   
   for DFT-D4:
   * E. Caldeweyher, C. Bannwarth and S. Grimme, J. Chem. Phys., 2017,
     147, 034112. DOI: 10.1063/1.4993215
   * E. Caldeweyher, S. Ehlert, A. Hansen, H. Neugebauer, S. Spicher,
     C. Bannwarth and S. Grimme, J. Chem. Phys., 2019, 150, 154122.
     DOI: 10.1063/1.5090222
   
   for sTDA-xTB:
   * S. Grimme and C. Bannwarth, J. Chem. Phys., 2016, 145, 054103.
     DOI: 10.1063/1.4959605
   
   in the mass-spec context:
   * V. Asgeirsson, C. Bauer and S. Grimme, Chem. Sci., 2017, 8, 4879.
     DOI: 10.1039/c7sc00601b
   
   for metadynamics refer to:
   * S. Grimme, J. Chem. Theory Comput., 2019, 155, 2847-2862
     DOI: 10.1021/acs.jctc.9b00143
   
   with help from (in alphabetical order)
   C. Bannwarth, F. Bohle, G. Brandenburg, E. Caldeweyher, M. Checinski,
   S. Dohm, S. Ehlert, S. Ehrlich, F. März, H. Neugebauer, J. Pisarek,
   P. Pracht, P. Shushkov, and S. Spicher.
   
 * started run on 2021/05/15 at 06:16:43.205     

           -------------------------------------------------
          |                Calculation Setup                |
           -------------------------------------------------

          program call               : /ihome/ghutchison/geoffh/xtb/xtb /ihome/ghutchison/blp62/GA/running_GA/generations/89/103_48_28_48_103.xyz -opt
          hostname                   : smp-n159
          coordinate file            : /ihome/ghutchison/blp62/GA/running_GA/generations/89/103_48_28_48_103.xyz
          omp threads                :                    12
          number of atoms            :                    87
          number of electrons        :                   354
          charge                     :                     0
          spin                       :                   0.0
          first test random number   :      0.55836172563059


########################################################################
# WARNING! Please study the warnings concerning your input carefully
#  - XTBPATH is not set, using XTBHOME instead
#  - the use of '-opt' is discouraged, please use '--opt' next time
########################################################################

           ------------------------------------------------- 
          |                 G F N 2 - x T B                 |
          | Geometry, Frequencies, Noncovalent interactions |
          |            JCTC 2019 parametrisation            |
           ------------------------------------------------- 
             KAB for C  - Si     :                1.0500
             KAB for H  - Pd     :                0.9500
             k(s)              :                1.8500
             k(p)              :                2.2300
             k(d)              :                2.2300
             k(f)              :                2.0000
             kEN (H0ij)        :               -2.0000
             D4 a1             :                0.5200
             D4 a2             :                5.0000
             D4 s6             :                1.0000
             D4 s8             :                2.7000
             D4 s9             :                5.0000
             alphaj            :                2.0000

  Z AO/shell   Hii/eV     exponent
  1     Wed Apr 25 08:07:45 CEST 2018   EN: 2.200 GM2: 0.406  GM3: 0.0800  RAES: 1.40
     1s    -10.707211    1.230000
  6     Wed Apr 25 08:07:45 CEST 2018   EN: 2.550 GM2: 0.538  GM3: 0.1500  RAES: 3.00
     2s    -13.970922    2.096432
     2p    -10.063292    1.800000
  7     Wed Apr 25 08:07:45 CEST 2018   EN: 3.040 GM2: 0.461  GM3:-0.0640  RAES: 1.90
     2s    -16.686243    2.339881
     2p    -12.523956    2.014332
  8     Wed Apr 25 08:07:45 CEST 2018   EN: 3.440 GM2: 0.452  GM3:-0.0517  RAES: 1.80
     2s    -20.229985    2.439742
     2p    -15.503117    2.137023
  9     Mon Apr 23 13:58:50 CEST 2018   EN: 3.980 GM2: 0.532  GM3: 0.1426  RAES: 2.40
     2s    -23.458179    2.416361
     2p    -15.746583    2.308399
 16     Tue Apr 24 11:44:34 CEST 2018   EN: 2.580 GM2: 0.340  GM3:-0.0502  RAES: 3.10
     3s    -20.029654    1.981333
     3p    -11.377694    2.025643
     3d     -0.420282    1.702555

           ------------------------------------------------- 
          |        Self-Consistent Charge Iterations        |
           ------------------------------------------------- 

          ...................................................
          :                      SETUP                      :
          :.................................................:
          :  # basis functions                 360          :
          :  # atomic orbitals                 353          :
          :  # shells                          171          :
          :  # electrons                       354          :
          :  max. iterations                   250          :
          :  Hamiltonian                  GFN2-xTB          :
          :  restarted?                      false          :
          :  GBSA solvation                  false          :
          :  PC potential                    false          :
          :  electronic temp.          300.0000000     K    :
          :  accuracy                    1.0000000          :
          :  -> integral cutoff          0.2500000E+02      :
          :  -> integral neglect         0.1000000E-07      :
          :  -> SCF convergence          0.1000000E-05 Eh   :
          :  -> wf. convergence          0.1000000E-03 e    :
          :  Broyden damping             0.4000000          :
          ...................................................

 iter      E             dE          RMSdq      gap      omega  full diag
   1   -198.2320871 -0.198232E+03  0.607E+00    1.15       0.0  T
   2   -198.2456586 -0.135714E-01  0.426E+00    0.56       1.0  T
   3   -198.2546641 -0.900551E-02  0.277E+00    0.87       1.0  T
   4   -198.6376719 -0.383008E+00  0.703E-01    0.75       1.0  T
   5   -198.6680161 -0.303443E-01  0.281E-01    0.71       1.0  T
   6   -198.6683738 -0.357687E-03  0.231E-01    0.69       1.0  T
   7   -198.6738407 -0.546691E-02  0.942E-02    0.71       1.0  T
   8   -198.6745307 -0.689925E-03  0.367E-02    0.71       1.0  T
   9   -198.6745806 -0.499720E-04  0.161E-02    0.71       1.0  T
  10   -198.6745904 -0.972155E-05  0.793E-03    0.71       1.4  T
  11   -198.6745927 -0.229624E-05  0.386E-03    0.71       2.8  T
  12   -198.6745932 -0.526011E-06  0.209E-03    0.71       5.1  T
  13   -198.6745933 -0.152716E-06  0.106E-03    0.71      10.1  T
  14   -198.6745934 -0.216569E-07  0.499E-04    0.71      21.5  T
  15   -198.6745934 -0.128967E-07  0.196E-04    0.71      54.7  T

   *** convergence criteria satisfied after 15 iterations ***

         #    Occupation            Energy/Eh            Energy/eV
      -------------------------------------------------------------
         1        2.0000           -0.8604651             -23.4144
       ...           ...                  ...                  ...
       171        2.0000           -0.4278276             -11.6418
       172        2.0000           -0.4249717             -11.5641
       173        2.0000           -0.4211207             -11.4593
       174        2.0000           -0.4188155             -11.3965
       175        2.0000           -0.4134123             -11.2495
       176        2.0000           -0.4031793             -10.9711
       177        2.0000           -0.3900956             -10.6150 (HOMO)
       178        0.0000           -0.3641397              -9.9087 (LUMO)
       179                         -0.3514724              -9.5641
       180                         -0.3499933              -9.5238
       181                         -0.3466542              -9.4329
       182                         -0.3386037              -9.2139
       ...                                ...                  ...
       353                          1.0792964              29.3691
      -------------------------------------------------------------
                  HL-Gap            0.0259559 Eh            0.7063 eV
             Fermi-level           -0.3771176 Eh          -10.2619 eV

 SCC (total)                   0 d,  0 h,  0 min,  0.480 sec
 SCC setup                      ...        0 min,  0.002 sec (  0.409%)
 Dispersion                     ...        0 min,  0.004 sec (  0.755%)
 integral evaluation            ...        0 min,  0.033 sec (  6.794%)
 zeroth order Hamiltonian       ...        0 min,  0.001 sec (  0.253%)
 iterations                     ...        0 min,  0.417 sec ( 86.860%)
 molecular gradient             ...        0 min,  0.021 sec (  4.370%)
 printout                       ...        0 min,  0.003 sec (  0.540%)

         :::::::::::::::::::::::::::::::::::::::::::::::::::::
         ::                     SUMMARY                     ::
         :::::::::::::::::::::::::::::::::::::::::::::::::::::
         :: total energy            -195.652971168252 Eh    ::
         :: gradient norm              0.227739647519 Eh/a0 ::
         :: HOMO-LUMO gap              0.706296028680 eV    ::
         ::.................................................::
         :: SCC energy              -198.674593367717 Eh    ::
         :: -> isotropic ES            0.167677510044 Eh    ::
         :: -> anisotropic ES          0.018979661633 Eh    ::
         :: -> anisotropic XC          0.178609699566 Eh    ::
         :: -> dispersion             -0.156756589434 Eh    ::
         :: repulsion energy           3.022326267024 Eh    ::
         :: add. restraining           0.000000000000 Eh    ::
         :::::::::::::::::::::::::::::::::::::::::::::::::::::

      ----------------------------------------------------------- 
     |                   =====================                   |
     |                        A N C O P T                        |
     |                   =====================                   |
     |               Approximate Normal Coordinate               |
     |                Rational Function Optimizer                |
      ----------------------------------------------------------- 

          ...................................................
          :                      SETUP                      :
          :.................................................:
          :   optimization level            normal          :
          :   max. optcycles                   261          :
          :   ANC micro-cycles                  20          :
          :   degrees of freedom               255          :
          :.................................................:
          :   RF solver                   davidson          :
          :   input Hessian                  false          :
          :   write xtbopt.log                true          :
          :   linear?                        false          :
          :   energy convergence         0.5000000E-05 Eh   :
          :   grad. convergence          0.1000000E-02 Eh/α :
          :   maximium RF displ.         2.0000000          :
          :   Hlow (freq-cutoff)         0.5000000E-02      :
          :   Hmax (freq-cutoff)         5.0000000          :
          :   S6 in model hess.         20.0000000          :
          ...................................................

generating ANC from model Hessian ...
Using Lindh-Hessian (1995)
 Shifting diagonal of input Hessian by   4.992958621748148E-003
 Lowest  eigenvalues of input Hessian
   -0.000000   -0.000000   -0.000000   -0.000000    0.000000    0.000000
    0.005000    0.005012    0.005046    0.005085    0.005121    0.005188
    0.005240    0.005266    0.005337    0.005394    0.005464    0.005774
 Highest eigenvalues
    2.515123    2.517311    2.575123    2.578303    2.587156    2.589357
 

........................................................................
.............................. CYCLE    1 ..............................
........................................................................
   1   -198.6745934 -0.198675E+03  0.109E-04    0.71       0.0  T
   2   -198.6745934  0.200430E-09  0.971E-05    0.71     110.4  T
   3   -198.6745934 -0.775913E-09  0.429E-05    0.71     249.9  T
     SCC iter.                  ...        0 min,  0.216 sec
     gradient                   ...        0 min,  0.025 sec
 * total energy  :  -195.6529711 Eh     change        0.9927149E-07 Eh
   gradient norm :     0.2277399 Eh/α   predicted     0.0000000E+00 (-100.00%)
   displ. norm   :     0.4168074 α      lambda       -0.5273243E-01
   maximum displ.:     0.1076861 α      in ANC's #41, #82, #55, ...

........................................................................
.............................. CYCLE    2 ..............................
........................................................................
   1   -198.8039153 -0.198804E+03  0.330E-01    0.78       0.0  T
   2   -198.8042956 -0.380295E-03  0.190E-01    0.74       1.0  T
   3   -198.8034335  0.862059E-03  0.134E-01    0.77       1.0  T
   4   -198.8048694 -0.143594E-02  0.457E-02    0.75       1.0  T
   5   -198.8049895 -0.120070E-03  0.215E-02    0.75       1.0  T
   6   -198.8049913 -0.179293E-05  0.153E-02    0.75       1.0  T
   7   -198.8050158 -0.245335E-04  0.541E-03    0.75       2.0  T
   8   -198.8050187 -0.287701E-05  0.184E-03    0.75       5.8  T
   9   -198.8050189 -0.188584E-06  0.990E-04    0.75      10.8  T
     SCC iter.                  ...        0 min,  0.228 sec
     gradient                   ...        0 min,  0.025 sec
 * total energy  :  -195.6894066 Eh     change       -0.3643556E-01 Eh
   gradient norm :     0.0966730 Eh/α   predicted    -0.3094695E-01 ( -15.06%)
   displ. norm   :     0.4998878 α      lambda       -0.2119048E-01
   maximum displ.:     0.2122082 α      in ANC's #41, #18, #55, ...

........................................................................
.............................. CYCLE    3 ..............................
........................................................................
   1   -198.8280388 -0.198828E+03  0.346E-01    0.78       0.0  T
   2   -198.8283679 -0.329147E-03  0.179E-01    0.77       1.0  T
   3   -198.8275191  0.848835E-03  0.118E-01    0.78       1.0  T
   4   -198.8286412 -0.112215E-02  0.380E-02    0.77       1.0  T
   5   -198.8286954 -0.541570E-04  0.220E-02    0.77       1.0  T
   6   -198.8287188 -0.234036E-04  0.110E-02    0.77       1.0  T
   7   -198.8287297 -0.109326E-04  0.476E-03    0.77       2.3  T
   8   -198.8287320 -0.223515E-05  0.176E-03    0.77       6.1  T
   9   -198.8287322 -0.193328E-06  0.902E-04    0.77      11.9  T
     SCC iter.                  ...        0 min,  0.150 sec
     gradient                   ...        0 min,  0.017 sec
 * total energy  :  -195.7031992 Eh     change       -0.1379253E-01 Eh
   gradient norm :     0.0306746 Eh/α   predicted    -0.1324287E-01 (  -3.99%)
   displ. norm   :     0.5534825 α      lambda       -0.7259227E-02
   maximum displ.:     0.2559200 α      in ANC's #41, #18, #33, ...

........................................................................
.............................. CYCLE    4 ..............................
........................................................................
   1   -198.8390732 -0.198839E+03  0.291E-01    0.75       0.0  T
   2   -198.8391972 -0.124001E-03  0.144E-01    0.75       1.0  T
   3   -198.8389737  0.223492E-03  0.582E-02    0.74       1.0  T
   4   -198.8392397 -0.266069E-03  0.241E-02    0.75       1.0  T
   5   -198.8392496 -0.985289E-05  0.142E-02    0.74       1.0  T
   6   -198.8392625 -0.128725E-04  0.355E-03    0.75       3.0  T
   7   -198.8392630 -0.514326E-06  0.219E-03    0.74       4.9  T
   8   -198.8392633 -0.283429E-06  0.126E-03    0.75       8.5  T
     SCC iter.                  ...        0 min,  0.133 sec
     gradient                   ...        0 min,  0.017 sec
 * total energy  :  -195.7087126 Eh     change       -0.5513410E-02 Eh
   gradient norm :     0.0218412 Eh/α   predicted    -0.4741604E-02 ( -14.00%)
   displ. norm   :     0.6725141 α      lambda       -0.5809381E-02
   maximum displ.:     0.3133392 α      in ANC's #41, #18, #33, ...

........................................................................
.............................. CYCLE    5 ..............................
........................................................................
   1   -198.8372236 -0.198837E+03  0.352E-01    0.71       0.0  T
   2   -198.8373545 -0.130875E-03  0.184E-01    0.71       1.0  T
   3   -198.8367090  0.645495E-03  0.841E-02    0.71       1.0  T
   4   -198.8374382 -0.729192E-03  0.265E-02    0.71       1.0  T
   5   -198.8374539 -0.156777E-04  0.153E-02    0.71       1.0  T
   6   -198.8374674 -0.135431E-04  0.447E-03    0.71       2.4  T
   7   -198.8374686 -0.115042E-05  0.225E-03    0.71       4.8  T
   8   -198.8374687 -0.115786E-06  0.128E-03    0.71       8.4  T
     SCC iter.                  ...        0 min,  0.132 sec
     gradient                   ...        0 min,  0.017 sec
 * total energy  :  -195.7116784 Eh     change       -0.2965800E-02 Eh
   gradient norm :     0.0288787 Eh/α   predicted    -0.4218411E-02 (  42.24%)
   displ. norm   :     0.5920199 α      lambda       -0.5519149E-02
   maximum displ.:     0.2951030 α      in ANC's #18, #41, #21, ...

........................................................................
.............................. CYCLE    6 ..............................
........................................................................
   1   -198.8435939 -0.198844E+03  0.320E-01    0.68       0.0  T
   2   -198.8436840 -0.901401E-04  0.174E-01    0.68       1.0  T
   3   -198.8429121  0.771900E-03  0.897E-02    0.68       1.0  T
   4   -198.8437736 -0.861521E-03  0.195E-02    0.68       1.0  T
   5   -198.8437808 -0.716364E-05  0.122E-02    0.68       1.0  T
   6   -198.8437896 -0.874413E-05  0.527E-03    0.68       2.0  T
   7   -198.8437921 -0.250172E-05  0.268E-03    0.68       4.0  T
   8   -198.8437926 -0.534613E-06  0.140E-03    0.68       7.6  T
     SCC iter.                  ...        0 min,  0.132 sec
     gradient                   ...        0 min,  0.017 sec
 * total energy  :  -195.7139970 Eh     change       -0.2318665E-02 Eh
   gradient norm :     0.0259361 Eh/α   predicted    -0.3726776E-02 (  60.73%)
   displ. norm   :     0.4308089 α      lambda       -0.3113145E-02
   maximum displ.:     0.2206358 α      in ANC's #18, #24, #28, ...

........................................................................
.............................. CYCLE    7 ..............................
........................................................................
   1   -198.8524534 -0.198852E+03  0.269E-01    0.68       0.0  T
   2   -198.8525183 -0.648494E-04  0.146E-01    0.68       1.0  T
   3   -198.8519829  0.535386E-03  0.761E-02    0.67       1.0  T
   4   -198.8525452 -0.562265E-03  0.208E-02    0.68       1.0  T
   5   -198.8525743 -0.291029E-04  0.130E-02    0.68       1.0  T
   6   -198.8525889 -0.146674E-04  0.497E-03    0.68       2.2  T
   7   -198.8525915 -0.256956E-05  0.171E-03    0.68       6.3  T
   8   -198.8525917 -0.175466E-06  0.881E-04    0.68      12.2  T
     SCC iter.                  ...        0 min,  0.132 sec
     gradient                   ...        0 min,  0.017 sec
 * total energy  :  -195.7153252 Eh     change       -0.1328135E-02 Eh
   gradient norm :     0.0264478 Eh/α   predicted    -0.1845467E-02 (  38.95%)
   displ. norm   :     0.4319494 α      lambda       -0.3108664E-02
   maximum displ.:     0.2038860 α      in ANC's #18, #30, #21, ...

........................................................................
.............................. CYCLE    8 ..............................
........................................................................
   1   -198.8634389 -0.198863E+03  0.231E-01    0.67       0.0  T
   2   -198.8634976 -0.587410E-04  0.120E-01    0.67       1.0  T
   3   -198.8633020  0.195603E-03  0.486E-02    0.67       1.0  T
   4   -198.8634973 -0.195309E-03  0.207E-02    0.67       1.0  T
   5   -198.8635051 -0.775942E-05  0.157E-02    0.68       1.0  T
   6   -198.8635342 -0.291617E-04  0.405E-03    0.67       2.6  T
   7   -198.8635356 -0.139289E-05  0.151E-03    0.67       7.1  T
   8   -198.8635357 -0.920525E-07  0.822E-04    0.67      13.0  T
     SCC iter.                  ...        0 min,  0.132 sec
     gradient                   ...        0 min,  0.017 sec
 * total energy  :  -195.7172912 Eh     change       -0.1965998E-02 Eh
   gradient norm :     0.0180497 Eh/α   predicted    -0.1844347E-02 (  -6.19%)
   displ. norm   :     0.5915982 α      lambda       -0.3071788E-02
   maximum displ.:     0.2848436 α      in ANC's #18, #30, #10, ...

........................................................................
.............................. CYCLE    9 ..............................
........................................................................
   1   -198.8569822 -0.198857E+03  0.340E-01    0.66       0.0  T
   2   -198.8570730 -0.907664E-04  0.183E-01    0.67       1.0  T
   3   -198.8559605  0.111246E-02  0.103E-01    0.67       1.0  T
   4   -198.8571023 -0.114180E-02  0.296E-02    0.66       1.0  T
   5   -198.8571520 -0.496325E-04  0.201E-02    0.67       1.0  T
   6   -198.8571933 -0.413102E-04  0.599E-03    0.67       1.8  T
   7   -198.8571961 -0.280842E-05  0.232E-03    0.67       4.6  T
   8   -198.8571964 -0.283250E-06  0.124E-03    0.67       8.6  T
     SCC iter.                  ...        0 min,  0.132 sec
     gradient                   ...        0 min,  0.017 sec
 * total energy  :  -195.7178364 Eh     change       -0.5452809E-03 Eh
   gradient norm :     0.0279665 Eh/α   predicted    -0.2073445E-02 ( 280.25%)
   displ. norm   :     0.4178842 α      lambda       -0.3492662E-02
   maximum displ.:     0.1916282 α      in ANC's #18, #8, #24, ...

........................................................................
.............................. CYCLE   10 ..............................
........................................................................
   1   -198.8559325 -0.198856E+03  0.248E-01    0.66       0.0  T
   2   -198.8559878 -0.552885E-04  0.135E-01    0.66       1.0  T
   3   -198.8557857  0.202074E-03  0.484E-02    0.65       1.0  T
   4   -198.8560183 -0.232590E-03  0.127E-02    0.66       1.0  T
   5   -198.8560198 -0.148039E-05  0.886E-03    0.66       1.2  T
   6   -198.8560256 -0.576282E-05  0.402E-03    0.66       2.7  T
   7   -198.8560273 -0.171970E-05  0.177E-03    0.66       6.0  T
     SCC iter.                  ...        0 min,  0.116 sec
     gradient                   ...        0 min,  0.017 sec
 * total energy  :  -195.7194370 Eh     change       -0.1600559E-02 Eh
   gradient norm :     0.0235754 Eh/α   predicted    -0.2051292E-02 (  28.16%)
   displ. norm   :     0.4131473 α      lambda       -0.2319833E-02
   maximum displ.:     0.1554362 α      in ANC's #18, #9, #28, ...

........................................................................
.............................. CYCLE   11 ..............................
........................................................................
   1   -198.8575556 -0.198858E+03  0.253E-01    0.64       0.0  T
   2   -198.8576173 -0.617409E-04  0.138E-01    0.65       1.0  T
   3   -198.8572347  0.382608E-03  0.710E-02    0.64       1.0  T
   4   -198.8576661 -0.431404E-03  0.146E-02    0.65       1.0  T
   5   -198.8576685 -0.239329E-05  0.117E-02    0.64       1.0  T
   6   -198.8576803 -0.117698E-04  0.526E-03    0.65       2.0  T
   7   -198.8576837 -0.337525E-05  0.161E-03    0.64       6.6  T
   8   -198.8576838 -0.172514E-06  0.821E-04    0.64      13.1  T
     SCC iter.                  ...        0 min,  0.132 sec
     gradient                   ...        0 min,  0.017 sec
 * total energy  :  -195.7200852 Eh     change       -0.6482003E-03 Eh
   gradient norm :     0.0211194 Eh/α   predicted    -0.1357907E-02 ( 109.49%)
   displ. norm   :     0.3779147 α      lambda       -0.1595200E-02
   maximum displ.:     0.1505630 α      in ANC's #18, #10, #9, ...

........................................................................
.............................. CYCLE   12 ..............................
........................................................................
   1   -198.8635409 -0.198864E+03  0.177E-01    0.64       0.0  T
   2   -198.8635670 -0.261112E-04  0.940E-02    0.64       1.0  T
   3   -198.8632938  0.273178E-03  0.503E-02    0.64       1.0  T
   4   -198.8635703 -0.276486E-03  0.164E-02    0.64       1.0  T
   5   -198.8635824 -0.120871E-04  0.115E-02    0.64       1.0  T
   6   -198.8635958 -0.133785E-04  0.302E-03    0.64       3.5  T
   7   -198.8635966 -0.815612E-06  0.109E-03    0.64       9.8  T
   8   -198.8635966 -0.433247E-07  0.642E-04    0.64      16.7  T
     SCC iter.                  ...        0 min,  0.132 sec
     gradient                   ...        0 min,  0.019 sec
 * total energy  :  -195.7212087 Eh     change       -0.1123535E-02 Eh
   gradient norm :     0.0135253 Eh/α   predicted    -0.9115139E-03 ( -18.87%)
   displ. norm   :     0.5290959 α      lambda       -0.1269041E-02
   maximum displ.:     0.1836001 α      in ANC's #4, #18, #10, ...

........................................................................
.............................. CYCLE   13 ..............................
........................................................................
   1   -198.8611499 -0.198861E+03  0.215E-01    0.64       0.0  T
   2   -198.8611849 -0.350180E-04  0.115E-01    0.64       1.0  T
   3   -198.8608527  0.332182E-03  0.571E-02    0.64       1.0  T
   4   -198.8611879 -0.335244E-03  0.183E-02    0.64       1.0  T
   5   -198.8611978 -0.987548E-05  0.142E-02    0.64       1.0  T
   6   -198.8612204 -0.226056E-04  0.323E-03    0.64       3.3  T
   7   -198.8612213 -0.871080E-06  0.126E-03    0.64       8.5  T
   8   -198.8612213 -0.500789E-07  0.764E-04    0.64      14.0  T
     SCC iter.                  ...        0 min,  0.134 sec
     gradient                   ...        0 min,  0.017 sec
 * total energy  :  -195.7220474 Eh     change       -0.8386726E-03 Eh
   gradient norm :     0.0148532 Eh/α   predicted    -0.8121509E-03 (  -3.16%)
   displ. norm   :     0.5290291 α      lambda        0.6790084E-04
   maximum displ.:     0.1836038 α      in ANC's #4, #18, #10, ...

........................................................................
.............................. CYCLE   14 ..............................
........................................................................
   1   -198.8505528 -0.198851E+03  0.215E-01    0.63       0.0  T
   2   -198.8505888 -0.359938E-04  0.115E-01    0.63       1.0  T
   3   -198.8502693  0.319442E-03  0.572E-02    0.63       1.0  T
   4   -198.8505951 -0.325743E-03  0.179E-02    0.63       1.0  T
   5   -198.8505988 -0.376154E-05  0.149E-02    0.63       1.0  T
   6   -198.8506250 -0.261926E-04  0.352E-03    0.63       3.0  T
   7   -198.8506261 -0.108496E-05  0.130E-03    0.63       8.3  T
   8   -198.8506262 -0.577398E-07  0.784E-04    0.63      13.7  T
     SCC iter.                  ...        0 min,  0.132 sec
     gradient                   ...        0 min,  0.017 sec
 * total energy  :  -195.7219614 Eh     change        0.8604933E-04 Eh
   gradient norm :     0.0376912 Eh/α   predicted     0.4345133E-04 ( -49.50%)
   displ. norm   :     0.3362345 α      lambda       -0.1946154E-02
   maximum displ.:     0.1150549 α      in ANC's #4, #9, #5, ...

........................................................................
.............................. CYCLE   15 ..............................
........................................................................
   1   -198.8606751 -0.198861E+03  0.175E-01    0.63       0.0  T
   2   -198.8607076 -0.324665E-04  0.958E-02    0.63       1.0  T
   3   -198.8605465  0.161035E-03  0.437E-02    0.63       1.0  T
   4   -198.8607260 -0.179491E-03  0.104E-02    0.63       1.0  T
   5   -198.8607263 -0.231551E-06  0.885E-03    0.63       1.2  T
   6   -198.8607347 -0.841537E-05  0.359E-03    0.63       3.0  T
   7   -198.8607361 -0.139240E-05  0.104E-03    0.63      10.3  T
   8   -198.8607361 -0.456733E-07  0.533E-04    0.63      20.1  T
     SCC iter.                  ...        0 min,  0.132 sec
     gradient                   ...        0 min,  0.017 sec
 * total energy  :  -195.7229969 Eh     change       -0.1035545E-02 Eh
   gradient norm :     0.0223959 Eh/α   predicted    -0.1083086E-02 (   4.59%)
   displ. norm   :     0.3739195 α      lambda       -0.1653852E-02
   maximum displ.:     0.1518428 α      in ANC's #4, #9, #5, ...

........................................................................
.............................. CYCLE   16 ..............................
........................................................................
   1   -198.8879139 -0.198888E+03  0.163E-01    0.63       0.0  T
   2   -198.8879437 -0.298727E-04  0.916E-02    0.63       1.0  T
   3   -198.8876708  0.272986E-03  0.606E-02    0.63       1.0  T
   4   -198.8879881 -0.317336E-03  0.114E-02    0.63       1.0  T
   5   -198.8879930 -0.489581E-05  0.742E-03    0.63       1.4  T
   6   -198.8879962 -0.316137E-05  0.383E-03    0.63       2.8  T
   7   -198.8879975 -0.137062E-05  0.190E-03    0.63       5.7  T
     SCC iter.                  ...        0 min,  0.116 sec
     gradient                   ...        0 min,  0.017 sec
 * total energy  :  -195.7223841 Eh     change        0.6127730E-03 Eh
   gradient norm :     0.0670839 Eh/α   predicted    -0.9425488E-03 (-253.82%)
   displ. norm   :     0.2398647 α      lambda       -0.2892273E-02
   maximum displ.:     0.0810781 α      in ANC's #18, #4, #6, ...

........................................................................
.............................. CYCLE   17 ..............................
........................................................................
   1   -198.8732981 -0.198873E+03  0.132E-01    0.62       0.0  T
   2   -198.8733164 -0.182490E-04  0.753E-02    0.62       1.0  T
   3   -198.8731183  0.198049E-03  0.514E-02    0.62       1.0  T
   4   -198.8733459 -0.227509E-03  0.847E-03    0.62       1.3  T
   5   -198.8733508 -0.497965E-05  0.449E-03    0.62       2.4  T
   6   -198.8733519 -0.103040E-05  0.190E-03    0.62       5.6  T
     SCC iter.                  ...        0 min,  0.102 sec
     gradient                   ...        0 min,  0.017 sec
 * total energy  :  -195.7237599 Eh     change       -0.1375743E-02 Eh
   gradient norm :     0.0232891 Eh/α   predicted    -0.1529342E-02 (  11.16%)
   displ. norm   :     0.4075359 α      lambda       -0.1565683E-02
   maximum displ.:     0.1512848 α      in ANC's #4, #9, #5, ...

........................................................................
.............................. CYCLE   18 ..............................
........................................................................
   1   -198.8613384 -0.198861E+03  0.209E-01    0.63       0.0  T
   2   -198.8613805 -0.421282E-04  0.115E-01    0.63       1.0  T
   3   -198.8611167  0.263824E-03  0.562E-02    0.63       1.0  T
   4   -198.8614138 -0.297105E-03  0.115E-02    0.63       1.0  T
   5   -198.8614140 -0.265599E-06  0.923E-03    0.63       1.2  T
   6   -198.8614207 -0.664677E-05  0.439E-03    0.63       2.4  T
   7   -198.8614231 -0.238680E-05  0.151E-03    0.63       7.1  T
   8   -198.8614232 -0.161212E-06  0.712E-04    0.63      15.0  T
     SCC iter.                  ...        0 min,  0.132 sec
     gradient                   ...        0 min,  0.017 sec
 * total energy  :  -195.7240137 Eh     change       -0.2538369E-03 Eh
   gradient norm :     0.0308385 Eh/α   predicted    -0.9128640E-03 ( 259.63%)
   displ. norm   :     0.3458929 α      lambda       -0.1301149E-02
   maximum displ.:     0.1542158 α      in ANC's #4, #9, #5, ...

........................................................................
.............................. CYCLE   19 ..............................
........................................................................
   1   -198.8666313 -0.198867E+03  0.133E-01    0.63       0.0  T
   2   -198.8666461 -0.148095E-04  0.724E-02    0.63       1.0  T
   3   -198.8664759  0.170164E-03  0.428E-02    0.62       1.0  T
   4   -198.8666528 -0.176853E-03  0.115E-02    0.62       1.0  T
   5   -198.8666588 -0.599994E-05  0.834E-03    0.63       1.3  T
   6   -198.8666663 -0.750344E-05  0.272E-03    0.62       3.9  T
   7   -198.8666670 -0.728741E-06  0.859E-04    0.62      12.5  T
   8   -198.8666670 -0.304221E-07  0.470E-04    0.62      22.8  T
     SCC iter.                  ...        0 min,  0.132 sec
     gradient                   ...        0 min,  0.017 sec
 * total energy  :  -195.7249062 Eh     change       -0.8924769E-03 Eh
   gradient norm :     0.0093006 Eh/α   predicted    -0.7284133E-03 ( -18.38%)
   displ. norm   :     0.5542297 α      lambda       -0.1027109E-02
   maximum displ.:     0.2694376 α      in ANC's #4, #9, #5, ...

........................................................................
.............................. CYCLE   20 ..............................
........................................................................
   1   -198.8727174 -0.198873E+03  0.168E-01    0.63       0.0  T
   2   -198.8727435 -0.261109E-04  0.912E-02    0.63       1.0  T
   3   -198.8726501  0.934492E-04  0.365E-02    0.63       1.0  T
   4   -198.8727550 -0.104906E-03  0.116E-02    0.63       1.0  T
   5   -198.8727552 -0.180402E-06  0.792E-03    0.63       1.4  T
   6   -198.8727592 -0.402651E-05  0.408E-03    0.63       2.6  T
   7   -198.8727614 -0.221857E-05  0.137E-03    0.63       7.8  T
   8   -198.8727615 -0.138566E-06  0.660E-04    0.63      16.2  T
     SCC iter.                  ...        0 min,  0.132 sec
     gradient                   ...        0 min,  0.017 sec
 * total energy  :  -195.7256140 Eh     change       -0.7077808E-03 Eh
   gradient norm :     0.0174658 Eh/α   predicted    -0.6713094E-03 (  -5.15%)
   displ. norm   :     0.6803686 α      lambda       -0.1113964E-02
   maximum displ.:     0.3252478 α      in ANC's #4, #9, #5, ...
 * RMSD in coord.:     0.7417687 α      energy gain  -0.7264280E-01 Eh

generating ANC from model Hessian ...
Using Lindh-Hessian (1995)
 Shifting diagonal of input Hessian by   5.004462425341912E-003
 Lowest  eigenvalues of input Hessian
    0.005000   -0.000000   -0.000000   -0.000000   -0.000000    0.000000
    0.000000    0.005023    0.005047    0.005061    0.005161    0.005238
    0.005259    0.005276    0.005333    0.005448    0.005582    0.005761
 Highest eigenvalues
    2.592991    2.596790    2.656424    2.660112    2.669661    2.672228
 

........................................................................
.............................. CYCLE   21 ..............................
........................................................................
   1   -198.8703886 -0.198870E+03  0.202E-01    0.62       0.0  T
   2   -198.8704237 -0.350481E-04  0.108E-01    0.62       1.0  T
   3   -198.8702383  0.185324E-03  0.501E-02    0.62       1.0  T
   4   -198.8704469 -0.208598E-03  0.147E-02    0.62       1.0  T
   5   -198.8704448  0.214496E-05  0.101E-02    0.62       1.1  T
   6   -198.8704517 -0.694252E-05  0.478E-03    0.62       2.2  T
   7   -198.8704546 -0.283974E-05  0.152E-03    0.62       7.0  T
   8   -198.8704548 -0.194590E-06  0.769E-04    0.62      13.9  T
   9   -198.8704548 -0.228953E-07  0.450E-04    0.62      23.8  T
     SCC iter.                  ...        0 min,  0.149 sec
     gradient                   ...        0 min,  0.018 sec
 * total energy  :  -195.7265495 Eh     change       -0.9355236E-03 Eh
   gradient norm :     0.0179892 Eh/α   predicted     0.0000000E+00 (-100.00%)
   displ. norm   :     0.2765897 α      lambda       -0.8594369E-03
   maximum displ.:     0.1533702 α      in ANC's #7, #4, #1, ...

........................................................................
.............................. CYCLE   22 ..............................
........................................................................
   1   -198.8666790 -0.198867E+03  0.138E-01    0.63       0.0  T
   2   -198.8666962 -0.172292E-04  0.753E-02    0.63       1.0  T
   3   -198.8665819  0.114244E-03  0.340E-02    0.63       1.0  T
   4   -198.8667008 -0.118896E-03  0.100E-02    0.63       1.1  T
   5   -198.8667049 -0.410209E-05  0.760E-03    0.63       1.4  T
   6   -198.8667114 -0.650603E-05  0.212E-03    0.63       5.1  T
   7   -198.8667118 -0.382235E-06  0.849E-04    0.63      12.6  T
   8   -198.8667119 -0.258197E-07  0.455E-04    0.63      23.5  T
     SCC iter.                  ...        0 min,  0.132 sec
     gradient                   ...        0 min,  0.017 sec
 * total energy  :  -195.7267455 Eh     change       -0.1960125E-03 Eh
   gradient norm :     0.0123633 Eh/α   predicted    -0.4625933E-03 ( 136.00%)
   displ. norm   :     0.2947116 α      lambda       -0.1402634E-02
   maximum displ.:     0.1595084 α      in ANC's #4, #6, #7, ...

........................................................................
.............................. CYCLE   23 ..............................
........................................................................
   1   -198.8674295 -0.198867E+03  0.178E-01    0.63       0.0  T
   2   -198.8674594 -0.298464E-04  0.974E-02    0.63       1.0  T
   3   -198.8672275  0.231841E-03  0.465E-02    0.63       1.0  T
   4   -198.8674707 -0.243166E-03  0.122E-02    0.63       1.0  T
   5   -198.8674798 -0.911336E-05  0.833E-03    0.63       1.3  T
   6   -198.8674872 -0.743687E-05  0.234E-03    0.63       4.6  T
   7   -198.8674876 -0.378618E-06  0.921E-04    0.63      11.6  T
   8   -198.8674876 -0.165794E-07  0.519E-04    0.63      20.7  T
     SCC iter.                  ...        0 min,  0.137 sec
     gradient                   ...        0 min,  0.020 sec
 * total energy  :  -195.7270284 Eh     change       -0.2828431E-03 Eh
   gradient norm :     0.0284021 Eh/α   predicted    -0.7622378E-03 ( 169.49%)
   displ. norm   :     0.2515815 α      lambda       -0.1306591E-02
   maximum displ.:     0.0984091 α      in ANC's #7, #32, #4, ...

........................................................................
.............................. CYCLE   24 ..............................
........................................................................
   1   -198.8705221 -0.198871E+03  0.191E-01    0.63       0.0  T
   2   -198.8705595 -0.373386E-04  0.105E-01    0.63       1.0  T
   3   -198.8704871  0.724102E-04  0.349E-02    0.63       1.0  T
   4   -198.8705810 -0.939847E-04  0.592E-03    0.63       1.8  T
   5   -198.8705820 -0.100160E-05  0.375E-03    0.63       2.9  T
   6   -198.8705827 -0.638417E-06  0.185E-03    0.63       5.8  T
     SCC iter.                  ...        0 min,  0.099 sec
     gradient                   ...        0 min,  0.017 sec
 * total energy  :  -195.7272449 Eh     change       -0.2165833E-03 Eh
   gradient norm :     0.0223054 Eh/α   predicted    -0.6946466E-03 ( 220.73%)
   displ. norm   :     0.2459064 α      lambda       -0.1695280E-02
   maximum displ.:     0.0988746 α      in ANC's #4, #7, #39, ...

........................................................................
.............................. CYCLE   25 ..............................
........................................................................
   1   -198.8770264 -0.198877E+03  0.184E-01    0.63       0.0  T
   2   -198.8770584 -0.319729E-04  0.101E-01    0.63       1.0  T
   3   -198.8769574  0.101018E-03  0.355E-02    0.63       1.0  T
   4   -198.8770762 -0.118765E-03  0.704E-03    0.63       1.5  T
   5   -198.8770758  0.348933E-06  0.586E-03    0.63       1.8  T
   6   -198.8770788 -0.296034E-05  0.301E-03    0.63       3.6  T
     SCC iter.                  ...        0 min,  0.098 sec
     gradient                   ...        0 min,  0.017 sec
 * total energy  :  -195.7276391 Eh     change       -0.3941557E-03 Eh
   gradient norm :     0.0252322 Eh/α   predicted    -0.8988969E-03 ( 128.06%)
   displ. norm   :     0.2730980 α      lambda       -0.1202480E-02
   maximum displ.:     0.1286378 α      in ANC's #4, #7, #5, ...

........................................................................
.............................. CYCLE   26 ..............................
........................................................................
   1   -198.8734868 -0.198873E+03  0.170E-01    0.63       0.0  T
   2   -198.8735109 -0.240522E-04  0.938E-02    0.63       1.0  T
   3   -198.8733422  0.168678E-03  0.459E-02    0.63       1.0  T
   4   -198.8735364 -0.194220E-03  0.699E-03    0.63       1.5  T
   5   -198.8735378 -0.135537E-05  0.457E-03    0.63       2.3  T
   6   -198.8735392 -0.139925E-05  0.169E-03    0.63       6.3  T
     SCC iter.                  ...        0 min,  0.098 sec
     gradient                   ...        0 min,  0.017 sec
 * total energy  :  -195.7282088 Eh     change       -0.5696877E-03 Eh
   gradient norm :     0.0116351 Eh/α   predicted    -0.6460813E-03 (  13.41%)
   displ. norm   :     0.3991288 α      lambda       -0.1111959E-02
   maximum displ.:     0.2048008 α      in ANC's #4, #7, #5, ...

........................................................................
.............................. CYCLE   27 ..............................
........................................................................
   1   -198.8662888 -0.198866E+03  0.173E-01    0.63       0.0  T
   2   -198.8663160 -0.271939E-04  0.935E-02    0.63       1.0  T
   3   -198.8661978  0.118250E-03  0.385E-02    0.63       1.0  T
   4   -198.8663287 -0.130922E-03  0.113E-02    0.63       1.0  T
   5   -198.8663247  0.402431E-05  0.967E-03    0.63       1.1  T
   6   -198.8663356 -0.109405E-04  0.354E-03    0.63       3.0  T
   7   -198.8663370 -0.142022E-05  0.128E-03    0.63       8.3  T
   8   -198.8663371 -0.821585E-07  0.674E-04    0.63      15.9  T
     SCC iter.                  ...        0 min,  0.131 sec
     gradient                   ...        0 min,  0.017 sec
 * total energy  :  -195.7286495 Eh     change       -0.4406916E-03 Eh
   gradient norm :     0.0153603 Eh/α   predicted    -0.6445502E-03 (  46.26%)
   displ. norm   :     0.4174686 α      lambda       -0.1001951E-02
   maximum displ.:     0.2220364 α      in ANC's #4, #7, #5, ...

........................................................................
.............................. CYCLE   28 ..............................
........................................................................
   1   -198.8651578 -0.198865E+03  0.169E-01    0.63       0.0  T
   2   -198.8651855 -0.276566E-04  0.910E-02    0.63       1.0  T
   3   -198.8651178  0.677082E-04  0.326E-02    0.63       1.0  T
   4   -198.8651965 -0.787137E-04  0.108E-02    0.63       1.0  T
   5   -198.8651993 -0.280142E-05  0.592E-03    0.63       1.8  T
   6   -198.8652005 -0.117593E-05  0.343E-03    0.63       3.1  T
   7   -198.8652019 -0.143330E-05  0.141E-03    0.63       7.6  T
   8   -198.8652021 -0.178124E-06  0.643E-04    0.63      16.7  T
     SCC iter.                  ...        0 min,  0.131 sec
     gradient                   ...        0 min,  0.017 sec
 * total energy  :  -195.7293879 Eh     change       -0.7384068E-03 Eh
   gradient norm :     0.0171834 Eh/α   predicted    -0.5882864E-03 ( -20.33%)
   displ. norm   :     0.6082965 α      lambda       -0.1211643E-02
   maximum displ.:     0.3320461 α      in ANC's #4, #7, #5, ...

........................................................................
.............................. CYCLE   29 ..............................
........................................................................
   1   -198.8651919 -0.198865E+03  0.233E-01    0.63       0.0  T
   2   -198.8652415 -0.496112E-04  0.125E-01    0.63       1.0  T
   3   -198.8650259  0.215643E-03  0.538E-02    0.63       1.0  T
   4   -198.8652711 -0.245205E-03  0.156E-02    0.63       1.0  T
   5   -198.8652778 -0.673769E-05  0.703E-03    0.63       1.5  T
   6   -198.8652796 -0.176055E-05  0.306E-03    0.63       3.5  T
   7   -198.8652802 -0.630186E-06  0.152E-03    0.63       7.1  T
   8   -198.8652803 -0.818063E-07  0.115E-03    0.63       9.4  T
     SCC iter.                  ...        0 min,  0.137 sec
     gradient                   ...        0 min,  0.019 sec
 * total energy  :  -195.7300777 Eh     change       -0.6898370E-03 Eh
   gradient norm :     0.0118220 Eh/α   predicted    -0.8299931E-03 (  20.32%)
   displ. norm   :     0.6288709 α      lambda       -0.1386960E-02
   maximum displ.:     0.3527599 α      in ANC's #4, #7, #5, ...

........................................................................
.............................. CYCLE   30 ..............................
........................................................................
   1   -198.8713050 -0.198871E+03  0.236E-01    0.63       0.0  T
   2   -198.8713613 -0.562723E-04  0.126E-01    0.63       1.0  T
   3   -198.8712627  0.985466E-04  0.394E-02    0.63       1.0  T
   4   -198.8713679 -0.105235E-03  0.179E-02    0.63       1.0  T
   5   -198.8713761 -0.812188E-05  0.108E-02    0.63       1.0  T
   6   -198.8713834 -0.732541E-05  0.635E-03    0.63       1.7  T
   7   -198.8713883 -0.488764E-05  0.173E-03    0.63       6.2  T
   8   -198.8713885 -0.187084E-06  0.923E-04    0.63      11.6  T
   9   -198.8713885 -0.297174E-07  0.433E-04    0.63      24.7  T
     SCC iter.                  ...        0 min,  0.149 sec
     gradient                   ...        0 min,  0.017 sec
 * total energy  :  -195.7308798 Eh     change       -0.8020897E-03 Eh
   gradient norm :     0.0223573 Eh/α   predicted    -0.9677392E-03 (  20.65%)
   displ. norm   :     0.6029832 α      lambda       -0.1241814E-02
   maximum displ.:     0.3414889 α      in ANC's #4, #7, #5, ...

........................................................................
.............................. CYCLE   31 ..............................
........................................................................
   1   -198.8679930 -0.198868E+03  0.198E-01    0.63       0.0  T
   2   -198.8680304 -0.374292E-04  0.106E-01    0.63       1.0  T
   3   -198.8679479  0.824548E-04  0.352E-02    0.63       1.0  T
   4   -198.8680313 -0.833581E-04  0.163E-02    0.63       1.0  T
   5   -198.8680397 -0.835694E-05  0.962E-03    0.63       1.1  T
   6   -198.8680460 -0.632558E-05  0.558E-03    0.63       1.9  T
   7   -198.8680498 -0.382793E-05  0.152E-03    0.63       7.1  T
   8   -198.8680499 -0.132428E-06  0.811E-04    0.63      13.2  T
     SCC iter.                  ...        0 min,  0.132 sec
     gradient                   ...        0 min,  0.017 sec
 * total energy  :  -195.7318437 Eh     change       -0.9638619E-03 Eh
   gradient norm :     0.0122354 Eh/α   predicted    -0.8466657E-03 ( -12.16%)
   displ. norm   :     0.6808641 α      lambda       -0.1303400E-02
   maximum displ.:     0.3912017 α      in ANC's #4, #7, #5, ...

........................................................................
.............................. CYCLE   32 ..............................
........................................................................
   1   -198.8692869 -0.198869E+03  0.207E-01    0.63       0.0  T
   2   -198.8693198 -0.329061E-04  0.111E-01    0.63       1.0  T
   3   -198.8691009  0.218951E-03  0.473E-02    0.63       1.0  T
   4   -198.8692978 -0.196902E-03  0.219E-02    0.63       1.0  T
   5   -198.8693211 -0.233092E-04  0.141E-02    0.63       1.0  T
   6   -198.8693432 -0.221750E-04  0.401E-03    0.63       2.7  T
   7   -198.8693448 -0.154495E-05  0.116E-03    0.63       9.2  T
   8   -198.8693448 -0.216687E-07  0.766E-04    0.63      14.0  T
     SCC iter.                  ...        0 min,  0.132 sec
     gradient                   ...        0 min,  0.017 sec
 * total energy  :  -195.7328499 Eh     change       -0.1006284E-02 Eh
   gradient norm :     0.0147005 Eh/α   predicted    -0.9538159E-03 (  -5.21%)
   displ. norm   :     0.7997601 α      lambda       -0.1232720E-02
   maximum displ.:     0.4621144 α      in ANC's #4, #7, #5, ...

........................................................................
.............................. CYCLE   33 ..............................
........................................................................
   1   -198.8711577 -0.198871E+03  0.251E-01    0.63       0.0  T
   2   -198.8712151 -0.573991E-04  0.133E-01    0.63       1.0  T
   3   -198.8711516  0.635343E-04  0.359E-02    0.63       1.0  T
   4   -198.8712055 -0.539272E-04  0.221E-02    0.63       1.0  T
   5   -198.8712258 -0.202494E-04  0.108E-02    0.63       1.0  T
   6   -198.8712313 -0.550325E-05  0.629E-03    0.63       1.7  T
   7   -198.8712371 -0.587497E-05  0.146E-03    0.63       7.3  T
   8   -198.8712372 -0.108882E-06  0.842E-04    0.63      12.7  T
   9   -198.8712373 -0.192416E-07  0.388E-04    0.63      27.6  T
     SCC iter.                  ...        0 min,  0.148 sec
     gradient                   ...        0 min,  0.017 sec
 * total energy  :  -195.7339463 Eh     change       -0.1096401E-02 Eh
   gradient norm :     0.0107006 Eh/α   predicted    -0.1010595E-02 (  -7.83%)
   displ. norm   :     0.8375579 α      lambda       -0.1310862E-02
   maximum displ.:     0.4969278 α      in ANC's #4, #7, #5, ...

........................................................................
.............................. CYCLE   34 ..............................
........................................................................
   1   -198.8740655 -0.198874E+03  0.271E-01    0.62       0.0  T
   2   -198.8741283 -0.627534E-04  0.144E-01    0.62       1.0  T
   3   -198.8739937  0.134541E-03  0.419E-02    0.62       1.0  T
   4   -198.8740544 -0.606170E-04  0.305E-02    0.62       1.0  T
   5   -198.8741264 -0.720474E-04  0.158E-02    0.62       1.0  T
   6   -198.8741524 -0.260296E-04  0.500E-03    0.62       2.1  T
   7   -198.8741551 -0.263462E-05  0.143E-03    0.62       7.5  T
   8   -198.8741551 -0.568740E-07  0.893E-04    0.62      12.0  T
     SCC iter.                  ...        0 min,  0.132 sec
     gradient                   ...        0 min,  0.017 sec
 * total energy  :  -195.7350826 Eh     change       -0.1136202E-02 Eh
   gradient norm :     0.0111456 Eh/α   predicted    -0.1115224E-02 (  -1.85%)
   displ. norm   :     0.8323713 α      lambda       -0.1319993E-02
   maximum displ.:     0.4991599 α      in ANC's #4, #7, #5, ...

........................................................................
.............................. CYCLE   35 ..............................
........................................................................
   1   -198.8819927 -0.198882E+03  0.265E-01    0.62       0.0  T
   2   -198.8820417 -0.490639E-04  0.142E-01    0.62       1.0  T
   3   -198.8817828  0.258916E-03  0.491E-02    0.62       1.0  T
   4   -198.8819650 -0.182182E-03  0.311E-02    0.62       1.0  T
   5   -198.8820517 -0.867534E-04  0.146E-02    0.62       1.0  T
   6   -198.8820689 -0.172083E-04  0.493E-03    0.62       2.2  T
   7   -198.8820715 -0.255987E-05  0.142E-03    0.62       7.5  T
   8   -198.8820716 -0.492635E-07  0.942E-04    0.62      11.4  T
     SCC iter.                  ...        0 min,  0.136 sec
     gradient                   ...        0 min,  0.019 sec
 * total energy  :  -195.7361713 Eh     change       -0.1088735E-02 Eh
   gradient norm :     0.0161248 Eh/α   predicted    -0.1117288E-02 (   2.62%)
   displ. norm   :     0.8510170 α      lambda       -0.1238682E-02
   maximum displ.:     0.5179035 α      in ANC's #4, #7, #5, ...

........................................................................
.............................. CYCLE   36 ..............................
........................................................................
   1   -198.8706106 -0.198871E+03  0.268E-01    0.62       0.0  T
   2   -198.8706573 -0.467083E-04  0.144E-01    0.61       1.0  T
   3   -198.8703015  0.355826E-03  0.580E-02    0.62       1.0  T
   4   -198.8706163 -0.314802E-03  0.276E-02    0.62       1.0  T
   5   -198.8706604 -0.440740E-04  0.167E-02    0.62       1.0  T
   6   -198.8706917 -0.312830E-04  0.390E-03    0.62       2.8  T
   7   -198.8706930 -0.130409E-05  0.135E-03    0.62       7.9  T
   8   -198.8706930 -0.963723E-08  0.916E-04    0.62      11.7  T
     SCC iter.                  ...        0 min,  0.132 sec
     gradient                   ...        0 min,  0.017 sec
 * total energy  :  -195.7371864 Eh     change       -0.1015161E-02 Eh
   gradient norm :     0.0109575 Eh/α   predicted    -0.1067884E-02 (   5.19%)
   displ. norm   :     0.7708464 α      lambda       -0.1214010E-02
   maximum displ.:     0.4650331 α      in ANC's #4, #7, #5, ...

........................................................................
.............................. CYCLE   37 ..............................
........................................................................
   1   -198.8840034 -0.198884E+03  0.242E-01    0.62       0.0  T
   2   -198.8840297 -0.262456E-04  0.131E-01    0.61       1.0  T
   3   -198.8832797  0.749996E-03  0.756E-02    0.62       1.0  T
   4   -198.8840194 -0.739756E-03  0.259E-02    0.61       1.0  T
   5   -198.8840583 -0.388961E-04  0.175E-02    0.61       1.0  T
   6   -198.8840874 -0.291064E-04  0.445E-03    0.61       2.4  T
   7   -198.8840890 -0.160281E-05  0.140E-03    0.61       7.7  T
   8   -198.8840891 -0.850228E-07  0.820E-04    0.61      13.1  T
     SCC iter.                  ...        0 min,  0.132 sec
     gradient                   ...        0 min,  0.017 sec
 * total energy  :  -195.7380136 Eh     change       -0.8271649E-03 Eh
   gradient norm :     0.0176869 Eh/α   predicted    -0.9676948E-03 (  16.99%)
   displ. norm   :     0.7993792 α      lambda       -0.1297404E-02
   maximum displ.:     0.4869113 α      in ANC's #4, #7, #5, ...

........................................................................
.............................. CYCLE   38 ..............................
........................................................................
   1   -198.8677291 -0.198868E+03  0.275E-01    0.60       0.0  T
   2   -198.8677882 -0.591324E-04  0.146E-01    0.60       1.0  T
   3   -198.8675622  0.225956E-03  0.548E-02    0.60       1.0  T
   4   -198.8678098 -0.247603E-03  0.215E-02    0.60       1.0  T
   5   -198.8678175 -0.766889E-05  0.110E-02    0.60       1.0  T
   6   -198.8678253 -0.783331E-05  0.461E-03    0.60       2.3  T
   7   -198.8678280 -0.271280E-05  0.185E-03    0.60       5.8  T
   8   -198.8678283 -0.261957E-06  0.103E-03    0.60      10.4  T
     SCC iter.                  ...        0 min,  0.132 sec
     gradient                   ...        0 min,  0.017 sec
 * total energy  :  -195.7386460 Eh     change       -0.6323561E-03 Eh
   gradient norm :     0.0173648 Eh/α   predicted    -0.1063238E-02 (  68.14%)
   displ. norm   :     0.5395381 α      lambda       -0.1215796E-02
   maximum displ.:     0.3378877 α      in ANC's #4, #7, #5, ...

........................................................................
.............................. CYCLE   39 ..............................
........................................................................
   1   -198.8721085 -0.198872E+03  0.165E-01    0.60       0.0  T
   2   -198.8721217 -0.131845E-04  0.904E-02    0.60       1.0  T
   3   -198.8718026  0.319097E-03  0.521E-02    0.60       1.0  T
   4   -198.8721107 -0.308147E-03  0.175E-02    0.60       1.0  T
   5   -198.8721342 -0.235044E-04  0.111E-02    0.60       1.0  T
   6   -198.8721460 -0.117924E-04  0.309E-03    0.60       3.5  T
   7   -198.8721468 -0.791759E-06  0.885E-04    0.60      12.1  T
   8   -198.8721468 -0.246762E-07  0.518E-04    0.60      20.7  T
     SCC iter.                  ...        0 min,  0.133 sec
     gradient                   ...        0 min,  0.017 sec
 * total energy  :  -195.7394002 Eh     change       -0.7542517E-03 Eh
   gradient norm :     0.0166720 Eh/α   predicted    -0.7848552E-03 (   4.06%)
   displ. norm   :     0.6510568 α      lambda       -0.1040089E-02
   maximum displ.:     0.4229333 α      in ANC's #4, #7, #5, ...

........................................................................
.............................. CYCLE   40 ..............................
........................................................................
   1   -198.8702985 -0.198870E+03  0.203E-01    0.60       0.0  T
   2   -198.8703420 -0.434968E-04  0.111E-01    0.60       1.0  T
   3   -198.8701342  0.207743E-03  0.490E-02    0.60       1.0  T
   4   -198.8703654 -0.231163E-03  0.149E-02    0.60       1.0  T
   5   -198.8703712 -0.578893E-05  0.751E-03    0.60       1.4  T
   6   -198.8703716 -0.473225E-06  0.537E-03    0.60       2.0  T
   7   -198.8703757 -0.408217E-05  0.165E-03    0.60       6.5  T
   8   -198.8703760 -0.298634E-06  0.659E-04    0.60      16.3  T
   9   -198.8703760 -0.193845E-07  0.326E-04    0.60      32.9  T
     SCC iter.                  ...        0 min,  0.149 sec
     gradient                   ...        0 min,  0.017 sec
 * total energy  :  -195.7399439 Eh     change       -0.5436545E-03 Eh
   gradient norm :     0.0234931 Eh/α   predicted    -0.7404765E-03 (  36.20%)
   displ. norm   :     0.5761201 α      lambda       -0.1090293E-02
   maximum displ.:     0.3547442 α      in ANC's #4, #7, #9, ...

........................................................................
.............................. CYCLE   41 ..............................
........................................................................
   1   -198.8875613 -0.198888E+03  0.192E-01    0.60       0.0  T
   2   -198.8875871 -0.257596E-04  0.103E-01    0.60       1.0  T
   3   -198.8874434  0.143629E-03  0.416E-02    0.60       1.0  T
   4   -198.8875995 -0.156018E-03  0.142E-02    0.60       1.0  T
   5   -198.8875890  0.104856E-04  0.119E-02    0.60       1.0  T
   6   -198.8876059 -0.169576E-04  0.436E-03    0.60       2.5  T
   7   -198.8876085 -0.258012E-05  0.113E-03    0.60       9.5  T
   8   -198.8876086 -0.764311E-07  0.643E-04    0.60      16.7  T
     SCC iter.                  ...        0 min,  0.132 sec
     gradient                   ...        0 min,  0.017 sec
 * total energy  :  -195.7405494 Eh     change       -0.6055273E-03 Eh
   gradient norm :     0.0235292 Eh/α   predicted    -0.7260812E-03 (  19.91%)
   displ. norm   :     0.6051011 α      lambda       -0.1168254E-02
   maximum displ.:     0.3969656 α      in ANC's #4, #7, #9, ...

........................................................................
.............................. CYCLE   42 ..............................
........................................................................
   1   -198.8816005 -0.198882E+03  0.208E-01    0.60       0.0  T
   2   -198.8816558 -0.552364E-04  0.110E-01    0.60       1.0  T
   3   -198.8815451  0.110633E-03  0.408E-02    0.60       1.0  T
   4   -198.8816703 -0.125185E-03  0.154E-02    0.60       1.0  T
   5   -198.8816629  0.741112E-05  0.127E-02    0.60       1.0  T
   6   -198.8816776 -0.147572E-04  0.659E-03    0.60       1.6  T
   7   -198.8816835 -0.588836E-05  0.149E-03    0.60       7.2  T
   8   -198.8816837 -0.177581E-06  0.779E-04    0.60      13.8  T
     SCC iter.                  ...        0 min,  0.132 sec
     gradient                   ...        0 min,  0.017 sec
 * total energy  :  -195.7411077 Eh     change       -0.5582891E-03 Eh
   gradient norm :     0.0224541 Eh/α   predicted    -0.7980094E-03 (  42.94%)
   displ. norm   :     0.5991958 α      lambda       -0.9637780E-03
   maximum displ.:     0.3909850 α      in ANC's #4, #7, #5, ...
 * RMSD in coord.:     1.2498896 α      energy gain  -0.1549372E-01 Eh

generating ANC from model Hessian ...
Using Lindh-Hessian (1995)
 Shifting diagonal of input Hessian by   5.003070334770778E-003
 Lowest  eigenvalues of input Hessian
    0.005000   -0.000000   -0.000000    0.000000    0.000000    0.000000
    0.000000    0.005016    0.005061    0.005081    0.005179    0.005281
    0.005295    0.005414    0.005457    0.005647    0.005810    0.006012
 Highest eigenvalues
    2.591019    2.592192    2.651292    2.655837    2.660227    2.664354
 

........................................................................
.............................. CYCLE   43 ..............................
........................................................................
   1   -198.8730371 -0.198873E+03  0.185E-01    0.59       0.0  T
   2   -198.8730711 -0.339850E-04  0.100E-01    0.59       1.0  T
   3   -198.8727888  0.282280E-03  0.529E-02    0.59       1.0  T
   4   -198.8730763 -0.287505E-03  0.186E-02    0.59       1.0  T
   5   -198.8730861 -0.979107E-05  0.141E-02    0.59       1.0  T
   6   -198.8731066 -0.205209E-04  0.620E-03    0.59       1.7  T
   7   -198.8731113 -0.464653E-05  0.130E-03    0.59       8.3  T
   8   -198.8731114 -0.109673E-06  0.585E-04    0.59      18.3  T
   9   -198.8731114 -0.734951E-08  0.371E-04    0.59      28.9  T
     SCC iter.                  ...        0 min,  0.149 sec
     gradient                   ...        0 min,  0.018 sec
 * total energy  :  -195.7416976 Eh     change       -0.5898806E-03 Eh
   gradient norm :     0.0170503 Eh/α   predicted     0.0000000E+00 (-100.00%)
   displ. norm   :     0.1940718 α      lambda       -0.6057146E-03
   maximum displ.:     0.1064316 α      in ANC's #4, #5, #1, ...

........................................................................
.............................. CYCLE   44 ..............................
........................................................................
   1   -198.8817834 -0.198882E+03  0.102E-01    0.59       0.0  T
   2   -198.8817958 -0.123393E-04  0.549E-02    0.59       1.0  T
   3   -198.8817277  0.680476E-04  0.267E-02    0.59       1.0  T
   4   -198.8817929 -0.651896E-04  0.988E-03    0.59       1.1  T
   5   -198.8817999 -0.701869E-05  0.642E-03    0.59       1.7  T
   6   -198.8818047 -0.475318E-05  0.233E-03    0.59       4.6  T
   7   -198.8818052 -0.484855E-06  0.791E-04    0.59      13.6  T
   8   -198.8818052 -0.387091E-07  0.428E-04    0.59      25.0  T
     SCC iter.                  ...        0 min,  0.132 sec
     gradient                   ...        0 min,  0.017 sec
 * total energy  :  -195.7420421 Eh     change       -0.3445113E-03 Eh
   gradient norm :     0.0073547 Eh/α   predicted    -0.3142643E-03 (  -8.78%)
   displ. norm   :     0.1908354 α      lambda       -0.4473104E-03
   maximum displ.:     0.0812589 α      in ANC's #4, #5, #28, ...

........................................................................
.............................. CYCLE   45 ..............................
........................................................................
   1   -198.8897075 -0.198890E+03  0.112E-01    0.60       0.0  T
   2   -198.8897194 -0.118551E-04  0.614E-02    0.60       1.0  T
   3   -198.8896326  0.867942E-04  0.320E-02    0.60       1.0  T
   4   -198.8897314 -0.988763E-04  0.633E-03    0.60       1.7  T
   5   -198.8897303  0.114388E-05  0.528E-03    0.60       2.0  T
   6   -198.8897323 -0.204907E-05  0.297E-03    0.60       3.6  T
   7   -198.8897335 -0.119206E-05  0.915E-04    0.60      11.7  T
     SCC iter.                  ...        0 min,  0.115 sec
     gradient                   ...        0 min,  0.017 sec
 * total energy  :  -195.7421432 Eh     change       -0.1011339E-03 Eh
   gradient norm :     0.0131579 Eh/α   predicted    -0.2318049E-03 ( 129.21%)
   displ. norm   :     0.1239961 α      lambda       -0.3251006E-03
   maximum displ.:     0.0632016 α      in ANC's #4, #5, #1, ...

........................................................................
.............................. CYCLE   46 ..............................
........................................................................
   1   -198.8873686 -0.198887E+03  0.634E-02    0.60       0.0  T
   2   -198.8873723 -0.372816E-05  0.345E-02    0.60       1.0  T
   3   -198.8873594  0.128996E-04  0.134E-02    0.60       1.0  T
   4   -198.8873749 -0.154698E-04  0.303E-03    0.60       3.5  T
   5   -198.8873749  0.451749E-08  0.190E-03    0.60       5.6  T
   6   -198.8873752 -0.315048E-06  0.599E-04    0.60      17.9  T
     SCC iter.                  ...        0 min,  0.099 sec
     gradient                   ...        0 min,  0.017 sec
 * total energy  :  -195.7423469 Eh     change       -0.2036924E-03 Eh
   gradient norm :     0.0055658 Eh/α   predicted    -0.1650514E-03 ( -18.97%)
   displ. norm   :     0.2572250 α      lambda       -0.4148604E-03
   maximum displ.:     0.1327437 α      in ANC's #4, #5, #1, ...

........................................................................
.............................. CYCLE   47 ..............................
........................................................................
   1   -198.8789252 -0.198879E+03  0.120E-01    0.60       0.0  T
   2   -198.8789375 -0.122636E-04  0.646E-02    0.60       1.0  T
   3   -198.8788425  0.950042E-04  0.315E-02    0.60       1.0  T
   4   -198.8789418 -0.993181E-04  0.896E-03    0.60       1.2  T
   5   -198.8789428 -0.100332E-05  0.758E-03    0.60       1.4  T
   6   -198.8789504 -0.764001E-05  0.159E-03    0.60       6.7  T
   7   -198.8789506 -0.207484E-06  0.658E-04    0.60      16.3  T
   8   -198.8789507 -0.896389E-08  0.378E-04    0.60      28.4  T
     SCC iter.                  ...        0 min,  0.132 sec
     gradient                   ...        0 min,  0.017 sec
 * total energy  :  -195.7424514 Eh     change       -0.1044491E-03 Eh
   gradient norm :     0.0140033 Eh/α   predicted    -0.2211574E-03 ( 111.74%)
   displ. norm   :     0.2027081 α      lambda       -0.3649423E-03
   maximum displ.:     0.1066405 α      in ANC's #4, #5, #1, ...

........................................................................
.............................. CYCLE   48 ..............................
........................................................................
   1   -198.8803125 -0.198880E+03  0.841E-02    0.60       0.0  T
   2   -198.8803187 -0.625093E-05  0.449E-02    0.60       1.0  T
   3   -198.8803045  0.142220E-04  0.140E-02    0.60       1.0  T
   4   -198.8803196 -0.150722E-04  0.583E-03    0.60       1.8  T
   5   -198.8803181  0.153010E-05  0.539E-03    0.60       2.0  T
   6   -198.8803222 -0.410862E-05  0.124E-03    0.60       8.7  T
   7   -198.8803223 -0.164754E-06  0.525E-04    0.60      20.4  T
   8   -198.8803224 -0.113492E-07  0.294E-04    0.60      36.4  T
     SCC iter.                  ...        0 min,  0.132 sec
     gradient                   ...        0 min,  0.017 sec
 * total energy  :  -195.7426916 Eh     change       -0.2402147E-03 Eh
   gradient norm :     0.0083966 Eh/α   predicted    -0.1899728E-03 ( -20.92%)
   displ. norm   :     0.3740202 α      lambda       -0.4942554E-03
   maximum displ.:     0.2016011 α      in ANC's #4, #5, #1, ...

........................................................................
.............................. CYCLE   49 ..............................
........................................................................
   1   -198.8853192 -0.198885E+03  0.138E-01    0.60       0.0  T
   2   -198.8853345 -0.153734E-04  0.737E-02    0.60       1.0  T
   3   -198.8852430  0.915244E-04  0.291E-02    0.60       1.0  T
   4   -198.8853281 -0.850638E-04  0.126E-02    0.60       1.0  T
   5   -198.8853361 -0.803738E-05  0.890E-03    0.60       1.2  T
   6   -198.8853457 -0.953548E-05  0.173E-03    0.60       6.2  T
   7   -198.8853459 -0.226541E-06  0.806E-04    0.60      13.3  T
   8   -198.8853459 -0.252681E-07  0.415E-04    0.60      25.8  T
     SCC iter.                  ...        0 min,  0.132 sec
     gradient                   ...        0 min,  0.017 sec
 * total energy  :  -195.7428309 Eh     change       -0.1393736E-03 Eh
   gradient norm :     0.0108041 Eh/α   predicted    -0.2816991E-03 ( 102.12%)
   displ. norm   :     0.3128717 α      lambda       -0.4900272E-03
   maximum displ.:     0.1694271 α      in ANC's #4, #5, #1, ...

........................................................................
.............................. CYCLE   50 ..............................
........................................................................
   1   -198.8840771 -0.198884E+03  0.127E-01    0.60       0.0  T
   2   -198.8840903 -0.132317E-04  0.683E-02    0.60       1.0  T
   3   -198.8840665  0.238437E-04  0.174E-02    0.60       1.0  T
   4   -198.8840919 -0.254616E-04  0.779E-03    0.60       1.4  T
   5   -198.8840904  0.159142E-05  0.693E-03    0.60       1.5  T
   6   -198.8840972 -0.684461E-05  0.135E-03    0.60       8.0  T
   7   -198.8840974 -0.179318E-06  0.601E-04    0.60      17.8  T
   8   -198.8840974 -0.761466E-08  0.351E-04    0.60      30.5  T
     SCC iter.                  ...        0 min,  0.137 sec
     gradient                   ...        0 min,  0.019 sec
 * total energy  :  -195.7430854 Eh     change       -0.2544211E-03 Eh
   gradient norm :     0.0084907 Eh/α   predicted    -0.2689977E-03 (   5.73%)
   displ. norm   :     0.3935896 α      lambda       -0.6907310E-03
   maximum displ.:     0.2084805 α      in ANC's #4, #5, #1, ...

........................................................................
.............................. CYCLE   51 ..............................
........................................................................
   1   -198.8769847 -0.198877E+03  0.171E-01    0.60       0.0  T
   2   -198.8770114 -0.267589E-04  0.928E-02    0.60       1.0  T
   3   -198.8768924  0.118970E-03  0.349E-02    0.60       1.0  T
   4   -198.8770117 -0.119263E-03  0.123E-02    0.60       1.0  T
   5   -198.8770184 -0.666718E-05  0.907E-03    0.60       1.2  T
   6   -198.8770292 -0.108268E-04  0.222E-03    0.60       4.8  T
   7   -198.8770296 -0.441199E-06  0.871E-04    0.60      12.3  T
   8   -198.8770297 -0.195362E-07  0.550E-04    0.60      19.5  T
     SCC iter.                  ...        0 min,  0.135 sec
     gradient                   ...        0 min,  0.017 sec
 * total energy  :  -195.7432023 Eh     change       -0.1169051E-03 Eh
   gradient norm :     0.0167822 Eh/α   predicted    -0.3988667E-03 ( 241.19%)
   displ. norm   :     0.2516104 α      lambda       -0.6456914E-03
   maximum displ.:     0.1312138 α      in ANC's #4, #5, #1, ...

........................................................................
.............................. CYCLE   52 ..............................
........................................................................
   1   -198.8807695 -0.198881E+03  0.110E-01    0.60       0.0  T
   2   -198.8807820 -0.124924E-04  0.596E-02    0.60       1.0  T
   3   -198.8807697  0.123500E-04  0.140E-02    0.60       1.0  T
   4   -198.8807849 -0.152537E-04  0.619E-03    0.60       1.7  T
   5   -198.8807852 -0.304929E-06  0.423E-03    0.60       2.5  T
   6   -198.8807870 -0.178874E-05  0.181E-03    0.60       5.9  T
   7   -198.8807875 -0.440324E-06  0.705E-04    0.60      15.2  T
     SCC iter.                  ...        0 min,  0.118 sec
     gradient                   ...        0 min,  0.017 sec
 * total energy  :  -195.7435306 Eh     change       -0.3283502E-03 Eh
   gradient norm :     0.0092270 Eh/α   predicted    -0.3432853E-03 (   4.55%)
   displ. norm   :     0.3862062 α      lambda       -0.6053829E-03
   maximum displ.:     0.2115933 α      in ANC's #4, #5, #1, ...

........................................................................
.............................. CYCLE   53 ..............................
........................................................................
   1   -198.8845582 -0.198885E+03  0.150E-01    0.60       0.0  T
   2   -198.8845756 -0.174563E-04  0.810E-02    0.60       1.0  T
   3   -198.8844569  0.118787E-03  0.349E-02    0.60       1.0  T
   4   -198.8845744 -0.117530E-03  0.120E-02    0.60       1.0  T
   5   -198.8845790 -0.461743E-05  0.962E-03    0.60       1.1  T
   6   -198.8845909 -0.118537E-04  0.207E-03    0.60       5.2  T
   7   -198.8845913 -0.400795E-06  0.732E-04    0.60      14.7  T
   8   -198.8845913 -0.828979E-08  0.439E-04    0.60      24.4  T
     SCC iter.                  ...        0 min,  0.134 sec
     gradient                   ...        0 min,  0.017 sec
 * total energy  :  -195.7437740 Eh     change       -0.2433692E-03 Eh
   gradient norm :     0.0101148 Eh/α   predicted    -0.3478412E-03 (  42.93%)
   displ. norm   :     0.4113064 α      lambda       -0.3874559E-03
   maximum displ.:     0.2328608 α      in ANC's #4, #5, #1, ...

........................................................................
.............................. CYCLE   54 ..............................
........................................................................
   1   -198.8814568 -0.198881E+03  0.123E-01    0.60       0.0  T
   2   -198.8814673 -0.105188E-04  0.661E-02    0.60       1.0  T
   3   -198.8814450  0.223117E-04  0.181E-02    0.60       1.0  T
   4   -198.8814624 -0.174074E-04  0.103E-02    0.60       1.0  T
   5   -198.8814625 -0.161358E-06  0.778E-03    0.60       1.4  T
   6   -198.8814721 -0.958246E-05  0.174E-03    0.60       6.1  T
   7   -198.8814725 -0.326974E-06  0.582E-04    0.60      18.4  T
   8   -198.8814725 -0.371759E-08  0.371E-04    0.60      28.9  T
     SCC iter.                  ...        0 min,  0.134 sec
     gradient                   ...        0 min,  0.017 sec
 * total energy  :  -195.7441096 Eh     change       -0.3355748E-03 Eh
   gradient norm :     0.0052011 Eh/α   predicted    -0.2265064E-03 ( -32.50%)
   displ. norm   :     0.6196129 α      lambda       -0.5369288E-03
   maximum displ.:     0.3499246 α      in ANC's #4, #5, #1, ...

........................................................................
.............................. CYCLE   55 ..............................
........................................................................
   1   -198.8811254 -0.198881E+03  0.181E-01    0.59       0.0  T
   2   -198.8811461 -0.207105E-04  0.976E-02    0.59       1.0  T
   3   -198.8810653  0.807751E-04  0.304E-02    0.59       1.0  T
   4   -198.8811246 -0.592527E-04  0.174E-02    0.59       1.0  T
   5   -198.8811379 -0.132829E-04  0.115E-02    0.59       1.0  T
   6   -198.8811573 -0.194342E-04  0.258E-03    0.59       4.2  T
   7   -198.8811580 -0.671037E-06  0.905E-04    0.59      11.9  T
   8   -198.8811580 -0.189323E-07  0.559E-04    0.59      19.2  T
     SCC iter.                  ...        0 min,  0.137 sec
     gradient                   ...        0 min,  0.019 sec
 * total energy  :  -195.7445067 Eh     change       -0.3971091E-03 Eh
   gradient norm :     0.0053624 Eh/α   predicted    -0.3715356E-03 (  -6.44%)
   displ. norm   :     0.6930800 α      lambda       -0.5069044E-03
   maximum displ.:     0.3942310 α      in ANC's #4, #5, #1, ...

........................................................................
.............................. CYCLE   56 ..............................
........................................................................
   1   -198.8781965 -0.198878E+03  0.213E-01    0.59       0.0  T
   2   -198.8782248 -0.282852E-04  0.115E-01    0.59       1.0  T
   3   -198.8781260  0.988515E-04  0.349E-02    0.59       1.0  T
   4   -198.8782069 -0.808815E-04  0.184E-02    0.59       1.0  T
   5   -198.8782082 -0.136784E-05  0.146E-02    0.59       1.0  T
   6   -198.8782405 -0.322952E-04  0.276E-03    0.59       3.9  T
   7   -198.8782412 -0.704623E-06  0.106E-03    0.59      10.1  T
   8   -198.8782413 -0.235431E-07  0.596E-04    0.59      18.0  T
     SCC iter.                  ...        0 min,  0.134 sec
     gradient                   ...        0 min,  0.017 sec
 * total energy  :  -195.7448611 Eh     change       -0.3544239E-03 Eh
   gradient norm :     0.0110589 Eh/α   predicted    -0.3752021E-03 (   5.86%)
   displ. norm   :     0.6696848 α      lambda       -0.5018087E-03
   maximum displ.:     0.3810932 α      in ANC's #4, #5, #1, ...

........................................................................
.............................. CYCLE   57 ..............................
........................................................................
   1   -198.8764325 -0.198876E+03  0.197E-01    0.59       0.0  T
   2   -198.8764568 -0.243418E-04  0.106E-01    0.59       1.0  T
   3   -198.8764359  0.209589E-04  0.220E-02    0.59       1.0  T
   4   -198.8764385 -0.261719E-05  0.169E-02    0.59       1.0  T
   5   -198.8764523 -0.137881E-04  0.934E-03    0.59       1.1  T
   6   -198.8764658 -0.135185E-04  0.227E-03    0.59       4.7  T
   7   -198.8764664 -0.570312E-06  0.914E-04    0.59      11.7  T
   8   -198.8764664 -0.241866E-07  0.489E-04    0.59      21.9  T
     SCC iter.                  ...        0 min,  0.134 sec
     gradient                   ...        0 min,  0.017 sec
 * total energy  :  -195.7452548 Eh     change       -0.3937204E-03 Eh
   gradient norm :     0.0093243 Eh/α   predicted    -0.3634346E-03 (  -7.69%)
   displ. norm   :     0.6691119 α      lambda       -0.5396713E-03
   maximum displ.:     0.3800843 α      in ANC's #4, #5, #1, ...

........................................................................
.............................. CYCLE   58 ..............................
........................................................................
   1   -198.8813216 -0.198881E+03  0.198E-01    0.59       0.0  T
   2   -198.8813460 -0.244504E-04  0.106E-01    0.58       1.0  T
   3   -198.8813377  0.835540E-05  0.200E-02    0.59       1.0  T
   4   -198.8813401 -0.243246E-05  0.143E-02    0.58       1.0  T
   5   -198.8813538 -0.136960E-04  0.342E-03    0.58       3.1  T
   6   -198.8813548 -0.987061E-06  0.119E-03    0.58       9.0  T
   7   -198.8813548  0.388218E-08  0.920E-04    0.58      11.7  T
     SCC iter.                  ...        0 min,  0.117 sec
     gradient                   ...        0 min,  0.017 sec
[...]
       170        2.0000           -0.4239955             -11.5375
       171        2.0000           -0.4238507             -11.5336
       172        2.0000           -0.4232556             -11.5174
       173        2.0000           -0.4202825             -11.4365
       174        2.0000           -0.4193384             -11.4108
       175        2.0000           -0.4175263             -11.3615
       176        2.0000           -0.4043938             -11.0041
       177        2.0000           -0.3868782             -10.5275 (HOMO)
       178        0.0000           -0.3652327              -9.9385 (LUMO)
       179                         -0.3535019              -9.6193
       180                         -0.3493175              -9.5054
       181                         -0.3412586              -9.2861
       182                         -0.3385066              -9.2112
       183                         -0.3311253              -9.0104
       184                         -0.3288560              -8.9486
       185                         -0.3168273              -8.6213
       186                         -0.2920780              -7.9478
       187                         -0.2898647              -7.8876
       188                         -0.2735585              -7.4439
       ...                                ...                  ...
       353                          1.1570290              31.4844
      -------------------------------------------------------------
                  HL-Gap            0.0216455 Eh            0.5890 eV
             Fermi-level           -0.3760555 Eh          -10.2330 eV

     #   Z        covCN         q      C6AA      α(0)
     1   6 C      2.873     0.225    23.288     7.911
     2   8 O      0.967    -0.355    20.757     6.111
     3   6 C      3.078    -0.018    28.379     8.734
     4   6 C      3.235    -0.005    27.268     8.473
     5   6 C      3.067    -0.040    28.919     8.818
     6   6 C      2.958    -0.019    28.488     8.754
     7  16 S      2.248     0.087   137.535    19.738
     8   6 C      3.028     0.030    27.293     8.569
     9   6 C      2.947     0.011    27.777     8.644
    10   6 C      1.936     0.125    28.025     8.549
    11   7 N      0.911    -0.225    25.917     7.363
    12   6 C      1.930     0.121    28.127     8.565
    13   7 N      0.911    -0.224    25.897     7.360
    14   6 C      3.023    -0.037    28.890     8.817
    15   6 C      2.916    -0.015    28.377     8.735
    16   6 C      2.992     0.020    27.562     8.612
    17   6 C      3.049    -0.036    28.857     8.810
    18   6 C      3.223    -0.015    27.628     8.543
    19   6 C      3.084     0.006    27.804     8.644
    20  16 S      2.319     0.118   136.328    19.651
    21   6 C      3.083     0.011    27.673     8.624
    22   6 C      3.238    -0.014    27.435     8.495
    23   6 C      3.036     0.038    27.111     8.540
    24   6 C      2.946     0.022    27.506     8.602
    25   6 C      1.921     0.124    28.064     8.555
    26   7 N      0.911    -0.209    25.547     7.310
    27   6 C      1.921     0.125    28.027     8.550
    28   7 N      0.911    -0.214    25.662     7.327
    29   6 C      3.045    -0.042    29.007     8.833
    30   6 C      3.004     0.027    27.379     8.583
    31  16 S      2.363     0.072   138.134    19.781
    32   6 C      2.995    -0.009    28.241     8.717
    33   6 C      2.969     0.065    26.549     8.452
    34   6 C      2.970     0.064    26.553     8.452
    35   7 N      1.982    -0.205    26.241     7.597
    36   6 C      2.750     0.238    23.021     7.857
    37   6 C      2.750     0.238    23.019     7.856
    38   7 N      1.975    -0.204    26.241     7.597
    39   9 F      0.789    -0.166    10.890     3.898
    40   9 F      0.789    -0.167    10.897     3.899
    41   6 C      2.996    -0.009    28.242     8.718
    42   6 C      3.335     0.068    24.161     7.788
    43   6 C      3.334     0.068    24.173     7.792
    44   7 N      1.854    -0.268    27.817     7.817
    45  16 S      2.652     0.433   124.631    18.789
    46   7 N      1.854    -0.269    27.830     7.819
    47   6 C      3.004     0.027    27.377     8.583
    48   6 C      3.046    -0.041    28.967     8.827
    49   6 C      3.241    -0.013    27.393     8.485
    50   6 C      3.082     0.009    27.718     8.631
    51  16 S      2.371     0.074   138.084    19.778
    52   6 C      3.084     0.023    27.392     8.580
    53   6 C      3.249    -0.013    27.299     8.459
    54   6 C      3.041     0.041    27.050     8.530
    55   6 C      2.947     0.025    27.454     8.594
    56   6 C      1.918     0.126    28.004     8.546
    57   7 N      0.911    -0.210    25.573     7.314
    58   6 C      1.921     0.128    27.954     8.539
    59   7 N      0.911    -0.220    25.793     7.345
    60   6 C      3.050    -0.031    28.714     8.788
    61   6 C      2.996     0.023    27.492     8.601
    62  16 S      2.266     0.069   138.281    19.792
    63   6 C      2.939    -0.015    28.392     8.739
    64   6 C      3.025    -0.032    28.774     8.799
    65   6 C      2.872     0.226    23.253     7.905
    66   8 O      0.856    -0.357    20.838     6.120
    67   6 C      3.072    -0.019    28.403     8.738
    68   6 C      3.240    -0.002    27.162     8.451
    69   6 C      3.021     0.035    27.196     8.554
    70   6 C      2.948     0.011    27.776     8.644
    71   6 C      1.931     0.125    28.019     8.548
    72   7 N      0.911    -0.220    25.803     7.347
    73   6 C      1.927     0.125    28.028     8.550
    74   7 N      0.911    -0.238    26.231     7.407
    75   6 C      3.065    -0.039    28.904     8.816
    76   6 C      2.958    -0.019    28.469     8.752
    77  16 S      2.249     0.087   137.562    19.740
    78   1 H      0.926     0.070     2.090     2.261
    79   1 H      0.926     0.067     2.118     2.276
    80   1 H      0.925     0.075     2.032     2.229
    81   1 H      0.926     0.071     2.070     2.250
    82   1 H      0.926     0.089     1.888     2.149
    83   1 H      0.926     0.089     1.886     2.147
    84   1 H      0.926     0.060     2.204     2.322
    85   1 H      0.925     0.085     1.924     2.169
    86   1 H      0.926     0.071     2.075     2.252
    87   1 H      0.926     0.068     2.109     2.271

 Mol. C6AA /au·bohr⁶  :     206774.874849
 Mol. C8AA /au·bohr⁸  :    6213816.525480
 Mol. α(0) /au        :        730.478443


Wiberg/Mayer (AO) data.
largest (>0.10) Wiberg bond orders for each atom
          total WBO             WBO to atom ...
     1  C   3.928        O    2 1.694    C    3 1.076    C   14 1.038
     2  O   2.124        C    1 1.694    S   20 0.134
     3  C   3.928        C    4 1.381    S    7 1.202    C    1 1.076
     4  C   3.970        C    3 1.381    C    5 1.278    C    8 1.098
     5  C   3.981        C    6 1.595    C    4 1.278    H   78 0.957
     6  C   3.933        C    5 1.595    S    7 1.219    H   79 0.969
     7  S   2.705        C    6 1.219    C    3 1.202
     8  C   3.977        C    9 1.492    C   14 1.120    C    4 1.098
     9  C   3.956        C    8 1.492    C   12 1.099    C   10 1.092
    10  C   3.947        N   11 2.777    C    9 1.092
    11  N   2.974        C   10 2.777
    12  C   3.947        N   13 2.763    C    9 1.099
    13  N   2.966        C   12 2.763
    14  C   3.941        C   15 1.530    C    8 1.120    C    1 1.038
    15  C   3.950        C   14 1.530    C   16 1.280    H   80 0.939
    16  C   3.910        C   17 1.364    C   15 1.280    S   20 1.110
    17  C   3.956        C   18 1.403    C   16 1.364    H   81 0.958
    18  C   3.944        C   17 1.403    C   19 1.255    C   23 1.095
    19  C   3.935        C   18 1.255    S   20 1.244    C   21 1.212
    20  S   2.802        C   19 1.244    C   16 1.110    O    2 0.134
    21  C   3.896        C   22 1.275    C   19 1.212    S   31 1.207
    22  C   3.943        C   29 1.372    C   21 1.275    C   23 1.098
    23  C   3.981        C   24 1.515    C   22 1.098    C   18 1.095
    24  C   3.986        C   23 1.515    C   27 1.093    C   25 1.092
    25  C   3.949        N   26 2.787    C   24 1.092
    26  N   2.980        C   25 2.787
    27  C   3.948        N   28 2.785    C   24 1.093
    28  N   2.978        C   27 2.785
    29  C   3.925        C   30 1.401    C   22 1.372    H   82 0.945
    30  C   3.910        C   29 1.401    C   32 1.213    S   31 1.119
    31  S   2.717        C   21 1.207    C   30 1.119
    32  C   3.918        C   33 1.257    C   30 1.213    C   43 1.212
    33  C   3.962        N   38 1.272    C   32 1.257    C   34 1.183
    34  C   3.962        N   35 1.271    C   41 1.258    C   33 1.183
    35  N   3.147        C   36 1.511    C   34 1.271
    36  C   3.874        N   35 1.511    C   37 1.175    F   40 1.001
    37  C   3.874        N   38 1.511    C   36 1.175    F   39 1.002
    38  N   3.144        C   37 1.511    C   33 1.272
    39  F   1.159        C   37 1.002
    40  F   1.158        C   36 1.001
    41  C   3.918        C   34 1.258    C   47 1.213    C   42 1.213
    42  C   3.966        N   46 1.379    C   41 1.213    C   43 1.156
    43  C   3.966        N   44 1.379    C   32 1.212    C   42 1.156
    44  N   3.079        S   45 1.442    C   43 1.379    N   46 0.155
    45  S   3.170        N   44 1.442    N   46 1.442
    46  N   3.079        S   45 1.442    C   42 1.379    N   44 0.155
    47  C   3.914        C   48 1.401    C   41 1.213    S   51 1.119
    48  C   3.926        C   47 1.401    C   49 1.372    H   83 0.945
    49  C   3.947        C   48 1.372    C   50 1.278    C   54 1.095
    50  C   3.895        C   49 1.278    S   51 1.207    C   52 1.207
    51  S   2.719        C   50 1.207    C   47 1.119
    52  C   3.929        C   53 1.284    S   62 1.218    C   50 1.207
    53  C   3.944        C   60 1.361    C   52 1.284    C   54 1.098
    54  C   3.982        C   55 1.512    C   53 1.098    C   49 1.095
    55  C   3.986        C   54 1.512    C   56 1.093    C   58 1.093
    56  C   3.948        N   57 2.787    C   55 1.093
    57  N   2.978        C   56 2.787
    58  C   3.947        N   59 2.783    C   55 1.093
    59  N   2.976        C   58 2.783
    60  C   3.974        C   61 1.414    C   53 1.361    H   84 0.955
    61  C   3.900        C   60 1.414    C   63 1.230    S   62 1.101
    62  S   2.626        C   52 1.218    C   61 1.101
    63  C   3.954        C   64 1.580    C   61 1.230    H   85 0.948
    64  C   3.944        C   63 1.580    C   69 1.121    C   65 0.985
    65  C   3.933        O   66 1.766    C   67 1.069    C   64 0.985
    66  O   2.064        C   65 1.766
    67  C   3.929        C   68 1.380    S   77 1.202    C   65 1.069
    68  C   3.976        C   67 1.380    C   75 1.279    C   69 1.094
    69  C   3.980        C   70 1.488    C   64 1.121    C   68 1.094
    70  C   3.975        C   69 1.488    C   73 1.103    C   71 1.091
    71  C   3.948        N   72 2.781    C   70 1.091
    72  N   2.977        C   71 2.781
    73  C   3.945        N   74 2.762    C   70 1.103
    74  N   2.969        C   73 2.762
    75  C   3.982        C   76 1.596    C   68 1.279    H   86 0.958
    76  C   3.936        C   75 1.596    S   77 1.219    H   87 0.968
    77  S   2.709        C   76 1.219    C   67 1.202
    78  H   0.995        C    5 0.957
    79  H   0.995        C    6 0.969
    80  H   0.993        C   15 0.939
    81  H   0.994        C   17 0.958
    82  H   0.991        C   29 0.945
    83  H   0.991        C   48 0.945
    84  H   0.996        C   60 0.955
    85  H   0.990        C   63 0.948
    86  H   0.995        C   75 0.958
    87  H   0.994        C   76 0.968

molecular dipole:
                 x           y           z       tot (Debye)
 q only:        0.240       1.801       0.830
   full:        0.711       2.448       1.241       7.207
molecular quadrupole (traceless):
                xx          xy          yy          xz          yz          zz
 q only:       77.042      36.997     -27.511      25.505     -18.285     -49.531
  q+dip:      107.173      41.964     -47.288      39.394     -28.102     -59.885
   full:      101.141      33.200     -39.872      48.789     -38.211     -61.269

           -------------------------------------------------
          |                Geometry Summary                 |
           -------------------------------------------------

      molecular mass/u    :     1121.1690000
   center of mass at/Å    :        9.6200077      -3.8580940       3.4098606
  moments of inertia/u·Å² :        0.7795276E+04   0.8923954E+05   0.9602319E+05
rotational constants/cm⁻¹ :        0.2162545E-02   0.1889032E-03   0.1755579E-03

 * 81 selected distances

     #   Z        #   Z                                     value/Å
     1   6 C      2   8 O                                 1.2180116
     3   6 C      4   6 C                                 1.3899714
     4   6 C      5   6 C                                 1.4076502
     5   6 C      6   6 C                                 1.3644362
     3   6 C      7  16 S                                 1.7084272
     6   6 C      7  16 S                                 1.7234485
     4   6 C      8   6 C                                 1.4505042
     8   6 C      9   6 C                                 1.3690132
    10   6 C     11   7 N                                 1.1470859
    12   6 C     13   7 N                                 1.1481268
    14   6 C     15   6 C                                 1.3672459
    15   6 C     16   6 C                                 1.4067480
    16   6 C     17   6 C                                 1.4001250
    17   6 C     18   6 C                                 1.3817334
    18   6 C     19   6 C                                 1.4168496
    19   6 C     20  16 S                                 1.7029544
    19   6 C     21   6 C                                 1.4139969
    21   6 C     22   6 C                                 1.4124035
    23   6 C     24   6 C                                 1.3636849
    25   6 C     26   7 N                                 1.1464246
    27   6 C     28   7 N                                 1.1466419
    22   6 C     29   6 C                                 1.3870983
    29   6 C     30   6 C                                 1.3911529
    21   6 C     31  16 S                                 1.7084452
    30   6 C     31  16 S                                 1.7551619 (max)
    30   6 C     32   6 C                                 1.4204299
    32   6 C     33   6 C                                 1.4124286
    33   6 C     34   6 C                                 1.4331579
    34   6 C     35   7 N                                 1.3478438
    35   7 N     36   6 C                                 1.2935370
    36   6 C     37   6 C                                 1.4200253
    33   6 C     38   7 N                                 1.3477074
    37   6 C     38   7 N                                 1.2935258
    37   6 C     39   9 F                                 1.3279028
    36   6 C     40   9 F                                 1.3281872
    34   6 C     41   6 C                                 1.4120750
    41   6 C     42   6 C                                 1.4156336
    32   6 C     43   6 C                                 1.4159030
    42   6 C     43   6 C                                 1.4459389
    43   6 C     44   7 N                                 1.3340118
    44   7 N     45  16 S                                 1.6011731
    42   6 C     46   7 N                                 1.3340237
    45  16 S     46   7 N                                 1.6012080
    41   6 C     47   6 C                                 1.4202181
    47   6 C     48   6 C                                 1.3910356
    48   6 C     49   6 C                                 1.3868995
    49   6 C     50   6 C                                 1.4121990
    47   6 C     51  16 S                                 1.7545881
    50   6 C     51  16 S                                 1.7086504
    50   6 C     52   6 C                                 1.4147440
    52   6 C     53   6 C                                 1.4115921
    49   6 C     54   6 C                                 1.4535787
    53   6 C     54   6 C                                 1.4521263
    54   6 C     55   6 C                                 1.3640595
    56   6 C     57   7 N                                 1.1464934
    58   6 C     59   7 N                                 1.1469144
    53   6 C     60   6 C                                 1.3879190
    60   6 C     61   6 C                                 1.3877301
    52   6 C     62  16 S                                 1.7015482
    61   6 C     63   6 C                                 1.4133514
    63   6 C     64   6 C                                 1.3593075
    65   6 C     66   8 O                                 1.2084657
    67   6 C     68   6 C                                 1.3912058
    68   6 C     69   6 C                                 1.4514737
    69   6 C     70   6 C                                 1.3698916
    71   6 C     72   7 N                                 1.1468527
    73   6 C     74   7 N                                 1.1481425
    68   6 C     75   6 C                                 1.4070444
    75   6 C     76   6 C                                 1.3642131
    67   6 C     77  16 S                                 1.7091037
    76   6 C     77  16 S                                 1.7238315
     5   6 C     78   1 H                                 1.0739989
     6   6 C     79   1 H                                 1.0725558
    15   6 C     80   1 H                                 1.0839215
    17   6 C     81   1 H                                 1.0758389
    29   6 C     82   1 H                                 1.0743001
    48   6 C     83   1 H                                 1.0743787
    60   6 C     84   1 H                                 1.0745694
    63   6 C     85   1 H                                 1.0860928
    75   6 C     86   1 H                                 1.0740900
    76   6 C     87   1 H                                 1.0725467 (min)

 * 7 distinct bonds (by element types)

   Z      Z             #   av. dist./Å        max./Å        min./Å
   1 H    6 C          10     1.0762293     1.0860928     1.0725467
   6 C    6 C          41     1.4033365     1.4535787     1.3593075
   6 C    7 N          14     1.2233808     1.3478438     1.1464246
   6 C    8 O           2     1.2132387     1.2180116     1.2084657
   6 C    9 F           2     1.3280450     1.3281872     1.3279028
   6 C   16 S          10     1.7196159     1.7551619     1.7015482
   7 N   16 S           2     1.6011906     1.6012080     1.6011731


optimized geometry written to: xtbopt.xyz


           -------------------------------------------------
          | TOTAL ENERGY             -195.748532699070 Eh   |
          | GRADIENT NORM               0.000770594416 Eh/α |
          | HOMO-LUMO GAP               0.589002791263 eV   |
           -------------------------------------------------

------------------------------------------------------------------------
 * finished run on 2021/05/15 at 06:17:08.770     
------------------------------------------------------------------------
 total:
 * wall-time:     0 d,  0 h,  0 min, 25.565 sec
 *  cpu-time:     0 d,  0 h,  5 min,  5.379 sec
 * ratio c/w:    11.945 speedup
 SCF:
 * wall-time:     0 d,  0 h,  0 min,  0.481 sec
 *  cpu-time:     0 d,  0 h,  0 min,  5.268 sec
 * ratio c/w:    10.951 speedup
 ANC optimizer:
 * wall-time:     0 d,  0 h,  0 min, 25.016 sec
 *  cpu-time:     0 d,  0 h,  4 min, 59.493 sec
 * ratio c/w:    11.972 speedup

