      -----------------------------------------------------------      
     |                   =====================                   |     
     |                           x T B                           |     
     |                   =====================                   |     
     |                         S. Grimme                         |     
     |          Mulliken Center for Theoretical Chemistry        |     
     |                    University of Bonn                     |     
     |                Version 6.2 RC2 (SAW190805)                |     
      -----------------------------------------------------------      

   This program is distributed in the hope that it will be useful,
   but WITHOUT ANY WARRANTY; without even the implied warranty of
   MERCHANTABILITY or FITNESS FOR A PARTICULAR PURPOSE.
   
   FOR NON-COMMERCIAL, ACADEMIA USE ONLY.
   
   Cite this work as:
   * S. Grimme, C. Bannwarth, P. Shushkov, J. Chem. Theory Comput., 2017,
     13, 1989-2009. DOI: 10.1021/acs.jctc.7b00118
   * C. Bannwarth, S. Ehlert and S. Grimme., J. Chem. Theory Comput., 2019,
     15, 1652-1671. DOI: 10.1021/acs.jctc.8b01176
   * P. Pracht, E. Caldeweyher, S. Ehlert, S. Grimme, ChemRxiv, 2019, preprint.
     DOI: 10.26434/chemrxiv.8326202.v1
   
   for DFT-D4:
   * E. Caldeweyher, C. Bannwarth and S. Grimme, J. Chem. Phys., 2017,
     147, 034112. DOI: 10.1063/1.4993215
   * E. Caldeweyher, S. Ehlert, A. Hansen, H. Neugebauer, S. Spicher,
     C. Bannwarth and S. Grimme, J. Chem. Phys., 2019, 150, 154122.
     DOI: 10.1063/1.5090222
   
   for sTDA-xTB:
   * S. Grimme and C. Bannwarth, J. Chem. Phys., 2016, 145, 054103.
     DOI: 10.1063/1.4959605
   
   in the mass-spec context:
   * V. Asgeirsson, C. Bauer and S. Grimme, Chem. Sci., 2017, 8, 4879.
     DOI: 10.1039/c7sc00601b
   
   for metadynamics refer to:
   * S. Grimme, J. Chem. Theory Comput., 2019, 155, 2847-2862
     DOI: 10.1021/acs.jctc.9b00143
   
   with help from (in alphabetical order)
   C. Bannwarth, F. Bohle, G. Brandenburg, E. Caldeweyher, M. Checinski,
   S. Dohm, S. Ehlert, S. Ehrlich, F. März, H. Neugebauer, J. Pisarek,
   P. Pracht, P. Shushkov, and S. Spicher.
   
 * started run on 2021/05/10 at 09:24:13.238     

           -------------------------------------------------
          |                Calculation Setup                |
           -------------------------------------------------

          program call               : /ihome/ghutchison/geoffh/xtb/xtb /ihome/ghutchison/blp62/GA/running_GA/GFN2_input/18_19_35_19_18.xyz --opt
          hostname                   : login1.crc.pitt.edu
          coordinate file            : /ihome/ghutchison/blp62/GA/running_GA/GFN2_input/18_19_35_19_18.xyz
          omp threads                :                    12
          number of atoms            :                   103
          number of electrons        :                   350
          charge                     :                     0
          spin                       :                   0.0
          first test random number   :      0.89770717700250


########################################################################
# WARNING! Please study the warnings concerning your input carefully
#  - XTBHOME is not set, using HOME instead
#  - XTBPATH is not set, using XTBHOME instead
########################################################################

           ------------------------------------------------- 
          |                 G F N 2 - x T B                 |
          | Geometry, Frequencies, Noncovalent interactions |
          |            JCTC 2019 parametrisation            |
           ------------------------------------------------- 
             k(s)              :                1.8500
             k(p)              :                2.2300
             k(d)              :                2.2300
             k(f)              :                2.0000
             kEN (H0ij)        :               -2.0000
             D4 a1             :                0.5200
             D4 a2             :                5.0000
             D4 s6             :                1.0000
             D4 s8             :                2.7000
             D4 s9             :                5.0000
             alphaj            :                2.0000

  Z AO/shell   Hii/eV     exponent
  1     Wed Apr 25 08:07:45 CEST 2018   EN: 2.200 GM2: 0.406  GM3: 0.0800  RAES: 1.40
     1s    -10.707211    1.230000
  6     Wed Apr 25 08:07:45 CEST 2018   EN: 2.550 GM2: 0.538  GM3: 0.1500  RAES: 3.00
     2s    -13.970922    2.096432
     2p    -10.063292    1.800000
  7     Wed Apr 25 08:07:45 CEST 2018   EN: 3.040 GM2: 0.461  GM3:-0.0640  RAES: 1.90
     2s    -16.686243    2.339881
     2p    -12.523956    2.014332
  8     Wed Apr 25 08:07:45 CEST 2018   EN: 3.440 GM2: 0.452  GM3:-0.0517  RAES: 1.80
     2s    -20.229985    2.439742
     2p    -15.503117    2.137023
 16     Tue Apr 24 11:44:34 CEST 2018   EN: 2.580 GM2: 0.340  GM3:-0.0502  RAES: 3.10
     3s    -20.029654    1.981333
     3p    -11.377694    2.025643
     3d     -0.420282    1.702555

           ------------------------------------------------- 
          |        Self-Consistent Charge Iterations        |
           ------------------------------------------------- 

          ...................................................
          :                      SETUP                      :
          :.................................................:
          :  # basis functions                 352          :
          :  # atomic orbitals                 348          :
          :  # shells                          182          :
          :  # electrons                       350          :
          :  max. iterations                   250          :
          :  Hamiltonian                  GFN2-xTB          :
          :  restarted?                      false          :
          :  GBSA solvation                  false          :
          :  PC potential                    false          :
          :  electronic temp.          300.0000000     K    :
          :  accuracy                    1.0000000          :
          :  -> integral cutoff          0.2500000E+02      :
          :  -> integral neglect         0.1000000E-07      :
          :  -> SCF convergence          0.1000000E-05 Eh   :
          :  -> wf. convergence          0.1000000E-03 e    :
          :  Broyden damping             0.4000000          :
          ...................................................

 iter      E             dE          RMSdq      gap      omega  full diag
   1   -193.6991662 -0.193699E+03  0.522E+00    1.71       0.0  T
   2   -193.7833993 -0.842331E-01  0.329E+00    1.16       1.0  T
   3   -193.5746372  0.208762E+00  0.230E+00    0.67       1.0  T
   4   -193.9386362 -0.363999E+00  0.711E-01    0.51       1.0  T
   5   -193.9767410 -0.381048E-01  0.231E-01    0.68       1.0  T
   6   -193.9794104 -0.266942E-02  0.931E-02    0.68       1.0  T
   7   -193.9798070 -0.396616E-03  0.461E-02    0.69       1.0  T
   8   -193.9799125 -0.105500E-03  0.254E-02    0.69       1.0  T
   9   -193.9799469 -0.344340E-04  0.144E-02    0.69       1.0  T
  10   -193.9799584 -0.114129E-04  0.626E-03    0.69       1.6  T
  11   -193.9799612 -0.288803E-05  0.178E-03    0.69       5.5  T
  12   -193.9799613 -0.518977E-07  0.104E-03    0.69       9.5  T
  13   -193.9799613 -0.435257E-07  0.529E-04    0.69      18.6  T
  14   -193.9799613 -0.976931E-08  0.274E-04    0.69      36.0  T

   *** convergence criteria satisfied after 14 iterations ***

         #    Occupation            Energy/Eh            Energy/eV
      -------------------------------------------------------------
         1        2.0000           -0.7792592             -21.2047
       ...           ...                  ...                  ...
       169        2.0000           -0.4059238             -11.0457
       170        2.0000           -0.4053738             -11.0308
       171        2.0000           -0.4048251             -11.0159
       172        2.0000           -0.4013052             -10.9201
       173        2.0000           -0.3937978             -10.7158
       174        2.0000           -0.3843139             -10.4577
       175        2.0000           -0.3765675             -10.2469 (HOMO)
       176        0.0000           -0.3512100              -9.5569 (LUMO)
       177                         -0.3371829              -9.1752
       178                         -0.3293813              -8.9629
       179                         -0.3274319              -8.9099
       180                         -0.3228444              -8.7850
       ...                                ...                  ...
       348                          1.0762008              29.2849
      -------------------------------------------------------------
                  HL-Gap            0.0253575 Eh            0.6900 eV
             Fermi-level           -0.3638886 Eh           -9.9019 eV

 SCC (total)                   0 d,  0 h,  0 min,  0.320 sec
 SCC setup                      ...        0 min,  0.003 sec (  0.982%)
 Dispersion                     ...        0 min,  0.007 sec (  2.040%)
 integral evaluation            ...        0 min,  0.029 sec (  9.004%)
 zeroth order Hamiltonian       ...        0 min,  0.002 sec (  0.567%)
 iterations                     ...        0 min,  0.248 sec ( 77.471%)
 molecular gradient             ...        0 min,  0.025 sec (  7.669%)
 printout                       ...        0 min,  0.007 sec (  2.230%)

         :::::::::::::::::::::::::::::::::::::::::::::::::::::
         ::                     SUMMARY                     ::
         :::::::::::::::::::::::::::::::::::::::::::::::::::::
         :: total energy            -190.951707473795 Eh    ::
         :: gradient norm              0.321484789050 Eh/a0 ::
         :: HOMO-LUMO gap              0.690011563590 eV    ::
         ::.................................................::
         :: SCC energy              -193.979961349100 Eh    ::
         :: -> isotropic ES            0.105520491595 Eh    ::
         :: -> anisotropic ES          0.013442448436 Eh    ::
         :: -> anisotropic XC          0.164780316400 Eh    ::
         :: -> dispersion             -0.163977955815 Eh    ::
         :: repulsion energy           3.028837656506 Eh    ::
         :: add. restraining           0.000000000000 Eh    ::
         :::::::::::::::::::::::::::::::::::::::::::::::::::::

      ----------------------------------------------------------- 
     |                   =====================                   |
     |                        A N C O P T                        |
     |                   =====================                   |
     |               Approximate Normal Coordinate               |
     |                Rational Function Optimizer                |
      ----------------------------------------------------------- 

          ...................................................
          :                      SETUP                      :
          :.................................................:
          :   optimization level            normal          :
          :   max. optcycles                   309          :
          :   ANC micro-cycles                  20          :
          :   degrees of freedom               303          :
          :.................................................:
          :   RF solver                   davidson          :
          :   input Hessian                  false          :
          :   write xtbopt.log                true          :
          :   linear?                        false          :
          :   energy convergence         0.5000000E-05 Eh   :
          :   grad. convergence          0.1000000E-02 Eh/α :
          :   maximium RF displ.         1.0000000          :
          :   Hlow (freq-cutoff)         0.1000000E-01      :
          :   Hmax (freq-cutoff)         5.0000000          :
          :   S6 in model hess.         20.0000000          :
          ...................................................

generating ANC from model Hessian ...
Using Lindh-Hessian (1995)
 Shifting diagonal of input Hessian by   9.985644362370170E-003
 Lowest  eigenvalues of input Hessian
   -0.000000   -0.000000   -0.000000   -0.000000    0.000000    0.000000
    0.010000    0.010020    0.010038    0.010065    0.010115    0.010171
    0.010220    0.010327    0.010513    0.010782    0.010824    0.010979
 Highest eigenvalues
    2.242966    2.244763    2.507275    2.508384    2.571172    2.571231
 

........................................................................
.............................. CYCLE    1 ..............................
........................................................................
   1   -193.9799614 -0.193980E+03  0.147E-04    0.69       0.0  T
   2   -193.9799614  0.315026E-09  0.127E-04    0.69      77.6  T
   3   -193.9799614 -0.140238E-08  0.640E-05    0.69     153.9  T
     SCC iter.                  ...        0 min,  0.055 sec
     gradient                   ...        0 min,  0.024 sec
 * total energy  :  -190.9517074 Eh     change        0.5316801E-07 Eh
   gradient norm :     0.3214853 Eh/α   predicted     0.0000000E+00 (-100.00%)
   displ. norm   :     0.3762949 α      lambda       -0.8752701E-01
   maximum displ.:     0.0955400 α      in ANC's #214, #55, #217, ...

........................................................................
.............................. CYCLE    2 ..............................
........................................................................
   1   -194.1205297 -0.194121E+03  0.290E-01    1.05       0.0  T
   2   -194.1221143 -0.158454E-02  0.180E-01    1.13       1.0  T
   3   -194.1219542  0.160115E-03  0.107E-01    1.11       1.0  T
   4   -194.1225650 -0.610811E-03  0.468E-02    1.11       1.0  T
   5   -194.1227193 -0.154282E-03  0.157E-02    1.11       1.0  T
   6   -194.1227290 -0.975157E-05  0.733E-03    1.11       1.3  T
   7   -194.1227316 -0.260527E-05  0.328E-03    1.11       3.0  T
   8   -194.1227322 -0.544599E-06  0.140E-03    1.11       7.0  T
     SCC iter.                  ...        0 min,  0.139 sec
     gradient                   ...        0 min,  0.023 sec
 * total energy  :  -191.0207598 Eh     change       -0.6905233E-01 Eh
   gradient norm :     0.1866900 Eh/α   predicted    -0.4996042E-01 ( -27.65%)
   displ. norm   :     0.4563220 α      lambda       -0.6566010E-01
   maximum displ.:     0.1702227 α      in ANC's #214, #55, #265, ...

........................................................................
.............................. CYCLE    3 ..............................
........................................................................
   1   -194.2169635 -0.194217E+03  0.402E-01    0.26       0.0  T
   2   -194.2246908 -0.772732E-02  0.246E-01    0.86       1.0  T
   3   -194.2250433 -0.352507E-03  0.137E-01    0.82       1.0  T
   4   -194.2249024  0.140950E-03  0.888E-02    0.81       1.0  T
   5   -194.2255419 -0.639487E-03  0.189E-02    0.81       1.0  T
   6   -194.2255550 -0.130944E-04  0.905E-03    0.82       1.1  T
   7   -194.2255568 -0.183155E-05  0.513E-03    0.81       1.9  T
   8   -194.2255585 -0.172175E-05  0.186E-03    0.82       5.3  T
     SCC iter.                  ...        0 min,  0.139 sec
     gradient                   ...        0 min,  0.023 sec
 * total energy  :  -191.0309982 Eh     change       -0.1023846E-01 Eh
   gradient norm :     0.2680530 Eh/α   predicted    -0.3966629E-01 ( 287.42%)
   displ. norm   :     0.2562777 α      lambda       -0.5086082E-01
   maximum displ.:     0.1242085 α      in ANC's #214, #55, #202, ...

........................................................................
.............................. CYCLE    4 ..............................
........................................................................
   1   -194.1897210 -0.194190E+03  0.217E-01    1.13       0.0  T
   2   -194.1921106 -0.238955E-02  0.136E-01    1.16       1.0  T
   3   -194.1922620 -0.151461E-03  0.768E-02    1.15       1.0  T
   4   -194.1921894  0.726669E-04  0.510E-02    1.15       1.0  T
   5   -194.1923921 -0.202712E-03  0.117E-02    1.15       1.0  T
   6   -194.1923990 -0.691111E-05  0.455E-03    1.15       2.2  T
   7   -194.1923994 -0.396529E-06  0.275E-03    1.15       3.6  T
   8   -194.1923998 -0.416374E-06  0.110E-03    1.15       8.9  T
     SCC iter.                  ...        0 min,  0.146 sec
     gradient                   ...        0 min,  0.026 sec
 * total energy  :  -191.0492714 Eh     change       -0.1827321E-01 Eh
   gradient norm :     0.0633276 Eh/α   predicted    -0.2710065E-01 (  48.31%)
   displ. norm   :     0.4334191 α      lambda       -0.7504853E-02
   maximum displ.:     0.1456497 α      in ANC's #40, #47, #55, ...

........................................................................
.............................. CYCLE    5 ..............................
........................................................................
   1   -194.2165495 -0.194217E+03  0.149E-01    1.13       0.0  T
   2   -194.2166383 -0.888513E-04  0.799E-02    1.17       1.0  T
   3   -194.2165388  0.995423E-04  0.365E-02    1.16       1.0  T
   4   -194.2166590 -0.120241E-03  0.122E-02    1.17       1.0  T
   5   -194.2166683 -0.927306E-05  0.533E-03    1.17       1.9  T
   6   -194.2166696 -0.130778E-05  0.237E-03    1.17       4.2  T
   7   -194.2166700 -0.410298E-06  0.880E-04    1.17      11.2  T
     SCC iter.                  ...        0 min,  0.119 sec
     gradient                   ...        0 min,  0.023 sec
 * total energy  :  -191.0553691 Eh     change       -0.6097651E-02 Eh
   gradient norm :     0.0316127 Eh/α   predicted    -0.4457328E-02 ( -26.90%)
   displ. norm   :     0.6099114 α      lambda       -0.6435050E-02
   maximum displ.:     0.1864780 α      in ANC's #40, #15, #11, ...

........................................................................
.............................. CYCLE    6 ..............................
........................................................................
   1   -194.2392415 -0.194239E+03  0.192E-01    1.14       0.0  T
   2   -194.2393576 -0.116110E-03  0.104E-01    1.18       1.0  T
   3   -194.2391429  0.214706E-03  0.512E-02    1.17       1.0  T
   4   -194.2393954 -0.252474E-03  0.150E-02    1.19       1.0  T
   5   -194.2394088 -0.134905E-04  0.698E-03    1.18       1.4  T
   6   -194.2394112 -0.235983E-05  0.285E-03    1.18       3.5  T
   7   -194.2394117 -0.500158E-06  0.995E-04    1.18       9.9  T
     SCC iter.                  ...        0 min,  0.119 sec
     gradient                   ...        0 min,  0.023 sec
 * total energy  :  -191.0598951 Eh     change       -0.4525991E-02 Eh
   gradient norm :     0.0139298 Eh/α   predicted    -0.4414425E-02 (  -2.46%)
   displ. norm   :     0.5333236 α      lambda       -0.2740848E-02
   maximum displ.:     0.1807412 α      in ANC's #15, #11, #18, ...

........................................................................
.............................. CYCLE    7 ..............................
........................................................................
   1   -194.2467649 -0.194247E+03  0.159E-01    1.17       0.0  T
   2   -194.2467962 -0.313289E-04  0.888E-02    1.19       1.0  T
   3   -194.2465925  0.203693E-03  0.453E-02    1.18       1.0  T
   4   -194.2468269 -0.234428E-03  0.874E-03    1.19       1.1  T
   5   -194.2468291 -0.218178E-05  0.516E-03    1.19       1.9  T
   6   -194.2468306 -0.144432E-05  0.160E-03    1.19       6.2  T
   7   -194.2468308 -0.183965E-06  0.630E-04    1.19      15.6  T
     SCC iter.                  ...        0 min,  0.119 sec
     gradient                   ...        0 min,  0.023 sec
 * total energy  :  -191.0618785 Eh     change       -0.1983452E-02 Eh
   gradient norm :     0.0177143 Eh/α   predicted    -0.1760254E-02 ( -11.25%)
   displ. norm   :     0.5443668 α      lambda       -0.1957916E-02
   maximum displ.:     0.2306214 α      in ANC's #11, #15, #18, ...

........................................................................
.............................. CYCLE    8 ..............................
........................................................................
   1   -194.2521432 -0.194252E+03  0.173E-01    1.17       0.0  T
   2   -194.2521790 -0.357810E-04  0.963E-02    1.19       1.0  T
   3   -194.2519600  0.219005E-03  0.475E-02    1.18       1.0  T
   4   -194.2522118 -0.251836E-03  0.847E-03    1.19       1.2  T
   5   -194.2522138 -0.202693E-05  0.506E-03    1.19       1.9  T
   6   -194.2522154 -0.152857E-05  0.154E-03    1.19       6.4  T
   7   -194.2522155 -0.126290E-06  0.672E-04    1.19      14.7  T
     SCC iter.                  ...        0 min,  0.119 sec
     gradient                   ...        0 min,  0.023 sec
 * total energy  :  -191.0631283 Eh     change       -0.1249731E-02 Eh
   gradient norm :     0.0162646 Eh/α   predicted    -0.1269063E-02 (   1.55%)
   displ. norm   :     0.4571343 α      lambda       -0.1367738E-02
   maximum displ.:     0.2072359 α      in ANC's #11, #15, #18, ...

........................................................................
.............................. CYCLE    9 ..............................
........................................................................
   1   -194.2574327 -0.194257E+03  0.136E-01    1.17       0.0  T
   2   -194.2574579 -0.251186E-04  0.745E-02    1.18       1.0  T
   3   -194.2573665  0.913436E-04  0.311E-02    1.18       1.0  T
   4   -194.2574717 -0.105187E-03  0.793E-03    1.19       1.2  T
   5   -194.2574732 -0.152586E-05  0.462E-03    1.18       2.1  T
   6   -194.2574749 -0.172574E-05  0.140E-03    1.19       7.1  T
   7   -194.2574751 -0.119972E-06  0.647E-04    1.18      15.2  T
     SCC iter.                  ...        0 min,  0.119 sec
     gradient                   ...        0 min,  0.023 sec
 * total energy  :  -191.0640084 Eh     change       -0.8801139E-03 Eh
   gradient norm :     0.0113062 Eh/α   predicted    -0.8268422E-03 (  -6.05%)
   displ. norm   :     0.4098473 α      lambda       -0.9565144E-03
   maximum displ.:     0.2116299 α      in ANC's #11, #15, #18, ...

........................................................................
.............................. CYCLE   10 ..............................
........................................................................
   1   -194.2577422 -0.194258E+03  0.128E-01    1.17       0.0  T
   2   -194.2577623 -0.201068E-04  0.697E-02    1.17       1.0  T
   3   -194.2577156  0.466443E-04  0.232E-02    1.18       1.0  T
   4   -194.2577712 -0.555314E-04  0.707E-03    1.18       1.4  T
   5   -194.2577724 -0.119222E-05  0.385E-03    1.17       2.6  T
   6   -194.2577736 -0.126680E-05  0.122E-03    1.17       8.1  T
   7   -194.2577737 -0.104007E-06  0.553E-04    1.17      17.8  T
     SCC iter.                  ...        0 min,  0.120 sec
     gradient                   ...        0 min,  0.023 sec
 * total energy  :  -191.0646718 Eh     change       -0.6634757E-03 Eh
   gradient norm :     0.0106618 Eh/α   predicted    -0.5586097E-03 ( -15.81%)
   displ. norm   :     0.4560950 α      lambda       -0.9264768E-03
   maximum displ.:     0.2197037 α      in ANC's #11, #9, #15, ...

........................................................................
.............................. CYCLE   11 ..............................
........................................................................
   1   -194.2570904 -0.194257E+03  0.149E-01    1.17       0.0  T
   2   -194.2571187 -0.282320E-04  0.819E-02    1.17       1.0  T
   3   -194.2570837  0.349646E-04  0.216E-02    1.17       1.0  T
   4   -194.2571298 -0.460620E-04  0.707E-03    1.17       1.4  T
   5   -194.2571312 -0.147208E-05  0.379E-03    1.17       2.6  T
   6   -194.2571323 -0.102486E-05  0.132E-03    1.17       7.4  T
   7   -194.2571324 -0.121317E-06  0.573E-04    1.17      17.2  T
     SCC iter.                  ...        0 min,  0.120 sec
     gradient                   ...        0 min,  0.023 sec
 * total energy  :  -191.0652261 Eh     change       -0.5543021E-03 Eh
   gradient norm :     0.0178169 Eh/α   predicted    -0.5596061E-03 (   0.96%)
   displ. norm   :     0.4192472 α      lambda       -0.7899631E-03
   maximum displ.:     0.1890706 α      in ANC's #11, #9, #18, ...

........................................................................
.............................. CYCLE   12 ..............................
........................................................................
   1   -194.2586695 -0.194259E+03  0.130E-01    1.16       0.0  T
   2   -194.2586886 -0.191222E-04  0.731E-02    1.16       1.0  T
   3   -194.2586316  0.570224E-04  0.245E-02    1.16       1.0  T
   4   -194.2586994 -0.677479E-04  0.520E-03    1.16       1.9  T
   5   -194.2587000 -0.601160E-06  0.306E-03    1.16       3.2  T
   6   -194.2587006 -0.611188E-06  0.126E-03    1.16       7.8  T
   7   -194.2587007 -0.127842E-06  0.479E-04    1.16      20.6  T
     SCC iter.                  ...        0 min,  0.119 sec
     gradient                   ...        0 min,  0.023 sec
 * total energy  :  -191.0656321 Eh     change       -0.4059272E-03 Eh
   gradient norm :     0.0183839 Eh/α   predicted    -0.4644101E-03 (  14.41%)
   displ. norm   :     0.3665978 α      lambda       -0.6402368E-03
   maximum displ.:     0.1801209 α      in ANC's #11, #9, #18, ...

........................................................................
.............................. CYCLE   13 ..............................
........................................................................
   1   -194.2589523 -0.194259E+03  0.109E-01    1.17       0.0  T
   2   -194.2589655 -0.131679E-04  0.618E-02    1.17       1.0  T
   3   -194.2588916  0.739135E-04  0.276E-02    1.16       1.0  T
   4   -194.2589758 -0.842255E-04  0.482E-03    1.17       2.0  T
   5   -194.2589768 -0.936378E-06  0.260E-03    1.17       3.8  T
   6   -194.2589771 -0.348940E-06  0.105E-03    1.17       9.4  T
     SCC iter.                  ...        0 min,  0.103 sec
     gradient                   ...        0 min,  0.023 sec
 * total energy  :  -191.0660406 Eh     change       -0.4085141E-03 Eh
   gradient norm :     0.0106070 Eh/α   predicted    -0.3631412E-03 ( -11.11%)
   displ. norm   :     0.4114874 α      lambda       -0.6460175E-03
   maximum displ.:     0.2055724 α      in ANC's #9, #11, #15, ...

........................................................................
.............................. CYCLE   14 ..............................
........................................................................
   1   -194.2538475 -0.194254E+03  0.137E-01    1.17       0.0  T
   2   -194.2538761 -0.286295E-04  0.761E-02    1.17       1.0  T
   3   -194.2538229  0.531895E-04  0.246E-02    1.16       1.0  T
   4   -194.2538879 -0.649454E-04  0.626E-03    1.17       1.6  T
   5   -194.2538896 -0.176442E-05  0.327E-03    1.17       3.0  T
   6   -194.2538902 -0.599861E-06  0.128E-03    1.17       7.7  T
   7   -194.2538903 -0.822570E-07  0.613E-04    1.17      16.1  T
     SCC iter.                  ...        0 min,  0.120 sec
     gradient                   ...        0 min,  0.023 sec
 * total energy  :  -191.0661142 Eh     change       -0.7362783E-04 Eh
   gradient norm :     0.0305012 Eh/α   predicted    -0.3777050E-03 ( 412.99%)
   displ. norm   :     0.1843182 α      lambda       -0.7705109E-03
   maximum displ.:     0.0954624 α      in ANC's #9, #13, #20, ...

........................................................................
.............................. CYCLE   15 ..............................
........................................................................
   1   -194.2681474 -0.194268E+03  0.698E-02    1.18       0.0  T
   2   -194.2681549 -0.746335E-05  0.393E-02    1.18       1.0  T
   3   -194.2681112  0.436755E-04  0.225E-02    1.18       1.0  T
   4   -194.2681626 -0.514216E-04  0.352E-03    1.17       2.8  T
   5   -194.2681629 -0.260547E-06  0.227E-03    1.18       4.3  T
   6   -194.2681633 -0.408832E-06  0.794E-04    1.18      12.4  T
     SCC iter.                  ...        0 min,  0.109 sec
     gradient                   ...        0 min,  0.025 sec
 * total energy  :  -191.0664370 Eh     change       -0.3228330E-03 Eh
   gradient norm :     0.0135203 Eh/α   predicted    -0.3983443E-03 (  23.39%)
   displ. norm   :     0.2257731 α      lambda       -0.2980499E-03
   maximum displ.:     0.1183953 α      in ANC's #9, #11, #15, ...

........................................................................
.............................. CYCLE   16 ..............................
........................................................................
   1   -194.2622196 -0.194262E+03  0.741E-02    1.17       0.0  T
   2   -194.2622278 -0.827916E-05  0.413E-02    1.17       1.0  T
   3   -194.2622110  0.168289E-04  0.142E-02    1.17       1.0  T
   4   -194.2622312 -0.201777E-04  0.345E-03    1.17       2.9  T
   5   -194.2622316 -0.425186E-06  0.187E-03    1.17       5.3  T
   6   -194.2622319 -0.274901E-06  0.705E-04    1.17      14.0  T
     SCC iter.                  ...        0 min,  0.103 sec
     gradient                   ...        0 min,  0.023 sec
 * total energy  :  -191.0665946 Eh     change       -0.1576004E-03 Eh
   gradient norm :     0.0090209 Eh/α   predicted    -0.1566247E-03 (  -0.62%)
   displ. norm   :     0.2136142 α      lambda       -0.2103050E-03
   maximum displ.:     0.1295789 α      in ANC's #9, #11, #7, ...

........................................................................
.............................. CYCLE   17 ..............................
........................................................................
   1   -194.2648299 -0.194265E+03  0.619E-02    1.17       0.0  T
   2   -194.2648344 -0.454942E-05  0.345E-02    1.17       1.0  T
   3   -194.2648164  0.180353E-04  0.145E-02    1.17       1.0  T
   4   -194.2648374 -0.210735E-04  0.274E-03    1.17       3.6  T
   5   -194.2648375 -0.215670E-07  0.179E-03    1.17       5.5  T
   6   -194.2648377 -0.262055E-06  0.480E-04    1.17      20.5  T
     SCC iter.                  ...        0 min,  0.103 sec
     gradient                   ...        0 min,  0.023 sec
 * total energy  :  -191.0667043 Eh     change       -0.1096029E-03 Eh
   gradient norm :     0.0100895 Eh/α   predicted    -0.1099542E-03 (   0.32%)
   displ. norm   :     0.2720666 α      lambda       -0.2512693E-03
   maximum displ.:     0.1725464 α      in ANC's #9, #11, #5, ...

........................................................................
.............................. CYCLE   18 ..............................
........................................................................
   1   -194.2647849 -0.194265E+03  0.718E-02    1.17       0.0  T
   2   -194.2647909 -0.604575E-05  0.394E-02    1.17       1.0  T
   3   -194.2647802  0.107358E-04  0.120E-02    1.17       1.0  T
   4   -194.2647933 -0.131210E-04  0.390E-03    1.17       2.5  T
   5   -194.2647936 -0.283850E-06  0.200E-03    1.17       4.9  T
   6   -194.2647939 -0.320768E-06  0.561E-04    1.17      17.6  T
     SCC iter.                  ...        0 min,  0.103 sec
     gradient                   ...        0 min,  0.023 sec
 * total energy  :  -191.0668785 Eh     change       -0.1742792E-03 Eh
   gradient norm :     0.0072086 Eh/α   predicted    -0.1349350E-03 ( -22.58%)
   displ. norm   :     0.2986327 α      lambda       -0.1863030E-03
   maximum displ.:     0.1896300 α      in ANC's #9, #5, #11, ...

........................................................................
.............................. CYCLE   19 ..............................
........................................................................
   1   -194.2654508 -0.194265E+03  0.749E-02    1.17       0.0  T
   2   -194.2654561 -0.527951E-05  0.405E-02    1.17       1.0  T
   3   -194.2654479  0.813779E-05  0.110E-02    1.17       1.0  T
   4   -194.2654577 -0.973455E-05  0.463E-03    1.17       2.1  T
   5   -194.2654582 -0.546396E-06  0.185E-03    1.17       5.3  T
   6   -194.2654586 -0.358735E-06  0.481E-04    1.17      20.5  T
     SCC iter.                  ...        0 min,  0.104 sec
     gradient                   ...        0 min,  0.024 sec
 * total energy  :  -191.0670250 Eh     change       -0.1464494E-03 Eh
   gradient norm :     0.0041256 Eh/α   predicted    -0.1014620E-03 ( -30.72%)
   displ. norm   :     0.3770169 α      lambda       -0.1889662E-03
   maximum displ.:     0.2370646 α      in ANC's #9, #5, #14, ...

........................................................................
.............................. CYCLE   20 ..............................
........................................................................
   1   -194.2657233 -0.194266E+03  0.100E-01    1.17       0.0  T
   2   -194.2657323 -0.901737E-05  0.540E-02    1.18       1.0  T
   3   -194.2657280  0.432277E-05  0.107E-02    1.18       1.0  T
   4   -194.2657332 -0.521198E-05  0.629E-03    1.18       1.6  T
   5   -194.2657354 -0.215335E-05  0.181E-03    1.18       5.5  T
   6   -194.2657357 -0.352275E-06  0.570E-04    1.18      17.3  T
     SCC iter.                  ...        0 min,  0.103 sec
     gradient                   ...        0 min,  0.023 sec
 * total energy  :  -191.0671665 Eh     change       -0.1414887E-03 Eh
   gradient norm :     0.0053443 Eh/α   predicted    -0.1079138E-03 ( -23.73%)
   displ. norm   :     0.3634842 α      lambda       -0.1502667E-03
   maximum displ.:     0.2287787 α      in ANC's #9, #5, #14, ...
 * RMSD in coord.:     0.5424510 α      energy gain  -0.1154590E+00 Eh

generating ANC from model Hessian ...
Using Lindh-Hessian (1995)
 Shifting diagonal of input Hessian by   9.990007748304339E-003
 Lowest  eigenvalues of input Hessian
   -0.000000   -0.000000   -0.000000   -0.000000   -0.000000   -0.000000
    0.010000    0.010021    0.010032    0.010053    0.010123    0.010181
    0.010245    0.010344    0.010550    0.010735    0.010827    0.010999
 Highest eigenvalues
    2.284585    2.284774    2.607044    2.607981    2.652574    2.656340
 

........................................................................
.............................. CYCLE   21 ..............................
........................................................................
   1   -194.2646307 -0.194265E+03  0.945E-02    1.18       0.0  T
   2   -194.2646384 -0.772623E-05  0.505E-02    1.18       1.0  T
   3   -194.2646335  0.488255E-05  0.110E-02    1.18       1.0  T
   4   -194.2646394 -0.593884E-05  0.608E-03    1.18       1.6  T
   5   -194.2646410 -0.153951E-05  0.194E-03    1.18       5.1  T
   6   -194.2646414 -0.389421E-06  0.521E-04    1.18      18.9  T
   7   -194.2646414 -0.121817E-07  0.285E-04    1.18      34.6  T
     SCC iter.                  ...        0 min,  0.119 sec
     gradient                   ...        0 min,  0.024 sec
 * total energy  :  -191.0672765 Eh     change       -0.1099832E-03 Eh
   gradient norm :     0.0043153 Eh/α   predicted     0.0000000E+00 (-100.00%)
   displ. norm   :     0.0520420 α      lambda       -0.5526745E-04
   maximum displ.:     0.0193477 α      in ANC's #9, #5, #31, ...

........................................................................
.............................. CYCLE   22 ..............................
........................................................................
   1   -194.2649401 -0.194265E+03  0.290E-02    1.18       0.0  T
   2   -194.2649410 -0.984106E-06  0.160E-02    1.18       1.0  T
   3   -194.2649378  0.321878E-05  0.614E-03    1.18       1.6  T
   4   -194.2649417 -0.390824E-05  0.976E-04    1.18      10.1  T
   5   -194.2649418 -0.345513E-07  0.575E-04    1.18      17.1  T
   6   -194.2649418 -0.227265E-07  0.211E-04    1.18      46.8  T
     SCC iter.                  ...        0 min,  0.103 sec
     gradient                   ...        0 min,  0.023 sec
 * total energy  :  -191.0672998 Eh     change       -0.2337900E-04 Eh
   gradient norm :     0.0025759 Eh/α   predicted    -0.2771747E-04 (  18.56%)
   displ. norm   :     0.1011496 α      lambda       -0.8546335E-04
   maximum displ.:     0.0430017 α      in ANC's #9, #5, #31, ...

........................................................................
.............................. CYCLE   23 ..............................
........................................................................
   1   -194.2660217 -0.194266E+03  0.304E-02    1.18       0.0  T
   2   -194.2660229 -0.118008E-05  0.168E-02    1.18       1.0  T
   3   -194.2660186  0.432957E-05  0.679E-03    1.18       1.5  T
   4   -194.2660236 -0.497793E-05  0.189E-03    1.18       5.2  T
   5   -194.2660237 -0.108453E-06  0.103E-03    1.18       9.6  T
   6   -194.2660237 -0.772550E-07  0.329E-04    1.18      29.9  T
   7   -194.2660237 -0.841317E-08  0.146E-04    1.18      67.7  T
     SCC iter.                  ...        0 min,  0.119 sec
     gradient                   ...        0 min,  0.024 sec
 * total energy  :  -191.0673466 Eh     change       -0.4681115E-04 Eh
   gradient norm :     0.0060075 Eh/α   predicted    -0.4317413E-04 (  -7.77%)
   displ. norm   :     0.0965815 α      lambda       -0.5059857E-04
   maximum displ.:     0.0425017 α      in ANC's #9, #5, #22, ...

........................................................................
.............................. CYCLE   24 ..............................
........................................................................
   1   -194.2665447 -0.194267E+03  0.271E-02    1.17       0.0  T
   2   -194.2665454 -0.672493E-06  0.149E-02    1.17       1.0  T
   3   -194.2665427  0.266649E-05  0.518E-03    1.17       1.9  T
   4   -194.2665457 -0.304988E-05  0.161E-03    1.17       6.1  T
   5   -194.2665458 -0.588003E-07  0.823E-04    1.17      12.0  T
   6   -194.2665459 -0.572192E-07  0.244E-04    1.17      40.3  T
     SCC iter.                  ...        0 min,  0.103 sec
     gradient                   ...        0 min,  0.023 sec
 * total energy  :  -191.0673831 Eh     change       -0.3647684E-04 Eh
   gradient norm :     0.0031862 Eh/α   predicted    -0.2555270E-04 ( -29.95%)
   displ. norm   :     0.2052454 α      lambda       -0.8408070E-04
   maximum displ.:     0.0895278 α      in ANC's #9, #5, #7, ...

........................................................................
.............................. CYCLE   25 ..............................
........................................................................
   1   -194.2661330 -0.194266E+03  0.640E-02    1.17       0.0  T
   2   -194.2661370 -0.399854E-05  0.349E-02    1.17       1.0  T
   3   -194.2661284  0.859300E-05  0.991E-03    1.17       1.0  T
   4   -194.2661388 -0.104252E-04  0.340E-03    1.17       2.9  T
   5   -194.2661391 -0.272302E-06  0.165E-03    1.17       6.0  T
   6   -194.2661393 -0.237000E-06  0.491E-04    1.17      20.1  T
   7   -194.2661394 -0.115480E-07  0.252E-04    1.17      39.1  T
     SCC iter.                  ...        0 min,  0.119 sec
     gradient                   ...        0 min,  0.024 sec
 * total energy  :  -191.0674083 Eh     change       -0.2516044E-04 Eh
   gradient norm :     0.0067370 Eh/α   predicted    -0.4381283E-04 (  74.13%)
   displ. norm   :     0.1233276 α      lambda       -0.7645559E-04
   maximum displ.:     0.0543387 α      in ANC's #9, #5, #4, ...

........................................................................
.............................. CYCLE   26 ..............................
........................................................................
   1   -194.2654814 -0.194265E+03  0.403E-02    1.17       0.0  T
   2   -194.2654830 -0.156959E-05  0.219E-02    1.17       1.0  T
   3   -194.2654801  0.292161E-05  0.617E-03    1.17       1.6  T
   4   -194.2654836 -0.359597E-05  0.222E-03    1.17       4.4  T
   5   -194.2654838 -0.134191E-06  0.946E-04    1.17      10.4  T
   6   -194.2654839 -0.771553E-07  0.288E-04    1.17      34.2  T
     SCC iter.                  ...        0 min,  0.103 sec
     gradient                   ...        0 min,  0.023 sec
 * total energy  :  -191.0674402 Eh     change       -0.3195954E-04 Eh
   gradient norm :     0.0051435 Eh/α   predicted    -0.3881178E-04 (  21.44%)
   displ. norm   :     0.0767276 α      lambda       -0.5928411E-04
   maximum displ.:     0.0351366 α      in ANC's #5, #9, #4, ...

........................................................................
.............................. CYCLE   27 ..............................
........................................................................
   1   -194.2647980 -0.194265E+03  0.306E-02    1.17       0.0  T
   2   -194.2647992 -0.118590E-05  0.166E-02    1.17       1.0  T
   3   -194.2647965  0.266202E-05  0.593E-03    1.17       1.7  T
   4   -194.2647998 -0.327815E-05  0.150E-03    1.17       6.5  T
   5   -194.2647998 -0.157194E-07  0.863E-04    1.17      11.4  T
   6   -194.2647999 -0.713570E-07  0.227E-04    1.17      43.4  T
     SCC iter.                  ...        0 min,  0.111 sec
     gradient                   ...        0 min,  0.026 sec
 * total energy  :  -191.0674680 Eh     change       -0.2773047E-04 Eh
   gradient norm :     0.0024935 Eh/α   predicted    -0.2981865E-04 (   7.53%)
   displ. norm   :     0.0814894 α      lambda       -0.3520552E-04
   maximum displ.:     0.0403652 α      in ANC's #5, #9, #4, ...

........................................................................
.............................. CYCLE   28 ..............................
........................................................................
   1   -194.2652386 -0.194265E+03  0.262E-02    1.17       0.0  T
   2   -194.2652393 -0.710272E-06  0.140E-02    1.17       1.0  T
   3   -194.2652392  0.126158E-06  0.251E-03    1.17       3.9  T
   4   -194.2652394 -0.188529E-06  0.157E-03    1.17       6.3  T
   5   -194.2652396 -0.160966E-06  0.476E-04    1.17      20.7  T
   6   -194.2652396 -0.231009E-07  0.157E-04    1.17      62.6  T
     SCC iter.                  ...        0 min,  0.105 sec
     gradient                   ...        0 min,  0.024 sec
 * total energy  :  -191.0674966 Eh     change       -0.2859608E-04 Eh
   gradient norm :     0.0018911 Eh/α   predicted    -0.1772178E-04 ( -38.03%)
   displ. norm   :     0.3164476 α      lambda       -0.5544697E-04
   maximum displ.:     0.1576016 α      in ANC's #5, #9, #4, ...

........................................................................
.............................. CYCLE   29 ..............................
........................................................................
   1   -194.2653995 -0.194265E+03  0.962E-02    1.16       0.0  T
   2   -194.2654086 -0.907857E-05  0.511E-02    1.17       1.0  T
   3   -194.2654083  0.311958E-06  0.850E-03    1.17       1.2  T
   4   -194.2654084 -0.152573E-06  0.601E-03    1.17       1.6  T
   5   -194.2654113 -0.288171E-05  0.154E-03    1.17       6.4  T
   6   -194.2654115 -0.242370E-06  0.527E-04    1.17      18.7  T
   7   -194.2654116 -0.108333E-07  0.294E-04    1.17      33.5  T
     SCC iter.                  ...        0 min,  0.121 sec
     gradient                   ...        0 min,  0.024 sec
 * total energy  :  -191.0675392 Eh     change       -0.4267558E-04 Eh
   gradient norm :     0.0028850 Eh/α   predicted    -0.2896294E-04 ( -32.13%)
   displ. norm   :     0.1425502 α      lambda       -0.3289735E-04
   maximum displ.:     0.0729463 α      in ANC's #5, #9, #4, ...

........................................................................
.............................. CYCLE   30 ..............................
........................................................................
   1   -194.2659289 -0.194266E+03  0.398E-02    1.17       0.0  T
   2   -194.2659303 -0.134816E-05  0.213E-02    1.17       1.0  T
   3   -194.2659291  0.117772E-05  0.494E-03    1.17       2.0  T
   4   -194.2659305 -0.139061E-05  0.257E-03    1.17       3.8  T
   5   -194.2659308 -0.289588E-06  0.695E-04    1.17      14.2  T
   6   -194.2659308 -0.546307E-07  0.227E-04    1.17      43.3  T
     SCC iter.                  ...        0 min,  0.104 sec
     gradient                   ...        0 min,  0.024 sec
 * total energy  :  -191.0675567 Eh     change       -0.1741253E-04 Eh
   gradient norm :     0.0022881 Eh/α   predicted    -0.1678781E-04 (  -3.59%)
   displ. norm   :     0.1171564 α      lambda       -0.3023679E-04
   maximum displ.:     0.0618284 α      in ANC's #5, #4, #9, ...

........................................................................
.............................. CYCLE   31 ..............................
........................................................................
   1   -194.2659822 -0.194266E+03  0.317E-02    1.17       0.0  T
   2   -194.2659831 -0.853804E-06  0.169E-02    1.17       1.0  T
   3   -194.2659830  0.955790E-07  0.290E-03    1.17       3.4  T
   4   -194.2659831 -0.138316E-06  0.194E-03    1.17       5.1  T
   5   -194.2659834 -0.236336E-06  0.501E-04    1.17      19.7  T
   6   -194.2659834 -0.240033E-07  0.170E-04    1.17      58.1  T
     SCC iter.                  ...        0 min,  0.105 sec
     gradient                   ...        0 min,  0.024 sec
 * total energy  :  -191.0675822 Eh     change       -0.2550559E-04 Eh
   gradient norm :     0.0015075 Eh/α   predicted    -0.1532683E-04 ( -39.91%)
   displ. norm   :     0.3337361 α      lambda       -0.5174913E-04
   maximum displ.:     0.1792721 α      in ANC's #5, #4, #9, ...

........................................................................
.............................. CYCLE   32 ..............................
........................................................................
   1   -194.2659345 -0.194266E+03  0.888E-02    1.17       0.0  T
   2   -194.2659410 -0.646042E-05  0.477E-02    1.17       1.0  T
   3   -194.2659403  0.640646E-06  0.815E-03    1.17       1.2  T
   4   -194.2659409 -0.529381E-06  0.557E-03    1.17       1.8  T
   5   -194.2659430 -0.214663E-05  0.145E-03    1.17       6.8  T
   6   -194.2659432 -0.190383E-06  0.490E-04    1.17      20.1  T
   7   -194.2659432 -0.842425E-08  0.294E-04    1.17      33.5  T
     SCC iter.                  ...        0 min,  0.121 sec
     gradient                   ...        0 min,  0.024 sec
 * total energy  :  -191.0676297 Eh     change       -0.4753602E-04 Eh
   gradient norm :     0.0023331 Eh/α   predicted    -0.2715602E-04 ( -42.87%)
   displ. norm   :     0.1541855 α      lambda       -0.2512593E-04
   maximum displ.:     0.0840295 α      in ANC's #5, #4, #1, ...

........................................................................
.............................. CYCLE   33 ..............................
........................................................................
   1   -194.2658019 -0.194266E+03  0.398E-02    1.17       0.0  T
   2   -194.2658032 -0.126757E-05  0.215E-02    1.17       1.0  T
   3   -194.2658030  0.144371E-06  0.364E-03    1.17       2.7  T
   4   -194.2658030  0.426044E-07  0.266E-03    1.17       3.7  T
   5   -194.2658036 -0.587431E-06  0.523E-04    1.17      18.8  T
   6   -194.2658036 -0.242269E-07  0.208E-04    1.17      47.3  T
     SCC iter.                  ...        0 min,  0.104 sec
     gradient                   ...        0 min,  0.024 sec
 * total energy  :  -191.0676520 Eh     change       -0.2227838E-04 Eh
   gradient norm :     0.0020886 Eh/α   predicted    -0.1286289E-04 ( -42.26%)
   displ. norm   :     0.2327171 α      lambda       -0.4605742E-04
   maximum displ.:     0.1260619 α      in ANC's #5, #4, #1, ...

........................................................................
.............................. CYCLE   34 ..............................
........................................................................
   1   -194.2659653 -0.194266E+03  0.587E-02    1.17       0.0  T
   2   -194.2659680 -0.276939E-05  0.318E-02    1.17       1.0  T
   3   -194.2659672  0.780115E-06  0.569E-03    1.17       1.7  T
   4   -194.2659678 -0.531227E-06  0.387E-03    1.17       2.5  T
   5   -194.2659689 -0.113298E-05  0.903E-04    1.17      10.9  T
   6   -194.2659690 -0.814059E-07  0.291E-04    1.17      33.8  T
   7   -194.2659690 -0.162646E-08  0.177E-04    1.17      55.8  T
     SCC iter.                  ...        0 min,  0.128 sec
     gradient                   ...        0 min,  0.027 sec
 * total energy  :  -191.0676900 Eh     change       -0.3804634E-04 Eh
   gradient norm :     0.0013937 Eh/α   predicted    -0.2427637E-04 ( -36.19%)
   displ. norm   :     0.4404796 α      lambda       -0.4607900E-04
   maximum displ.:     0.2414105 α      in ANC's #5, #4, #1, ...

........................................................................
.............................. CYCLE   35 ..............................
........................................................................
   1   -194.2651623 -0.194265E+03  0.106E-01    1.16       0.0  T
   2   -194.2651711 -0.888970E-05  0.575E-02    1.16       1.0  T
   3   -194.2651690  0.217757E-05  0.101E-02    1.17       1.0  T
   4   -194.2651704 -0.143656E-05  0.685E-03    1.16       1.4  T
   5   -194.2651739 -0.349827E-05  0.161E-03    1.17       6.1  T
   6   -194.2651742 -0.268640E-06  0.499E-04    1.16      19.7  T
   7   -194.2651742 -0.604888E-08  0.300E-04    1.17      32.8  T
     SCC iter.                  ...        0 min,  0.122 sec
     gradient                   ...        0 min,  0.024 sec
 * total energy  :  -191.0677372 Eh     change       -0.4714575E-04 Eh
   gradient norm :     0.0018775 Eh/α   predicted    -0.2502880E-04 ( -46.91%)
   displ. norm   :     0.2775300 α      lambda       -0.2430773E-04
   maximum displ.:     0.1564641 α      in ANC's #5, #4, #1, ...

........................................................................
.............................. CYCLE   36 ..............................
........................................................................
   1   -194.2659843 -0.194266E+03  0.610E-02    1.16       0.0  T
   2   -194.2659870 -0.277851E-05  0.330E-02    1.16       1.0  T
   3   -194.2659853  0.178808E-05  0.660E-03    1.16       1.5  T
   4   -194.2659870 -0.173814E-05  0.398E-03    1.16       2.5  T
   5   -194.2659879 -0.955328E-06  0.108E-03    1.16       9.1  T
   6   -194.2659881 -0.132982E-06  0.312E-04    1.16      31.6  T
   7   -194.2659881 -0.433167E-08  0.179E-04    1.16      54.9  T
     SCC iter.                  ...        0 min,  0.121 sec
     gradient                   ...        0 min,  0.024 sec
 * total energy  :  -191.0677681 Eh     change       -0.3093953E-04 Eh
   gradient norm :     0.0018569 Eh/α   predicted    -0.1257129E-04 ( -59.37%)
   displ. norm   :     0.3743738 α      lambda       -0.3742857E-04
   maximum displ.:     0.2121720 α      in ANC's #5, #4, #1, ...

........................................................................
.............................. CYCLE   37 ..............................
........................................................................
   1   -194.2664737 -0.194266E+03  0.809E-02    1.16       0.0  T
   2   -194.2664786 -0.496276E-05  0.441E-02    1.16       1.0  T
   3   -194.2664744  0.425642E-05  0.935E-03    1.16       1.1  T
   4   -194.2664791 -0.470795E-05  0.512E-03    1.16       1.9  T
   5   -194.2664803 -0.124802E-05  0.171E-03    1.16       5.8  T
   6   -194.2664807 -0.338426E-06  0.500E-04    1.16      19.7  T
   7   -194.2664807 -0.127322E-07  0.272E-04    1.16      36.2  T
     SCC iter.                  ...        0 min,  0.122 sec
     gradient                   ...        0 min,  0.024 sec
 * total energy  :  -191.0678115 Eh     change       -0.4342544E-04 Eh
   gradient norm :     0.0017944 Eh/α   predicted    -0.1988511E-04 ( -54.21%)
   displ. norm   :     0.4212663 α      lambda       -0.3458781E-04
   maximum displ.:     0.2411987 α      in ANC's #5, #4, #1, ...

........................................................................
.............................. CYCLE   38 ..............................
........................................................................
   1   -194.2670994 -0.194267E+03  0.891E-02    1.16       0.0  T
   2   -194.2671053 -0.592149E-05  0.485E-02    1.16       1.0  T
   3   -194.2670998  0.549595E-05  0.105E-02    1.16       1.0  T
   4   -194.2671057 -0.595232E-05  0.574E-03    1.17       1.7  T
   5   -194.2671073 -0.156911E-05  0.183E-03    1.16       5.4  T
   6   -194.2671077 -0.387558E-06  0.540E-04    1.16      18.2  T
   7   -194.2671077 -0.140357E-07  0.296E-04    1.16      33.3  T
     SCC iter.                  ...        0 min,  0.121 sec
     gradient                   ...        0 min,  0.024 sec
 * total energy  :  -191.0678469 Eh     change       -0.3541427E-04 Eh
   gradient norm :     0.0028252 Eh/α   predicted    -0.1866324E-04 ( -47.30%)
   displ. norm   :     0.2425980 α      lambda       -0.2481948E-04
   maximum displ.:     0.1392449 α      in ANC's #5, #4, #1, ...

........................................................................
.............................. CYCLE   39 ..............................
........................................................................
   1   -194.2669750 -0.194267E+03  0.533E-02    1.16       0.0  T
   2   -194.2669771 -0.211189E-05  0.290E-02    1.16       1.0  T
   3   -194.2669764  0.719919E-06  0.528E-03    1.16       1.9  T
   4   -194.2669772 -0.792827E-06  0.326E-03    1.16       3.0  T
   5   -194.2669778 -0.620091E-06  0.830E-04    1.16      11.9  T
   6   -194.2669779 -0.720013E-07  0.290E-04    1.16      33.9  T
     SCC iter.                  ...        0 min,  0.104 sec
     gradient                   ...        0 min,  0.024 sec
 * total energy  :  -191.0678676 Eh     change       -0.2070542E-04 Eh
   gradient norm :     0.0014697 Eh/α   predicted    -0.1314231E-04 ( -36.53%)
   displ. norm   :     0.4213742 α      lambda       -0.3068245E-04
   maximum displ.:     0.2423453 α      in ANC's #5, #4, #1, ...

........................................................................
.............................. CYCLE   40 ..............................
........................................................................
   1   -194.2667497 -0.194267E+03  0.913E-02    1.16       0.0  T
   2   -194.2667557 -0.595818E-05  0.497E-02    1.16       1.0  T
   3   -194.2667527  0.294502E-05  0.921E-03    1.16       1.1  T
   4   -194.2667552 -0.253160E-05  0.592E-03    1.16       1.7  T
   5   -194.2667577 -0.242505E-05  0.146E-03    1.16       6.8  T
   6   -194.2667579 -0.210027E-06  0.467E-04    1.16      21.1  T
   7   -194.2667579 -0.759820E-08  0.268E-04    1.16      36.8  T
     SCC iter.                  ...        0 min,  0.121 sec
     gradient                   ...        0 min,  0.024 sec
 * total energy  :  -191.0679046 Eh     change       -0.3691894E-04 Eh
   gradient norm :     0.0018494 Eh/α   predicted    -0.1655539E-04 ( -55.16%)
   displ. norm   :     0.4821317 α      lambda       -0.3551021E-04
   maximum displ.:     0.2755992 α      in ANC's #5, #4, #1, ...

........................................................................
.............................. CYCLE   41 ..............................
........................................................................
   1   -194.2663051 -0.194266E+03  0.105E-01    1.16       0.0  T
   2   -194.2663128 -0.763083E-05  0.573E-02    1.16       1.0  T
   3   -194.2663080  0.481348E-05  0.108E-02    1.16       1.0  T
   4   -194.2663113 -0.334177E-05  0.722E-03    1.16       1.4  T
   5   -194.2663155 -0.415725E-05  0.143E-03    1.16       6.9  T
   6   -194.2663156 -0.183905E-06  0.509E-04    1.16      19.4  T
   7   -194.2663157 -0.718438E-08  0.302E-04    1.16      32.6  T
     SCC iter.                  ...        0 min,  0.121 sec
     gradient                   ...        0 min,  0.024 sec
 * total energy  :  -191.0679485 Eh     change       -0.4390905E-04 Eh
   gradient norm :     0.0019827 Eh/α   predicted    -0.1959223E-04 ( -55.38%)
   displ. norm   :     0.5869718 α      lambda       -0.4361936E-04
   maximum displ.:     0.3306750 α      in ANC's #5, #4, #1, ...

........................................................................
.............................. CYCLE   42 ..............................
........................................................................
   1   -194.2651818 -0.194265E+03  0.128E-01    1.16       0.0  T
   2   -194.2651923 -0.105723E-04  0.697E-02    1.16       1.0  T
   3   -194.2651751  0.172586E-04  0.157E-02    1.16       1.0  T
   4   -194.2651927 -0.176258E-04  0.841E-03    1.16       1.2  T
   5   -194.2651970 -0.427182E-05  0.207E-03    1.16       4.8  T
   6   -194.2651974 -0.390716E-06  0.649E-04    1.16      15.2  T
   7   -194.2651974 -0.111965E-07  0.392E-04    1.16      25.1  T
     SCC iter.                  ...        0 min,  0.121 sec
     gradient                   ...        0 min,  0.024 sec
 * total energy  :  -191.0679967 Eh     change       -0.4820521E-04 Eh
   gradient norm :     0.0029103 Eh/α   predicted    -0.2515052E-04 ( -47.83%)
   displ. norm   :     0.3899243 α      lambda       -0.3945424E-04
   maximum displ.:     0.2153541 α      in ANC's #5, #4, #1, ...
 * RMSD in coord.:     0.5070395 α      energy gain  -0.8302148E-03 Eh

generating ANC from model Hessian ...
Using Lindh-Hessian (1995)
 Shifting diagonal of input Hessian by   9.990447914121212E-003
 Lowest  eigenvalues of input Hessian
   -0.000000   -0.000000   -0.000000   -0.000000    0.000000    0.000000
    0.010000    0.010022    0.010032    0.010049    0.010121    0.010177
    0.010240    0.010350    0.010523    0.010707    0.010773    0.011037
 Highest eigenvalues
    2.284553    2.284960    2.607044    2.609494    2.650561    2.651187
 

........................................................................
.............................. CYCLE   43 ..............................
........................................................................
   1   -194.2657982 -0.194266E+03  0.852E-02    1.16       0.0  T
   2   -194.2658026 -0.447265E-05  0.467E-02    1.16       1.0  T
   3   -194.2657947  0.788215E-05  0.107E-02    1.16       1.0  T
   4   -194.2658027 -0.791330E-05  0.571E-03    1.16       1.7  T
   5   -194.2658046 -0.190411E-05  0.159E-03    1.16       6.2  T
   6   -194.2658048 -0.237401E-06  0.465E-04    1.16      21.2  T
   7   -194.2658048 -0.754264E-08  0.277E-04    1.16      35.6  T
     SCC iter.                  ...        0 min,  0.121 sec
     gradient                   ...        0 min,  0.024 sec
 * total energy  :  -191.0680266 Eh     change       -0.2995751E-04 Eh
   gradient norm :     0.0020120 Eh/α   predicted     0.0000000E+00 (-100.00%)
   displ. norm   :     0.0248665 α      lambda       -0.1364495E-04
   maximum displ.:     0.0089399 α      in ANC's #9, #41, #18, ...

........................................................................
.............................. CYCLE   44 ..............................
........................................................................
   1   -194.2664436 -0.194266E+03  0.123E-02    1.16       0.0  T
   2   -194.2664438 -0.183287E-06  0.677E-03    1.16       1.5  T
   3   -194.2664432  0.582536E-06  0.257E-03    1.16       3.8  T
   4   -194.2664439 -0.703875E-06  0.501E-04    1.16      19.7  T
   5   -194.2664439 -0.430558E-08  0.278E-04    1.16      35.5  T
     SCC iter.                  ...        0 min,  0.088 sec
     gradient                   ...        0 min,  0.024 sec
 * total energy  :  -191.0680364 Eh     change       -0.9795007E-05 Eh
   gradient norm :     0.0011001 Eh/α   predicted    -0.6829351E-05 ( -30.28%)
   displ. norm   :     0.1198100 α      lambda       -0.3095449E-04
   maximum displ.:     0.0452824 α      in ANC's #9, #18, #11, ...

........................................................................
.............................. CYCLE   45 ..............................
........................................................................
   1   -194.2688951 -0.194269E+03  0.465E-02    1.16       0.0  T
   2   -194.2688976 -0.242253E-05  0.256E-02    1.16       1.0  T
   3   -194.2688921  0.541742E-05  0.800E-03    1.16       1.2  T
   4   -194.2688988 -0.665197E-05  0.225E-03    1.16       4.4  T
   5   -194.2688989 -0.102213E-06  0.117E-03    1.16       8.4  T
   6   -194.2688990 -0.967798E-07  0.394E-04    1.16      25.0  T
   7   -194.2688990 -0.118182E-07  0.175E-04    1.16      56.2  T
     SCC iter.                  ...        0 min,  0.121 sec
     gradient                   ...        0 min,  0.024 sec
 * total energy  :  -191.0680394 Eh     change       -0.3001757E-05 Eh
   gradient norm :     0.0046880 Eh/α   predicted    -0.1557714E-04 ( 418.93%)
   displ. norm   :     0.0509367 α      lambda       -0.3862323E-04
   maximum displ.:     0.0201424 α      in ANC's #9, #4, #11, ...

........................................................................
.............................. CYCLE   46 ..............................
........................................................................
   1   -194.2688804 -0.194269E+03  0.258E-02    1.16       0.0  T
   2   -194.2688812 -0.818736E-06  0.142E-02    1.16       1.0  T
   3   -194.2688807  0.519845E-06  0.288E-03    1.16       3.4  T
   4   -194.2688816 -0.898387E-06  0.813E-04    1.16      12.1  T
     SCC iter.                  ...        0 min,  0.071 sec
     gradient                   ...        0 min,  0.023 sec
 * total energy  :  -191.0680528 Eh     change       -0.1334384E-04 Eh
   gradient norm :     0.0034957 Eh/α   predicted    -0.1936841E-04 (  45.15%)
   displ. norm   :     0.0280024 α      lambda       -0.3320847E-04
   maximum displ.:     0.0112144 α      in ANC's #20, #23, #31, ...

........................................................................
.............................. CYCLE   47 ..............................
........................................................................
   1   -194.2675170 -0.194268E+03  0.198E-02    1.16       0.0  T
   2   -194.2675175 -0.563744E-06  0.109E-02    1.16       1.0  T
   3   -194.2675162  0.134141E-05  0.397E-03    1.16       2.5  T
   4   -194.2675179 -0.167470E-05  0.807E-04    1.16      12.2  T
   5   -194.2675179 -0.193211E-07  0.465E-04    1.16      21.2  T
   6   -194.2675179 -0.142090E-07  0.184E-04    1.16      53.5  T
     SCC iter.                  ...        0 min,  0.105 sec
     gradient                   ...        0 min,  0.024 sec
 * total energy  :  -191.0680650 Eh     change       -0.1221547E-04 Eh
   gradient norm :     0.0018449 Eh/α   predicted    -0.1661877E-04 (  36.05%)
   displ. norm   :     0.0291541 α      lambda       -0.1040773E-04
   maximum displ.:     0.0126485 α      in ANC's #11, #9, #4, ...

........................................................................
.............................. CYCLE   48 ..............................
........................................................................
   1   -194.2671200 -0.194267E+03  0.137E-02    1.16       0.0  T
   2   -194.2671202 -0.187487E-06  0.767E-03    1.16       1.3  T
   3   -194.2671191  0.100736E-05  0.335E-03    1.16       2.9  T
   4   -194.2671203 -0.118480E-05  0.487E-04    1.16      20.2  T
   5   -194.2671203 -0.153398E-08  0.325E-04    1.16      30.4  T
   6   -194.2671203 -0.749381E-08  0.109E-04    1.16      90.6  T
     SCC iter.                  ...        0 min,  0.104 sec
     gradient                   ...        0 min,  0.024 sec
 * total energy  :  -191.0680723 Eh     change       -0.7323338E-05 Eh
   gradient norm :     0.0008028 Eh/α   predicted    -0.5206702E-05 ( -28.90%)
   displ. norm   :     0.0694237 α      lambda       -0.8676499E-05
   maximum displ.:     0.0321756 α      in ANC's #9, #4, #11, ...

........................................................................
.............................. CYCLE   49 ..............................
........................................................................
   1   -194.2669352 -0.194267E+03  0.237E-02    1.16       0.0  T
   2   -194.2669357 -0.507208E-06  0.132E-02    1.16       1.0  T
   3   -194.2669348  0.945174E-06  0.339E-03    1.16       2.9  T
   4   -194.2669360 -0.120863E-05  0.973E-04    1.16      10.1  T
   5   -194.2669360 -0.130452E-07  0.444E-04    1.16      22.2  T
   6   -194.2669360 -0.161006E-07  0.177E-04    1.16      55.7  T
     SCC iter.                  ...        0 min,  0.105 sec
     gradient                   ...        0 min,  0.024 sec
 * total energy  :  -191.0680746 Eh     change       -0.2264191E-05 Eh
   gradient norm :     0.0017830 Eh/α   predicted    -0.4349356E-05 (  92.09%)
   displ. norm   :     0.1169622 α      lambda       -0.1653566E-04
   maximum displ.:     0.0531605 α      in ANC's #9, #11, #4, ...

........................................................................
.............................. CYCLE   50 ..............................
........................................................................
   1   -194.2667438 -0.194267E+03  0.374E-02    1.16       0.0  T
   2   -194.2667449 -0.117527E-05  0.207E-02    1.16       1.0  T
   3   -194.2667447  0.237498E-06  0.315E-03    1.16       3.1  T
   4   -194.2667453 -0.575404E-06  0.169E-03    1.16       5.8  T
   5   -194.2667454 -0.135731E-06  0.556E-04    1.16      17.7  T
   6   -194.2667454 -0.237293E-07  0.223E-04    1.16      44.3  T
     SCC iter.                  ...        0 min,  0.105 sec
     gradient                   ...        0 min,  0.027 sec
 * total energy  :  -191.0680886 Eh     change       -0.1403775E-04 Eh
   gradient norm :     0.0016420 Eh/α   predicted    -0.8318982E-05 ( -40.74%)
   displ. norm   :     0.1047903 α      lambda       -0.1073679E-04
   maximum displ.:     0.0478655 α      in ANC's #9, #11, #4, ...

........................................................................
.............................. CYCLE   51 ..............................
........................................................................
   1   -194.2670231 -0.194267E+03  0.284E-02    1.16       0.0  T
   2   -194.2670237 -0.569552E-06  0.160E-02    1.16       1.0  T
   3   -194.2670230  0.727780E-06  0.340E-03    1.16       2.9  T
   4   -194.2670239 -0.908765E-06  0.141E-03    1.16       7.0  T
   5   -194.2670239 -0.646716E-07  0.629E-04    1.16      15.7  T
   6   -194.2670240 -0.369497E-07  0.203E-04    1.16      48.5  T
     SCC iter.                  ...        0 min,  0.104 sec
     gradient                   ...        0 min,  0.024 sec
 * total energy  :  -191.0680930 Eh     change       -0.4397577E-05 Eh
   gradient norm :     0.0018544 Eh/α   predicted    -0.5397233E-05 (  22.73%)
   displ. norm   :     0.0708276 α      lambda       -0.9264684E-05
   maximum displ.:     0.0317327 α      in ANC's #4, #11, #9, ...

........................................................................
.............................. CYCLE   52 ..............................
........................................................................
   1   -194.2669267 -0.194267E+03  0.207E-02    1.16       0.0  T
   2   -194.2669271 -0.328811E-06  0.117E-02    1.16       1.0  T
   3   -194.2669259  0.119553E-05  0.364E-03    1.16       2.7  T
   4   -194.2669273 -0.142463E-05  0.816E-04    1.16      12.1  T
   5   -194.2669273 -0.889798E-09  0.472E-04    1.16      20.9  T
   6   -194.2669273 -0.197796E-07  0.158E-04    1.16      62.4  T
     SCC iter.                  ...        0 min,  0.104 sec
     gradient                   ...        0 min,  0.024 sec
 * total energy  :  -191.0680999 Eh     change       -0.6856465E-05 Eh
   gradient norm :     0.0019573 Eh/α   predicted    -0.4643632E-05 ( -32.27%)
   displ. norm   :     0.0711783 α      lambda       -0.7446884E-05
   maximum displ.:     0.0348456 α      in ANC's #4, #9, #11, ...

........................................................................
.............................. CYCLE   53 ..............................
........................................................................
   1   -194.2666779 -0.194267E+03  0.188E-02    1.16       0.0  T
   2   -194.2666781 -0.234294E-06  0.106E-02    1.16       1.0  T
   3   -194.2666770  0.110719E-05  0.334E-03    1.16       3.0  T
   4   -194.2666783 -0.125866E-05  0.911E-04    1.16      10.8  T
   5   -194.2666783 -0.125770E-07  0.467E-04    1.16      21.1  T
   6   -194.2666783 -0.183286E-07  0.131E-04    1.16      75.0  T
     SCC iter.                  ...        0 min,  0.104 sec
     gradient                   ...        0 min,  0.024 sec
 * total energy  :  -191.0681062 Eh     change       -0.6367092E-05 Eh
   gradient norm :     0.0012487 Eh/α   predicted    -0.3733446E-05 ( -41.36%)
   displ. norm   :     0.0726820 α      lambda       -0.3969051E-05
   maximum displ.:     0.0368921 α      in ANC's #4, #11, #9, ...

........................................................................
.............................. CYCLE   54 ..............................
........................................................................
   1   -194.2665667 -0.194267E+03  0.177E-02    1.16       0.0  T
   2   -194.2665669 -0.168946E-06  0.991E-03    1.16       1.0  T
   3   -194.2665666  0.224404E-06  0.184E-03    1.16       5.4  T
   4   -194.2665669 -0.254957E-06  0.897E-04    1.16      11.0  T
   5   -194.2665669 -0.411275E-07  0.341E-04    1.16      28.9  T
     SCC iter.                  ...        0 min,  0.088 sec
     gradient                   ...        0 min,  0.024 sec
 * total energy  :  -191.0681113 Eh     change       -0.5085114E-05 Eh
   gradient norm :     0.0008634 Eh/α   predicted    -0.1993880E-05 ( -60.79%)
   displ. norm   :     0.1080921 α      lambda       -0.5925368E-05
   maximum displ.:     0.0570130 α      in ANC's #4, #3, #9, ...

........................................................................
.............................. CYCLE   55 ..............................
........................................................................
   1   -194.2666998 -0.194267E+03  0.273E-02    1.16       0.0  T
   2   -194.2667003 -0.427978E-06  0.153E-02    1.16       1.0  T
   3   -194.2667000  0.299110E-06  0.254E-03    1.16       3.9  T
   4   -194.2667004 -0.415209E-06  0.122E-03    1.16       8.1  T
   5   -194.2667004 -0.602625E-07  0.437E-04    1.16      22.5  T
   6   -194.2667004 -0.168191E-07  0.133E-04    1.16      74.0  T
     SCC iter.                  ...        0 min,  0.104 sec
     gradient                   ...        0 min,  0.024 sec
 * total energy  :  -191.0681174 Eh     change       -0.6114667E-05 Eh
   gradient norm :     0.0006229 Eh/α   predicted    -0.2981319E-05 ( -51.24%)
   displ. norm   :     0.0875095 α      lambda       -0.3335488E-05
   maximum displ.:     0.0487241 α      in ANC's #4, #3, #9, ...

........................................................................
.............................. CYCLE   56 ..............................
........................................................................
   1   -194.2664893 -0.194266E+03  0.217E-02    1.16       0.0  T
   2   -194.2664895 -0.271340E-06  0.121E-02    1.16       1.0  T
   3   -194.2664893  0.209557E-06  0.214E-03    1.16       4.6  T
   4   -194.2664896 -0.249720E-06  0.114E-03    1.16       8.7  T
   5   -194.2664896 -0.637467E-07  0.369E-04    1.16      26.7  T
   6   -194.2664896 -0.134549E-07  0.101E-04    1.16      97.7  T
     SCC iter.                  ...        0 min,  0.118 sec
     gradient                   ...        0 min,  0.028 sec
 * total energy  :  -191.0681211 Eh     change       -0.3660916E-05 Eh
   gradient norm :     0.0008263 Eh/α   predicted    -0.1677502E-05 ( -54.18%)
   displ. norm   :     0.0694583 α      lambda       -0.2783808E-05
   maximum displ.:     0.0406776 α      in ANC's #4, #3, #14, ...

   *** GEOMETRY OPTIMIZATION CONVERGED AFTER 56 ITERATIONS ***

------------------------------------------------------------------------
 total energy gain   :        -0.1164136 Eh      -73.0507 kcal/mol
 total RMSD          :         0.8704088 a0        0.4606 Å
 total power (kW/mol):        -5.4579276 (step)  -30.3426 (real)
------------------------------------------------------------------------

 ANCopt (total)                0 d,  0 h,  0 min, 10.073 sec
 optimizer setup                ...        0 min,  0.001 sec (  0.006%)
 model hessian                  ...        0 min,  0.130 sec (  1.295%)
 ANC generation                 ...        0 min,  0.031 sec (  0.306%)
 coordinate transformation      ...        0 min,  0.008 sec (  0.079%)
 single point calculation       ...        0 min,  9.844 sec ( 97.727%)
 optimization log               ...        0 min,  0.020 sec (  0.203%)
 hessian update                 ...        0 min,  0.008 sec (  0.076%)
 rational function              ...        0 min,  0.025 sec (  0.247%)

================
 final structure:
================
$coord
    6.37621534014474   -5.24450148333148    0.67987248825245      C 
    5.13155488368006   -7.77522198248729    0.54589714604027      C 
    4.29140290567403   -8.95014481319001    2.31923834205887      O 
    5.26665312059540   -8.50814604325040   -2.13589130489059      C 
    6.23212774611047   -6.50115027831043   -3.54966046958065      C 
    6.66435617208484   -4.34086516341994   -1.89105772509617      C 
    6.82846895747089   -1.87338477082638   -2.64709885828784      C 
    6.76881503958556    0.20697801439907   -0.97996826439174      C 
    6.64376900714583    1.98095671777581    0.26123551627543      N 
    6.91752087519415   -1.08764175316062   -5.19303498027751      C 
    7.03714178954817   -0.33533968254287   -7.22359956841185      N 
    6.60022237445707   -6.74441888101081   -6.16043174495278      C 
    5.98255055619410   -8.98630295791244   -7.29960453365228      C 
    4.97919729217223  -11.04497736402146   -5.92912792521141      C 
    4.60533514417993  -10.82378365037488   -3.27040431365358      C 
    3.61206880951251  -12.88719032967046   -1.90945275687811      C 
    3.00908465020382  -15.08123005235833   -3.13560156661981      C 
    3.37045706869894  -15.30834859999176   -5.75446378396442      C 
    4.33354008340329  -13.33728538974064   -7.12210893345536      C 
    7.15600029640411   -4.34146514509894    2.94409380695697      C 
    8.93154216396740   -2.38093531301859    3.43622536785178      C 
   10.91292787605038   -1.58550686197456    1.97555735476269      C 
   12.36084532812824    0.35490572886744    3.10284521997806      C 
   11.40548439230299    1.05021811633459    5.51370913460805      C 
    8.80619475537153   -0.77805201919194    6.33436289709656      S 
   12.47300471124707    2.94987722796769    6.94265941903038      C 
   14.56938948714920    4.19826493597410    5.96063884001262      C 
   15.53310240305436    3.48189043707492    3.56285593069372      C 
   14.47287005568815    1.59530203509515    2.12517259703395      C 
   18.15994608888088    5.29099134656255    2.75705106376235      S 
   17.94873717063262    6.96817869487500    5.60314752983894      C 
   15.98845222420293    6.20380468079957    7.05692932039086      C 
   19.79843800966303    9.06073658403557    6.10988755457566      C 
   20.40618081116794    9.31718600569881    8.92642927189210      C 
   18.43658456722528   11.39389038067497    5.36109890265984      N 
   18.80951876114176   12.62504810187119    3.48780689298760      N 
   20.67724406036824   12.11130916533348    1.50329426808892      C 
   22.52584007643884   10.17078960992517    2.33572615483651      C 
   22.11380123728621    8.72689569620507    4.57116132555812      C 
   24.07130272953496    7.27397528964519    4.90160638212360      N 
   25.64260940271329    7.75675247584096    2.97610930924139      O 
   24.71532611412730    9.52443687284217    1.41995989877592      N 
   19.16746708579064   11.21717997204180   -0.81473072565385      C 
   22.00130550928781   14.55696246159717    0.93118984349422      C 
   21.91106923082646   16.72400807423488    2.28337203239288      C 
   23.41708734766609   18.68981854653245    1.22900896825331      C 
   24.68211619794156   17.88129712959716   -0.99527715691135      C 
   23.96031317281408   14.75062338173939   -1.71336522010614      S 
   26.25672648245252   19.44329405804059   -2.35250971611083      C 
   26.59153195137296   21.90957184784506   -1.48088369242325      C 
   25.30801868340578   22.72555692585180    0.73189224476029      C 
   23.74236449470414   21.15100231970916    2.09548234354316      C 
   25.98196576086878   25.86682637414522    1.40685624146783      S 
   28.03450347532165   26.05804593982344   -1.19032038788209      C 
   28.12476646621465   23.83658245139994   -2.51459402990824      C 
   29.22526130232491   28.40412897118994   -1.74333836354229      C 
   31.34823300602238   28.83187310238848   -3.10970840031801      C 
   31.84465899497434   31.41333181178307   -4.13655596241142      C 
   30.79524078197169   33.33972075255524   -3.48791052381167      O 
   33.76233967424454   31.04777863036577   -6.12200096871367      C 
   34.57309312340729   28.53820456875223   -6.10986157435978      C 
   33.32456529236067   27.18727993449932   -4.05477025794209      C 
   34.18601752476291   25.01844519336445   -2.94022560904223      C 
   33.20775894469241   24.02747570911342   -0.66629967765310      C 
   32.55109036478054   23.18093607964502    1.21885162658589      N 
   36.26219528598246   23.60245543789571   -3.82911444502882      C 
   37.91167472764653   22.35471932317820   -4.48298768230193      N 
   36.35395046195041   27.68633450974829   -7.87424366011382      C 
   37.29435312308286   29.36939781276467   -9.60278750087932      C 
   36.53807018725169   31.92861260329593   -9.64708627202038      C 
   34.72026881476633   32.81488941337260   -7.86748954191175      C 
   33.96846969210767   35.36986174581661   -7.92266498295207      C 
   34.98122418713348   36.98357779604588   -9.66937738359371      C 
   36.77212036563090   36.12078961706684  -11.42672723029440      C 
   37.53398157105858   33.65049681278402  -11.41859748985778      C 
    7.37581934088803   -5.20998644824893   -7.25264597149409      H 
    6.26364949055232   -9.20932994510160   -9.30954462634253      H 
    3.34278252069658  -12.69203966516729    0.10137318930305      H 
    2.24795612414768  -16.66093809826703   -2.09244600396720      H 
    2.88144723591054  -17.05830987004412   -6.68353319681029      H 
    4.61277251585979  -13.50671355533514   -9.13747961703176      H 
    6.41607936516567   -5.32338791002658    4.58644193373742      H 
   11.37743695624362   -2.40551977272867    0.17353406010534      H 
   11.71419672612876    3.46255412627786    8.76254525110946      H 
   15.22540833373022    1.09240627555039    0.29937582407586      H 
   15.53155080668135    7.01341538880736    8.86065678144899      H 
   18.72393288892027    9.89758449419940    9.94612533535725      H 
   21.86123808771105   10.74454307200018    9.19247520314150      H 
   21.09153012527922    7.52295488346931    9.65114968005390      H 
   18.18930376615577    9.45723465102737   -0.39920790044249      H 
   20.45810837104282   10.91875761362843   -2.38489099970872      H 
[...]
    28   6 C      3.003     0.035    27.206     8.556
    29   6 C      2.935    -0.039    28.979     8.829
    30  16 S      2.271    -0.070   143.963    20.194
    31   6 C      3.001     0.028    27.352     8.579
    32   6 C      3.061    -0.051    29.208     8.863
    33   6 C      3.867     0.074    19.310     6.249
    34   6 C      3.761    -0.110    22.654     6.785
    35   7 N      1.912    -0.094    23.825     7.237
    36   7 N      1.910    -0.089    23.714     7.220
    37   6 C      3.868     0.076    19.274     6.243
    38   6 C      3.007     0.066    26.517     8.447
    39   6 C      3.014     0.069    26.436     8.434
    40   7 N      1.936    -0.119    24.342     7.316
    41   8 O      1.938    -0.023    14.751     5.187
    42   7 N      1.937    -0.116    24.277     7.306
    43   6 C      3.763    -0.102    22.498     6.761
    44   6 C      3.001     0.023    27.482     8.599
    45   6 C      3.061    -0.054    29.290     8.875
    46   6 C      3.137     0.007    27.627     8.603
    47   6 C      3.004     0.032    27.263     8.565
    48  16 S      2.259    -0.035   142.516    20.092
    49   6 C      2.935    -0.039    28.973     8.828
    50   6 C      3.136     0.007    27.645     8.606
    51   6 C      3.004     0.036    27.188     8.553
    52   6 C      2.934    -0.042    29.031     8.837
    53  16 S      2.281    -0.025   142.083    20.062
    54   6 C      2.981     0.035    27.219     8.558
    55   6 C      3.063    -0.040    28.935     8.821
    56   6 C      2.938    -0.011    28.290     8.723
    57   6 C      3.010    -0.031    28.752     8.796
    58   6 C      2.877     0.227    23.244     7.904
    59   8 O      0.856    -0.364    20.969     6.139
    60   6 C      3.037    -0.024    28.556     8.765
    61   6 C      3.042     0.009    27.779     8.645
    62   6 C      3.020     0.032    27.266     8.565
    63   6 C      2.947     0.008    27.846     8.655
    64   6 C      1.935     0.123    28.065     8.555
    65   7 N      0.911    -0.231    26.053     7.382
    66   6 C      1.934     0.122    28.080     8.558
    67   7 N      0.911    -0.232    26.071     7.385
    68   6 C      2.909    -0.031    28.784     8.797
    69   6 C      2.921    -0.023    28.587     8.768
    70   6 C      2.985     0.018    27.611     8.619
    71   6 C      2.982     0.024    27.459     8.596
    72   6 C      2.915    -0.030    28.746     8.792
    73   6 C      2.917    -0.022    28.559     8.763
    74   6 C      2.915    -0.022    28.564     8.764
    75   6 C      2.918    -0.031    28.773     8.796
    76   1 H      0.926     0.054     2.270     2.356
    77   1 H      0.926     0.051     2.311     2.377
    78   1 H      0.926     0.071     2.075     2.252
    79   1 H      0.926     0.045     2.386     2.416
    80   1 H      0.926     0.043     2.416     2.430
    81   1 H      0.926     0.042     2.425     2.435
    82   1 H      0.925     0.084     1.943     2.180
    83   1 H      0.926     0.041     2.437     2.441
    84   1 H      0.926     0.055     2.257     2.349
    85   1 H      0.926     0.051     2.313     2.378
    86   1 H      0.926     0.057     2.235     2.338
    87   1 H      0.925     0.067     2.119     2.276
    88   1 H      0.925     0.053     2.283     2.363
    89   1 H      0.925     0.063     2.159     2.298
    90   1 H      0.925     0.054     2.271     2.357
    91   1 H      0.925     0.069     2.101     2.267
    92   1 H      0.925     0.066     2.133     2.284
    93   1 H      0.926     0.055     2.259     2.350
    94   1 H      0.926     0.052     2.298     2.370
    95   1 H      0.926     0.054     2.271     2.356
    96   1 H      0.926     0.041     2.441     2.443
    97   1 H      0.925     0.083     1.950     2.184
    98   1 H      0.926     0.054     2.273     2.358
    99   1 H      0.926     0.050     2.319     2.382
   100   1 H      0.926     0.071     2.078     2.254
   101   1 H      0.926     0.044     2.397     2.421
   102   1 H      0.926     0.042     2.427     2.436
   103   1 H      0.926     0.041     2.434     2.440

 Mol. C6AA /au·bohr⁶  :     208314.390123
 Mol. C8AA /au·bohr⁸  :    5824487.674902
 Mol. α(0) /au        :        732.923369


Wiberg/Mayer (AO) data.
largest (>0.10) Wiberg bond orders for each atom
          total WBO             WBO to atom ...
     1  C   3.958        C   20 1.614    C    6 1.116    C    2 0.995
     2  C   3.930        O    3 1.774    C    4 1.035    C    1 0.995
     3  O   2.064        C    2 1.774
     4  C   3.971        C    5 1.360    C   15 1.269    C    2 1.035
     5  C   3.983        C    4 1.360    C   12 1.308    C    6 1.087
     6  C   3.978        C    7 1.499    C    1 1.116    C    5 1.087
     7  C   3.967        C    6 1.499    C   10 1.095    C    8 1.094
     8  C   3.946        N    9 2.771    C    7 1.094
     9  N   2.980        C    8 2.771
    10  C   3.947        N   11 2.770    C    7 1.095
    11  N   2.974        C   10 2.770
    12  C   3.985        C   13 1.537    C    5 1.308    H   76 0.962
    13  C   3.977        C   12 1.537    C   14 1.280    H   77 0.967
    14  C   3.980        C   19 1.286    C   13 1.280    C   15 1.231
    15  C   3.987        C   16 1.282    C    4 1.269    C   14 1.231
    16  C   3.974        C   17 1.550    C   15 1.282    H   78 0.962    C   19 0.115
    17  C   3.989        C   16 1.550    C   18 1.322    H   79 0.970
    18  C   3.975        C   19 1.549    C   17 1.322    H   80 0.970
    19  C   3.985        C   18 1.549    C   14 1.286    H   81 0.967    C   16 0.115
    20  C   3.951        C    1 1.614    C   21 1.185    H   82 0.948
    21  C   3.945        C   22 1.518    C   20 1.185    S   25 1.090
    22  C   3.976        C   21 1.518    C   23 1.239    H   83 0.961
    23  C   3.982        C   29 1.327    C   22 1.239    C   24 1.229
    24  C   3.953        C   26 1.430    C   23 1.229    S   25 1.116
    25  S   2.512        C   24 1.116    C   21 1.090
    26  C   3.981        C   24 1.430    C   27 1.354    H   84 0.964    C   29 0.105
    27  C   3.970        C   26 1.354    C   28 1.235    C   32 1.196
    28  C   3.953        C   29 1.451    C   27 1.235    S   30 1.089
    29  C   3.971        C   28 1.451    C   23 1.327    H   85 0.965    C   26 0.105
    30  S   2.506        C   31 1.107    C   28 1.089
    31  C   3.928        C   32 1.633    S   30 1.107    C   33 0.964
    32  C   3.979        C   31 1.633    C   27 1.196    H   86 0.958
    33  C   3.984        C   39 0.993    C   34 0.965    C   31 0.964    N   35 0.930
    34  C   3.985        H   88 0.984    H   89 0.981    H   87 0.980    C   33 0.965
    35  N   3.101        N   36 1.944    C   33 0.930
    36  N   3.125        N   35 1.944    C   37 0.959
    37  C   3.984        C   38 0.983    C   44 0.972    N   36 0.959    C   43 0.939
    38  C   3.971        N   42 1.580    C   39 1.213    C   37 0.983
    39  C   3.973        N   40 1.579    C   38 1.213    C   33 0.993
    40  N   3.006        C   39 1.579    O   41 1.137    N   42 0.211
    41  O   2.500        N   40 1.137    N   42 1.137
    42  N   3.009        C   38 1.580    O   41 1.137    N   40 0.211
    43  C   3.981        H   92 0.982    H   90 0.979    H   91 0.975    C   37 0.939
    44  C   3.930        C   45 1.647    S   48 1.119    C   37 0.972
    45  C   3.978        C   44 1.647    C   46 1.193    H   93 0.958
    46  C   3.970        C   52 1.357    C   47 1.234    C   45 1.193
    47  C   3.953        C   49 1.448    C   46 1.234    S   48 1.098
    48  S   2.519        C   44 1.119    C   47 1.098
    49  C   3.971        C   47 1.448    C   50 1.329    H   94 0.965    C   52 0.105
    50  C   3.984        C   49 1.329    C   55 1.240    C   51 1.228
    51  C   3.953        C   52 1.430    C   50 1.228    S   53 1.115
    52  C   3.985        C   51 1.430    C   46 1.357    H   95 0.965    C   49 0.105
    53  S   2.508        C   51 1.115    C   54 1.088
    54  C   3.946        C   55 1.515    C   56 1.190    S   53 1.088
    55  C   3.976        C   54 1.515    C   50 1.240    H   96 0.961
    56  C   3.951        C   57 1.608    C   54 1.190    H   97 0.949
    57  C   3.957        C   56 1.608    C   62 1.117    C   58 0.997
    58  C   3.929        O   59 1.773    C   60 1.034    C   57 0.997
    59  O   2.062        C   58 1.773
    60  C   3.971        C   61 1.362    C   71 1.269    C   58 1.034
    61  C   3.983        C   60 1.362    C   68 1.308    C   62 1.086
    62  C   3.977        C   63 1.499    C   57 1.117    C   61 1.086
    63  C   3.967        C   62 1.499    C   66 1.096    C   64 1.094
    64  C   3.946        N   65 2.772    C   63 1.094
    65  N   2.981        C   64 2.772
    66  C   3.947        N   67 2.769    C   63 1.096
    67  N   2.973        C   66 2.769
    68  C   3.985        C   69 1.537    C   61 1.308    H   98 0.962
    69  C   3.977        C   68 1.537    C   70 1.280    H   99 0.967
    70  C   3.980        C   75 1.285    C   69 1.280    C   71 1.232
    71  C   3.987        C   72 1.282    C   60 1.269    C   70 1.232
    72  C   3.974        C   73 1.550    C   71 1.282    H  100 0.962    C   75 0.115
    73  C   3.989        C   72 1.550    C   74 1.322    H  101 0.970
    74  C   3.976        C   75 1.549    C   73 1.322    H  102 0.970
    75  C   3.986        C   74 1.549    C   70 1.285    H  103 0.968    C   72 0.115
    76  H   0.996        C   12 0.962
    77  H   0.996        C   13 0.967
    78  H   0.994        C   16 0.962
    79  H   0.997        C   17 0.970
    80  H   0.998        C   18 0.970
    81  H   0.998        C   19 0.967
    82  H   0.990        C   20 0.948
    83  H   0.998        C   22 0.961
    84  H   0.997        C   26 0.964
    85  H   0.997        C   29 0.965
    86  H   0.996        C   32 0.958
    87  H   0.995        C   34 0.980
    88  H   0.997        C   34 0.984
    89  H   0.996        C   34 0.981
    90  H   0.996        C   43 0.979
    91  H   0.995        C   43 0.975
    92  H   0.995        C   43 0.982
    93  H   0.997        C   45 0.958
    94  H   0.997        C   49 0.965
    95  H   0.997        C   52 0.965
    96  H   0.998        C   55 0.961
    97  H   0.990        C   56 0.949
    98  H   0.996        C   68 0.962
    99  H   0.996        C   69 0.967
   100  H   0.995        C   72 0.962
   101  H   0.998        C   73 0.970
   102  H   0.998        C   74 0.970
   103  H   0.998        C   75 0.968

molecular dipole:
                 x           y           z       tot (Debye)
 q only:       -0.760      -0.780      -1.241
   full:       -0.708      -1.176      -1.610       5.378
molecular quadrupole (traceless):
                xx          xy          yy          xz          yz          zz
 q only:      -92.831       7.284      60.295     -62.755     -38.103      32.536
  q+dip:     -103.075      15.293      69.391     -82.040     -46.201      33.685
   full:      -93.950      13.691      64.922     -71.067     -46.172      29.028

           -------------------------------------------------
          |                Geometry Summary                 |
           -------------------------------------------------

      molecular mass/u    :     1037.1730000
   center of mass at/Å    :       10.5408614       5.8582519      -0.4094633
  moments of inertia/u·Å² :        0.7917215E+04   0.9710066E+05   0.1010188E+06
rotational constants/cm⁻¹ :        0.2129238E-02   0.1736099E-03   0.1668763E-03

 * 100 selected distances

     #   Z        #   Z                                     value/Å
     2   6 C      3   8 O                                 1.2103058
     4   6 C      5   6 C                                 1.3959568
     6   6 C      7   6 C                                 1.3684109
     8   6 C      9   7 N                                 1.1476223
    10   6 C     11   7 N                                 1.1476512
     5   6 C     12   6 C                                 1.4011511
    12   6 C     13   6 C                                 1.3702807
    13   6 C     14   6 C                                 1.4123249
     4   6 C     15   6 C                                 1.4087091
    14   6 C     15   6 C                                 1.4255912
    15   6 C     16   6 C                                 1.4096804
    16   6 C     17   6 C                                 1.3677816
    17   6 C     18   6 C                                 1.4041270
    14   6 C     19   6 C                                 1.4095154
    18   6 C     19   6 C                                 1.3680099
     1   6 C     20   6 C                                 1.3543462
    20   6 C     21   6 C                                 1.4237150
    21   6 C     22   6 C                                 1.3689384
    22   6 C     23   6 C                                 1.4132544
    23   6 C     24   6 C                                 1.4207635
    21   6 C     25  16 S                                 1.7538173
    24   6 C     25  16 S                                 1.7368264
    24   6 C     26   6 C                                 1.3789311
    26   6 C     27   6 C                                 1.3918132
    27   6 C     28   6 C                                 1.4190732
    23   6 C     29   6 C                                 1.3955715
    28   6 C     29   6 C                                 1.3748675
    28   6 C     30  16 S                                 1.7408625
    30  16 S     31   6 C                                 1.7517152
    27   6 C     32   6 C                                 1.4236522
    31   6 C     32   6 C                                 1.3533357
    33   6 C     34   6 C                                 1.5307796
    35   7 N     36   7 N                                 1.2025316
    37   6 C     38   6 C                                 1.4850817
    33   6 C     39   6 C                                 1.4816996
    38   6 C     39   6 C                                 1.4250279
    39   6 C     40   7 N                                 1.3018173
    40   7 N     41   8 O                                 1.3397298
    38   6 C     42   7 N                                 1.3016307
    41   8 O     42   7 N                                 1.3393688
    37   6 C     43   6 C                                 1.5384534
    44   6 C     45   6 C                                 1.3525243
    45   6 C     46   6 C                                 1.4242816
    46   6 C     47   6 C                                 1.4200749
    44   6 C     48  16 S                                 1.7445913
    47   6 C     48  16 S                                 1.7420921
    47   6 C     49   6 C                                 1.3759944
    49   6 C     50   6 C                                 1.3954990
    50   6 C     51   6 C                                 1.4208794
    46   6 C     52   6 C                                 1.3914451
    51   6 C     52   6 C                                 1.3788976
    51   6 C     53  16 S                                 1.7372298
    53  16 S     54   6 C                                 1.7546677 (max)
    50   6 C     55   6 C                                 1.4132833
    54   6 C     55   6 C                                 1.3694089
    54   6 C     56   6 C                                 1.4226740
    56   6 C     57   6 C                                 1.3550390
    58   6 C     59   8 O                                 1.2105320
    60   6 C     61   6 C                                 1.3956071
    62   6 C     63   6 C                                 1.3685299
    64   6 C     65   7 N                                 1.1474289
    66   6 C     67   7 N                                 1.1478607
    61   6 C     68   6 C                                 1.4010891
    68   6 C     69   6 C                                 1.3702445
    69   6 C     70   6 C                                 1.4123687
    60   6 C     71   6 C                                 1.4087489
    70   6 C     71   6 C                                 1.4255266
    71   6 C     72   6 C                                 1.4096521
    72   6 C     73   6 C                                 1.3677728
    73   6 C     74   6 C                                 1.4040650
    70   6 C     75   6 C                                 1.4095376
    74   6 C     75   6 C                                 1.3679867
    12   6 C     76   1 H                                 1.0778817
    13   6 C     77   1 H                                 1.0804313
    16   6 C     78   1 H                                 1.0785380
    17   6 C     79   1 H                                 1.0796990
    18   6 C     80   1 H                                 1.0799191
    19   6 C     81   1 H                                 1.0804026
    20   6 C     82   1 H                                 1.0856472
    22   6 C     83   1 H                                 1.0761282
    26   6 C     84   1 H                                 1.0780955
    29   6 C     85   1 H                                 1.0783734
    32   6 C     86   1 H                                 1.0738076 (min)
    34   6 C     87   1 H                                 1.0853425
    34   6 C     88   1 H                                 1.0877548
    34   6 C     89   1 H                                 1.0863210
    43   6 C     90   1 H                                 1.0879542
    43   6 C     91   1 H                                 1.0870973
    43   6 C     92   1 H                                 1.0868861
    45   6 C     93   1 H                                 1.0753453
    49   6 C     94   1 H                                 1.0782616
    52   6 C     95   1 H                                 1.0782034
    55   6 C     96   1 H                                 1.0761134
    56   6 C     97   1 H                                 1.0857003
    68   6 C     98   1 H                                 1.0779332
    69   6 C     99   1 H                                 1.0804524
    72   6 C    100   1 H                                 1.0785343
    73   6 C    101   1 H                                 1.0797317
    74   6 C    102   1 H                                 1.0799709
    75   6 C    103   1 H                                 1.0804313

 * 7 distinct bonds (by element types)

   Z      Z             #   av. dist./Å        max./Å        min./Å
   1 H    6 C          28     1.0807485     1.0879542     1.0738076
   6 C    6 C          53     1.4034335     1.5384534     1.3525243
   6 C    7 N           6     1.1990019     1.3018173     1.1474289
   7 N    7 N           1     1.2025316     1.2025316     1.2025316
   6 C    8 O           2     1.2104189     1.2105320     1.2103058
   7 N    8 O           2     1.3395493     1.3397298     1.3393688
   6 C   16 S           8     1.7452253     1.7546677     1.7368264


optimized geometry written to: xtbopt.xyz


           -------------------------------------------------
          | TOTAL ENERGY             -191.068121081517 Eh   |
          | GRADIENT NORM               0.000827212525 Eh/α |
          | HOMO-LUMO GAP               1.159273987551 eV   |
           -------------------------------------------------

------------------------------------------------------------------------
 * finished run on 2021/05/10 at 09:24:23.852     
------------------------------------------------------------------------
 total:
 * wall-time:     0 d,  0 h,  0 min, 10.614 sec
 *  cpu-time:     0 d,  0 h,  2 min,  6.844 sec
 * ratio c/w:    11.951 speedup
 SCF:
 * wall-time:     0 d,  0 h,  0 min,  0.321 sec
 *  cpu-time:     0 d,  0 h,  0 min,  3.805 sec
 * ratio c/w:    11.840 speedup
 ANC optimizer:
 * wall-time:     0 d,  0 h,  0 min, 10.210 sec
 *  cpu-time:     0 d,  0 h,  2 min,  2.182 sec
 * ratio c/w:    11.967 speedup

