      -----------------------------------------------------------      
     |                   =====================                   |     
     |                           x T B                           |     
     |                   =====================                   |     
     |                         S. Grimme                         |     
     |          Mulliken Center for Theoretical Chemistry        |     
     |                    University of Bonn                     |     
     |                Version 6.2 RC2 (SAW190805)                |     
      -----------------------------------------------------------      

   This program is distributed in the hope that it will be useful,
   but WITHOUT ANY WARRANTY; without even the implied warranty of
   MERCHANTABILITY or FITNESS FOR A PARTICULAR PURPOSE.
   
   FOR NON-COMMERCIAL, ACADEMIA USE ONLY.
   
   Cite this work as:
   * S. Grimme, C. Bannwarth, P. Shushkov, J. Chem. Theory Comput., 2017,
     13, 1989-2009. DOI: 10.1021/acs.jctc.7b00118
   * C. Bannwarth, S. Ehlert and S. Grimme., J. Chem. Theory Comput., 2019,
     15, 1652-1671. DOI: 10.1021/acs.jctc.8b01176
   * P. Pracht, E. Caldeweyher, S. Ehlert, S. Grimme, ChemRxiv, 2019, preprint.
     DOI: 10.26434/chemrxiv.8326202.v1
   
   for DFT-D4:
   * E. Caldeweyher, C. Bannwarth and S. Grimme, J. Chem. Phys., 2017,
     147, 034112. DOI: 10.1063/1.4993215
   * E. Caldeweyher, S. Ehlert, A. Hansen, H. Neugebauer, S. Spicher,
     C. Bannwarth and S. Grimme, J. Chem. Phys., 2019, 150, 154122.
     DOI: 10.1063/1.5090222
   
   for sTDA-xTB:
   * S. Grimme and C. Bannwarth, J. Chem. Phys., 2016, 145, 054103.
     DOI: 10.1063/1.4959605
   
   in the mass-spec context:
   * V. Asgeirsson, C. Bauer and S. Grimme, Chem. Sci., 2017, 8, 4879.
     DOI: 10.1039/c7sc00601b
   
   for metadynamics refer to:
   * S. Grimme, J. Chem. Theory Comput., 2019, 155, 2847-2862
     DOI: 10.1021/acs.jctc.9b00143
   
   with help from (in alphabetical order)
   C. Bannwarth, F. Bohle, G. Brandenburg, E. Caldeweyher, M. Checinski,
   S. Dohm, S. Ehlert, S. Ehrlich, F. März, H. Neugebauer, J. Pisarek,
   P. Pracht, P. Shushkov, and S. Spicher.
   
 * started run on 2021/05/14 at 16:30:49.404     

           -------------------------------------------------
          |                Calculation Setup                |
           -------------------------------------------------

          program call               : /ihome/ghutchison/geoffh/xtb/xtb /ihome/ghutchison/blp62/GA/running_GA/generations/61/26_48_23_48_26.xyz -opt
          hostname                   : smp-n9
          coordinate file            : /ihome/ghutchison/blp62/GA/running_GA/generations/61/26_48_23_48_26.xyz
          omp threads                :                    12
          number of atoms            :                    73
          number of electrons        :                   290
          charge                     :                     0
          spin                       :                   0.0
          first test random number   :      0.39940321722500


########################################################################
# WARNING! Please study the warnings concerning your input carefully
#  - XTBPATH is not set, using XTBHOME instead
#  - the use of '-opt' is discouraged, please use '--opt' next time
########################################################################

           ------------------------------------------------- 
          |                 G F N 2 - x T B                 |
          | Geometry, Frequencies, Noncovalent interactions |
          |            JCTC 2019 parametrisation            |
           ------------------------------------------------- 
             KAB for C  - Si     :                1.0500
             KAB for H  - Pd     :                0.9500
             k(s)              :                1.8500
             k(p)              :                2.2300
             k(d)              :                2.2300
             k(f)              :                2.0000
             kEN (H0ij)        :               -2.0000
             D4 a1             :                0.5200
             D4 a2             :                5.0000
             D4 s6             :                1.0000
             D4 s8             :                2.7000
             D4 s9             :                5.0000
             alphaj            :                2.0000

  Z AO/shell   Hii/eV     exponent
  1     Wed Apr 25 08:07:45 CEST 2018   EN: 2.200 GM2: 0.406  GM3: 0.0800  RAES: 1.40
     1s    -10.707211    1.230000
  6     Wed Apr 25 08:07:45 CEST 2018   EN: 2.550 GM2: 0.538  GM3: 0.1500  RAES: 3.00
     2s    -13.970922    2.096432
     2p    -10.063292    1.800000
  7     Wed Apr 25 08:07:45 CEST 2018   EN: 3.040 GM2: 0.461  GM3:-0.0640  RAES: 1.90
     2s    -16.686243    2.339881
     2p    -12.523956    2.014332
 16     Tue Apr 24 11:44:34 CEST 2018   EN: 2.580 GM2: 0.340  GM3:-0.0502  RAES: 3.10
     3s    -20.029654    1.981333
     3p    -11.377694    2.025643
     3d     -0.420282    1.702555

           ------------------------------------------------- 
          |        Self-Consistent Charge Iterations        |
           ------------------------------------------------- 

          ...................................................
          :                      SETUP                      :
          :.................................................:
          :  # basis functions                 304          :
          :  # atomic orbitals                 297          :
          :  # shells                          143          :
          :  # electrons                       290          :
          :  max. iterations                   250          :
          :  Hamiltonian                  GFN2-xTB          :
          :  restarted?                      false          :
          :  GBSA solvation                  false          :
          :  PC potential                    false          :
          :  electronic temp.          300.0000000     K    :
          :  accuracy                    1.0000000          :
          :  -> integral cutoff          0.2500000E+02      :
          :  -> integral neglect         0.1000000E-07      :
          :  -> SCF convergence          0.1000000E-05 Eh   :
          :  -> wf. convergence          0.1000000E-03 e    :
          :  Broyden damping             0.4000000          :
          ...................................................

 iter      E             dE          RMSdq      gap      omega  full diag
   1   -160.3257524 -0.160326E+03  0.563E+00    1.09       0.0  T
   2   -160.4485460 -0.122794E+00  0.402E+00    0.65       1.0  T
   3   -160.4730716 -0.245255E-01  0.241E+00    0.88       1.0  T
   4   -160.6424815 -0.169410E+00  0.936E-01    0.78       1.0  T
   5   -160.6992205 -0.567390E-01  0.233E-01    0.72       1.0  T
   6   -160.6998778 -0.657288E-03  0.128E-01    0.72       1.0  T
   7   -160.7004589 -0.581033E-03  0.642E-02    0.73       1.0  T
   8   -160.7005541 -0.952313E-04  0.433E-02    0.73       1.0  T
   9   -160.7006744 -0.120349E-03  0.217E-02    0.73       1.0  T
  10   -160.7007097 -0.352329E-04  0.846E-03    0.73       1.4  T
  11   -160.7007121 -0.243423E-05  0.431E-03    0.73       2.7  T
  12   -160.7007129 -0.785845E-06  0.183E-03    0.73       6.4  T
  13   -160.7007129 -0.544065E-07  0.108E-03    0.73      10.9  T
  14   -160.7007130 -0.247850E-07  0.490E-04    0.73      23.9  T
  15   -160.7007130 -0.941773E-08  0.163E-04    0.73      71.8  T

   *** convergence criteria satisfied after 15 iterations ***

         #    Occupation            Energy/Eh            Energy/eV
      -------------------------------------------------------------
         1        2.0000           -0.7792935             -21.2057
       ...           ...                  ...                  ...
       139        2.0000           -0.4165209             -11.3341
       140        2.0000           -0.4071577             -11.0793
       141        2.0000           -0.3950092             -10.7487
       142        2.0000           -0.3923791             -10.6772
       143        2.0000           -0.3911791             -10.6445
       144        2.0000           -0.3799649             -10.3394
       145        2.0000           -0.3780455             -10.2871 (HOMO)
       146        0.0000           -0.3512286              -9.5574 (LUMO)
       147                         -0.3414126              -9.2903
       148                         -0.3397896              -9.2461
       149                         -0.3353044              -9.1241
       150                         -0.3331650              -9.0659
       ...                                ...                  ...
       297                          1.0788546              29.3571
      -------------------------------------------------------------
                  HL-Gap            0.0268169 Eh            0.7297 eV
             Fermi-level           -0.3645779 Eh           -9.9207 eV

 SCC (total)                   0 d,  0 h,  0 min,  0.163 sec
 SCC setup                      ...        0 min,  0.001 sec (  0.877%)
 Dispersion                     ...        0 min,  0.003 sec (  1.792%)
 integral evaluation            ...        0 min,  0.019 sec ( 11.919%)
 zeroth order Hamiltonian       ...        0 min,  0.001 sec (  0.607%)
 iterations                     ...        0 min,  0.124 sec ( 76.533%)
 molecular gradient             ...        0 min,  0.013 sec (  7.824%)
 printout                       ...        0 min,  0.001 sec (  0.396%)

         :::::::::::::::::::::::::::::::::::::::::::::::::::::
         ::                     SUMMARY                     ::
         :::::::::::::::::::::::::::::::::::::::::::::::::::::
         :: total energy            -158.444345046486 Eh    ::
         :: gradient norm              0.227140752156 Eh/a0 ::
         :: HOMO-LUMO gap              0.729724154090 eV    ::
         ::.................................................::
         :: SCC energy              -160.700712973654 Eh    ::
         :: -> isotropic ES            0.108383407313 Eh    ::
         :: -> anisotropic ES          0.018370505439 Eh    ::
         :: -> anisotropic XC          0.150918947873 Eh    ::
         :: -> dispersion             -0.131179539132 Eh    ::
         :: repulsion energy           2.258152494816 Eh    ::
         :: add. restraining           0.000000000000 Eh    ::
         :::::::::::::::::::::::::::::::::::::::::::::::::::::

      ----------------------------------------------------------- 
     |                   =====================                   |
     |                        A N C O P T                        |
     |                   =====================                   |
     |               Approximate Normal Coordinate               |
     |                Rational Function Optimizer                |
      ----------------------------------------------------------- 

          ...................................................
          :                      SETUP                      :
          :.................................................:
          :   optimization level            normal          :
          :   max. optcycles                   219          :
          :   ANC micro-cycles                  20          :
          :   degrees of freedom               213          :
          :.................................................:
          :   RF solver                   davidson          :
          :   input Hessian                  false          :
          :   write xtbopt.log                true          :
          :   linear?                        false          :
          :   energy convergence         0.5000000E-05 Eh   :
          :   grad. convergence          0.1000000E-02 Eh/α :
          :   maximium RF displ.         2.0000000          :
          :   Hlow (freq-cutoff)         0.5000000E-02      :
          :   Hmax (freq-cutoff)         5.0000000          :
          :   S6 in model hess.         20.0000000          :
          ...................................................

generating ANC from model Hessian ...
Using Lindh-Hessian (1995)
 Shifting diagonal of input Hessian by   4.970124897656645E-003
 Lowest  eigenvalues of input Hessian
   -0.000000   -0.000000   -0.000000   -0.000000    0.000000    0.000000
    0.005000    0.005031    0.005077    0.005190    0.005355    0.005431
    0.005510    0.005579    0.005651    0.005744    0.006050    0.006280
 Highest eigenvalues
    2.130170    2.136653    2.508242    2.517908    2.577681    2.586936
 

........................................................................
.............................. CYCLE    1 ..............................
........................................................................
   1   -160.7007130 -0.160701E+03  0.949E-05    0.73       0.0  T
   2   -160.7007130  0.490843E-10  0.826E-05    0.73     141.6  T
   3   -160.7007130 -0.429537E-09  0.389E-05    0.73     300.9  T
     SCC iter.                  ...        0 min,  0.026 sec
     gradient                   ...        0 min,  0.012 sec
 * total energy  :  -158.4443449 Eh     change        0.1016340E-06 Eh
   gradient norm :     0.2271409 Eh/α   predicted     0.0000000E+00 (-100.00%)
   displ. norm   :     0.4382099 α      lambda       -0.6277138E-01
   maximum displ.:     0.1046203 α      in ANC's #33, #126, #38, ...

........................................................................
.............................. CYCLE    2 ..............................
........................................................................
   1   -160.8304067 -0.160830E+03  0.425E-01    0.73       0.0  T
   2   -160.8308219 -0.415273E-03  0.236E-01    0.77       1.0  T
   3   -160.8293456  0.147630E-02  0.174E-01    0.75       1.0  T
   4   -160.8317228 -0.237719E-02  0.507E-02    0.76       1.0  T
   5   -160.8318045 -0.817188E-04  0.251E-02    0.76       1.0  T
   6   -160.8318196 -0.150996E-04  0.127E-02    0.76       1.0  T
   7   -160.8318244 -0.480449E-05  0.852E-03    0.76       1.4  T
   8   -160.8318316 -0.718180E-05  0.244E-03    0.76       4.8  T
   9   -160.8318319 -0.318388E-06  0.132E-03    0.76       8.9  T
  10   -160.8318320 -0.404995E-07  0.713E-04    0.76      16.4  T
     SCC iter.                  ...        0 min,  0.080 sec
     gradient                   ...        0 min,  0.012 sec
 * total energy  :  -158.4892802 Eh     change       -0.4493523E-01 Eh
   gradient norm :     0.1061108 Eh/α   predicted    -0.3741273E-01 ( -16.74%)
   displ. norm   :     0.4988303 α      lambda       -0.2637851E-01
   maximum displ.:     0.1885151 α      in ANC's #33, #38, #35, ...

........................................................................
.............................. CYCLE    3 ..............................
........................................................................
   1   -160.8911936 -0.160891E+03  0.376E-01    0.73       0.0  T
   2   -160.8915170 -0.323402E-03  0.198E-01    0.78       1.0  T
   3   -160.8903832  0.113375E-02  0.145E-01    0.76       1.0  T
   4   -160.8919240 -0.154074E-02  0.436E-02    0.77       1.0  T
   5   -160.8919854 -0.613699E-04  0.223E-02    0.77       1.0  T
   6   -160.8920081 -0.227817E-04  0.939E-03    0.77       1.2  T
   7   -160.8920091 -0.100445E-05  0.675E-03    0.77       1.7  T
   8   -160.8920136 -0.443082E-05  0.213E-03    0.77       5.5  T
   9   -160.8920138 -0.268085E-06  0.999E-04    0.77      11.7  T
     SCC iter.                  ...        0 min,  0.073 sec
     gradient                   ...        0 min,  0.012 sec
 * total energy  :  -158.5058934 Eh     change       -0.1661322E-01 Eh
   gradient norm :     0.0358403 Eh/α   predicted    -0.1647116E-01 (  -0.86%)
   displ. norm   :     0.5563940 α      lambda       -0.8229739E-02
   maximum displ.:     0.2293125 α      in ANC's #33, #22, #21, ...

........................................................................
.............................. CYCLE    4 ..............................
........................................................................
   1   -160.9177409 -0.160918E+03  0.273E-01    0.76       0.0  T
   2   -160.9178862 -0.145366E-03  0.131E-01    0.76       1.0  T
   3   -160.9177558  0.130452E-03  0.560E-02    0.76       1.0  T
   4   -160.9179146 -0.158784E-03  0.267E-02    0.76       1.0  T
   5   -160.9179350 -0.204329E-04  0.138E-02    0.76       1.0  T
   6   -160.9179433 -0.832655E-05  0.590E-03    0.76       2.0  T
   7   -160.9179454 -0.202854E-05  0.312E-03    0.76       3.8  T
   8   -160.9179460 -0.637960E-06  0.167E-03    0.76       7.0  T
     SCC iter.                  ...        0 min,  0.065 sec
     gradient                   ...        0 min,  0.012 sec
 * total energy  :  -158.5121715 Eh     change       -0.6278060E-02 Eh
   gradient norm :     0.0221310 Eh/α   predicted    -0.5388731E-02 ( -14.17%)
   displ. norm   :     0.6214307 α      lambda       -0.5452618E-02
   maximum displ.:     0.2178026 α      in ANC's #33, #18, #22, ...

........................................................................
.............................. CYCLE    5 ..............................
........................................................................
   1   -160.9294195 -0.160929E+03  0.270E-01    0.73       0.0  T
   2   -160.9295392 -0.119778E-03  0.138E-01    0.72       1.0  T
   3   -160.9294186  0.120647E-03  0.525E-02    0.73       1.0  T
   4   -160.9295614 -0.142854E-03  0.233E-02    0.72       1.0  T
   5   -160.9295792 -0.177192E-04  0.128E-02    0.72       1.0  T
   6   -160.9295863 -0.714078E-05  0.638E-03    0.72       1.8  T
   7   -160.9295892 -0.290603E-05  0.310E-03    0.72       3.8  T
   8   -160.9295898 -0.608295E-06  0.154E-03    0.72       7.6  T
     SCC iter.                  ...        0 min,  0.063 sec
     gradient                   ...        0 min,  0.012 sec
 * total energy  :  -158.5156595 Eh     change       -0.3488021E-02 Eh
   gradient norm :     0.0201743 Eh/α   predicted    -0.3779147E-02 (   8.35%)
   displ. norm   :     0.6356033 α      lambda       -0.4317349E-02
   maximum displ.:     0.2346351 α      in ANC's #22, #17, #21, ...

........................................................................
.............................. CYCLE    6 ..............................
........................................................................
   1   -160.9455828 -0.160946E+03  0.324E-01    0.69       0.0  T
   2   -160.9457117 -0.128850E-03  0.172E-01    0.68       1.0  T
   3   -160.9456147  0.969539E-04  0.503E-02    0.69       1.0  T
   4   -160.9457436 -0.128893E-03  0.212E-02    0.69       1.0  T
   5   -160.9457549 -0.112912E-04  0.123E-02    0.69       1.0  T
   6   -160.9457632 -0.828179E-05  0.557E-03    0.69       2.1  T
   7   -160.9457654 -0.219554E-05  0.277E-03    0.69       4.2  T
   8   -160.9457659 -0.501061E-06  0.143E-03    0.69       8.2  T
     SCC iter.                  ...        0 min,  0.063 sec
     gradient                   ...        0 min,  0.012 sec
 * total energy  :  -158.5167975 Eh     change       -0.1138003E-02 Eh
   gradient norm :     0.0254618 Eh/α   predicted    -0.3030762E-02 ( 166.32%)
   displ. norm   :     0.3013861 α      lambda       -0.2469711E-02
   maximum displ.:     0.1097845 α      in ANC's #9, #5, #14, ...

........................................................................
.............................. CYCLE    7 ..............................
........................................................................
   1   -160.9564302 -0.160956E+03  0.183E-01    0.68       0.0  T
   2   -160.9564644 -0.342431E-04  0.983E-02    0.68       1.0  T
   3   -160.9564071  0.572835E-04  0.321E-02    0.68       1.0  T
   4   -160.9564796 -0.724602E-04  0.102E-02    0.68       1.1  T
   5   -160.9564808 -0.124660E-05  0.604E-03    0.68       1.9  T
   6   -160.9564829 -0.201465E-05  0.350E-03    0.68       3.3  T
   7   -160.9564841 -0.122934E-05  0.114E-03    0.68      10.3  T
     SCC iter.                  ...        0 min,  0.056 sec
     gradient                   ...        0 min,  0.012 sec
 * total energy  :  -158.5183194 Eh     change       -0.1521913E-02 Eh
   gradient norm :     0.0195192 Eh/α   predicted    -0.1347023E-02 ( -11.49%)
   displ. norm   :     0.4683567 α      lambda       -0.2447128E-02
   maximum displ.:     0.2116784 α      in ANC's #6, #18, #14, ...

........................................................................
.............................. CYCLE    8 ..............................
........................................................................
   1   -160.9525116 -0.160953E+03  0.306E-01    0.67       0.0  T
   2   -160.9525958 -0.842095E-04  0.162E-01    0.67       1.0  T
   3   -160.9521533  0.442474E-03  0.742E-02    0.66       1.0  T
   4   -160.9525962 -0.442867E-03  0.277E-02    0.67       1.0  T
   5   -160.9526298 -0.336029E-04  0.195E-02    0.67       1.0  T
   6   -160.9526635 -0.337275E-04  0.494E-03    0.67       2.4  T
   7   -160.9526648 -0.126464E-05  0.219E-03    0.67       5.3  T
   8   -160.9526648 -0.784678E-07  0.124E-03    0.67       9.4  T
     SCC iter.                  ...        0 min,  0.065 sec
     gradient                   ...        0 min,  0.012 sec
 * total energy  :  -158.5184427 Eh     change       -0.1232526E-03 Eh
   gradient norm :     0.0312252 Eh/α   predicted    -0.1491965E-02 (1110.49%)
   displ. norm   :     0.3066200 α      lambda       -0.2843986E-02
   maximum displ.:     0.1265369 α      in ANC's #5, #9, #6, ...

........................................................................
.............................. CYCLE    9 ..............................
........................................................................
   1   -160.9584635 -0.160958E+03  0.221E-01    0.66       0.0  T
   2   -160.9585105 -0.469936E-04  0.116E-01    0.66       1.0  T
   3   -160.9583652  0.145358E-03  0.431E-02    0.66       1.0  T
   4   -160.9584981 -0.132955E-03  0.208E-02    0.66       1.0  T
   5   -160.9585231 -0.250148E-04  0.125E-02    0.66       1.0  T
   6   -160.9585374 -0.142821E-04  0.283E-03    0.66       4.1  T
   7   -160.9585379 -0.466416E-06  0.128E-03    0.66       9.2  T
   8   -160.9585379 -0.274753E-07  0.732E-04    0.66      16.0  T
     SCC iter.                  ...        0 min,  0.070 sec
     gradient                   ...        0 min,  0.014 sec
 * total energy  :  -158.5199535 Eh     change       -0.1510831E-02 Eh
   gradient norm :     0.0126126 Eh/α   predicted    -0.1555688E-02 (   2.97%)
   displ. norm   :     0.4284023 α      lambda       -0.1675349E-02
   maximum displ.:     0.2133957 α      in ANC's #6, #9, #14, ...

........................................................................
.............................. CYCLE   10 ..............................
........................................................................
   1   -160.9583382 -0.160958E+03  0.260E-01    0.64       0.0  T
   2   -160.9583952 -0.569352E-04  0.139E-01    0.64       1.0  T
   3   -160.9581265  0.268657E-03  0.582E-02    0.64       1.0  T
   4   -160.9583874 -0.260852E-03  0.229E-02    0.64       1.0  T
   5   -160.9584180 -0.306368E-04  0.140E-02    0.64       1.0  T
   6   -160.9584347 -0.166662E-04  0.386E-03    0.64       3.0  T
   7   -160.9584357 -0.100873E-05  0.147E-03    0.64       8.0  T
   8   -160.9584357 -0.195394E-07  0.893E-04    0.64      13.1  T
     SCC iter.                  ...        0 min,  0.064 sec
     gradient                   ...        0 min,  0.012 sec
 * total energy  :  -158.5203251 Eh     change       -0.3716405E-03 Eh
   gradient norm :     0.0166522 Eh/α   predicted    -0.9914167E-03 ( 166.77%)
   displ. norm   :     0.4189265 α      lambda       -0.1798116E-02
   maximum displ.:     0.1991816 α      in ANC's #6, #5, #9, ...

........................................................................
.............................. CYCLE   11 ..............................
........................................................................
   1   -160.9619884 -0.160962E+03  0.207E-01    0.63       0.0  T
   2   -160.9620336 -0.451548E-04  0.108E-01    0.63       1.0  T
   3   -160.9620291  0.449677E-05  0.219E-02    0.63       1.0  T
   4   -160.9620385 -0.943768E-05  0.147E-02    0.63       1.0  T
   5   -160.9620452 -0.671308E-05  0.709E-03    0.63       1.7  T
   6   -160.9620491 -0.390133E-05  0.335E-03    0.63       3.5  T
   7   -160.9620501 -0.980418E-06  0.147E-03    0.63       8.0  T
   8   -160.9620502 -0.438852E-07  0.802E-04    0.63      14.6  T
     SCC iter.                  ...        0 min,  0.064 sec
     gradient                   ...        0 min,  0.012 sec
 * total energy  :  -158.5213879 Eh     change       -0.1062776E-02 Eh
   gradient norm :     0.0159096 Eh/α   predicted    -0.1056844E-02 (  -0.56%)
   displ. norm   :     0.5296430 α      lambda       -0.1685767E-02
   maximum displ.:     0.2763888 α      in ANC's #6, #5, #9, ...

........................................................................
.............................. CYCLE   12 ..............................
........................................................................
   1   -160.9577126 -0.160958E+03  0.272E-01    0.62       0.0  T
   2   -160.9577894 -0.767581E-04  0.141E-01    0.62       1.0  T
   3   -160.9576455  0.143920E-03  0.507E-02    0.62       1.0  T
   4   -160.9578138 -0.168374E-03  0.200E-02    0.62       1.0  T
   5   -160.9578162 -0.234394E-05  0.132E-02    0.62       1.0  T
   6   -160.9578312 -0.150575E-04  0.471E-03    0.62       2.5  T
   7   -160.9578332 -0.200630E-05  0.213E-03    0.62       5.5  T
   8   -160.9578334 -0.134189E-06  0.123E-03    0.62       9.5  T
     SCC iter.                  ...        0 min,  0.064 sec
     gradient                   ...        0 min,  0.012 sec
 * total energy  :  -158.5221588 Eh     change       -0.7708896E-03 Eh
   gradient norm :     0.0196499 Eh/α   predicted    -0.1079332E-02 (  40.01%)
   displ. norm   :     0.4956526 α      lambda       -0.1294989E-02
   maximum displ.:     0.2760684 α      in ANC's #6, #5, #9, ...

........................................................................
.............................. CYCLE   13 ..............................
........................................................................
   1   -160.9588493 -0.160959E+03  0.214E-01    0.61       0.0  T
   2   -160.9588992 -0.498760E-04  0.107E-01    0.61       1.0  T
   3   -160.9588055  0.937251E-04  0.381E-02    0.61       1.0  T
   4   -160.9588669 -0.614473E-04  0.246E-02    0.61       1.0  T
   5   -160.9588996 -0.326392E-04  0.144E-02    0.61       1.0  T
   6   -160.9589205 -0.209285E-04  0.293E-03    0.61       4.0  T
   7   -160.9589210 -0.535989E-06  0.142E-03    0.61       8.2  T
   8   -160.9589211 -0.116210E-07  0.903E-04    0.61      13.0  T
     SCC iter.                  ...        0 min,  0.064 sec
     gradient                   ...        0 min,  0.012 sec
 * total energy  :  -158.5231613 Eh     change       -0.1002494E-02 Eh
   gradient norm :     0.0121853 Eh/α   predicted    -0.8065692E-03 ( -19.54%)
   displ. norm   :     0.6583965 α      lambda       -0.1355562E-02
   maximum displ.:     0.3804978 α      in ANC's #6, #5, #9, ...

........................................................................
.............................. CYCLE   14 ..............................
........................................................................
   1   -160.9599255 -0.160960E+03  0.247E-01    0.60       0.0  T
   2   -160.9599877 -0.621531E-04  0.127E-01    0.60       1.0  T
   3   -160.9598688  0.118938E-03  0.425E-02    0.60       1.0  T
   4   -160.9599660 -0.972055E-04  0.246E-02    0.60       1.0  T
   5   -160.9599830 -0.170734E-04  0.175E-02    0.60       1.0  T
   6   -160.9600152 -0.321068E-04  0.387E-03    0.60       3.0  T
   7   -160.9600164 -0.128260E-05  0.162E-03    0.60       7.2  T
   8   -160.9600165 -0.624315E-07  0.103E-03    0.60      11.4  T
     SCC iter.                  ...        0 min,  0.064 sec
     gradient                   ...        0 min,  0.012 sec
 * total energy  :  -158.5242481 Eh     change       -0.1086858E-02 Eh
   gradient norm :     0.0079297 Eh/α   predicted    -0.9715937E-03 ( -10.61%)
   displ. norm   :     0.7600026 α      lambda       -0.1174415E-02
   maximum displ.:     0.4423739 α      in ANC's #6, #5, #9, ...

........................................................................
.............................. CYCLE   15 ..............................
........................................................................
   1   -160.9574751 -0.160957E+03  0.307E-01    0.60       0.0  T
   2   -160.9575894 -0.114310E-03  0.151E-01    0.60       1.0  T
   3   -160.9575635  0.258697E-04  0.366E-02    0.60       1.0  T
   4   -160.9575444  0.191460E-04  0.311E-02    0.59       1.0  T
   5   -160.9575926 -0.482117E-04  0.164E-02    0.60       1.0  T
   6   -160.9576231 -0.304695E-04  0.464E-03    0.60       2.5  T
   7   -160.9576250 -0.195830E-05  0.178E-03    0.60       6.6  T
   8   -160.9576251 -0.503735E-07  0.113E-03    0.60      10.4  T
     SCC iter.                  ...        0 min,  0.065 sec
     gradient                   ...        0 min,  0.012 sec
 * total energy  :  -158.5252649 Eh     change       -0.1016799E-02 Eh
   gradient norm :     0.0102727 Eh/α   predicted    -0.9263816E-03 (  -8.89%)
   displ. norm   :     0.7395440 α      lambda       -0.1159244E-02
   maximum displ.:     0.4292241 α      in ANC's #6, #5, #9, ...

........................................................................
.............................. CYCLE   16 ..............................
........................................................................
   1   -160.9626774 -0.160963E+03  0.277E-01    0.60       0.0  T
   2   -160.9627690 -0.915616E-04  0.140E-01    0.60       1.0  T
   3   -160.9627406  0.283290E-04  0.342E-02    0.60       1.0  T
   4   -160.9627642 -0.235617E-04  0.232E-02    0.60       1.0  T
   5   -160.9627939 -0.297216E-04  0.756E-03    0.60       1.5  T
   6   -160.9627983 -0.437998E-05  0.330E-03    0.60       3.6  T
   7   -160.9627990 -0.708583E-06  0.195E-03    0.60       6.0  T
   8   -160.9627993 -0.278227E-06  0.937E-04    0.60      12.5  T
     SCC iter.                  ...        0 min,  0.064 sec
     gradient                   ...        0 min,  0.012 sec
 * total energy  :  -158.5262269 Eh     change       -0.9619611E-03 Eh
   gradient norm :     0.0099894 Eh/α   predicted    -0.8966402E-03 (  -6.79%)
   displ. norm   :     0.8012722 α      lambda       -0.1054124E-02
   maximum displ.:     0.4776669 α      in ANC's #6, #5, #9, ...

........................................................................
.............................. CYCLE   17 ..............................
........................................................................
   1   -160.9538665 -0.160954E+03  0.326E-01    0.59       0.0  T
   2   -160.9540036 -0.137182E-03  0.161E-01    0.59       1.0  T
   3   -160.9540215 -0.178995E-04  0.319E-02    0.59       1.0  T
   4   -160.9539775  0.440176E-04  0.275E-02    0.59       1.0  T
   5   -160.9540106 -0.330451E-04  0.162E-02    0.59       1.0  T
   6   -160.9540417 -0.311180E-04  0.332E-03    0.59       3.5  T
   7   -160.9540423 -0.632362E-06  0.183E-03    0.59       6.4  T
   8   -160.9540424 -0.946982E-07  0.987E-04    0.59      11.9  T
     SCC iter.                  ...        0 min,  0.064 sec
     gradient                   ...        0 min,  0.012 sec
 * total energy  :  -158.5270341 Eh     change       -0.8071982E-03 Eh
   gradient norm :     0.0126110 Eh/α   predicted    -0.8654557E-03 (   7.22%)
   displ. norm   :     0.6448235 α      lambda       -0.9353115E-03
   maximum displ.:     0.3716035 α      in ANC's #6, #5, #4, ...

........................................................................
.............................. CYCLE   18 ..............................
........................................................................
   1   -160.9600180 -0.160960E+03  0.250E-01    0.59       0.0  T
   2   -160.9600944 -0.763407E-04  0.126E-01    0.59       1.0  T
   3   -160.9600453  0.490839E-04  0.353E-02    0.59       1.0  T
   4   -160.9600589 -0.136183E-04  0.269E-02    0.59       1.0  T
   5   -160.9600876 -0.286738E-04  0.167E-02    0.59       1.0  T
   6   -160.9601199 -0.323045E-04  0.345E-03    0.59       3.4  T
   7   -160.9601208 -0.891489E-06  0.129E-03    0.59       9.1  T
   8   -160.9601208 -0.237122E-08  0.867E-04    0.59      13.5  T
     SCC iter.                  ...        0 min,  0.063 sec
     gradient                   ...        0 min,  0.012 sec
 * total energy  :  -158.5277650 Eh     change       -0.7309103E-03 Eh
   gradient norm :     0.0108847 Eh/α   predicted    -0.6621121E-03 (  -9.41%)
   displ. norm   :     0.7175154 α      lambda       -0.8296685E-03
   maximum displ.:     0.4357300 α      in ANC's #6, #5, #4, ...

........................................................................
.............................. CYCLE   19 ..............................
........................................................................
   1   -160.9587815 -0.160959E+03  0.273E-01    0.58       0.0  T
   2   -160.9588714 -0.899117E-04  0.139E-01    0.58       1.0  T
   3   -160.9588354  0.360078E-04  0.317E-02    0.58       1.0  T
   4   -160.9587520  0.834436E-04  0.364E-02    0.58       1.0  T
   5   -160.9588928 -0.140789E-03  0.998E-03    0.58       1.2  T
   6   -160.9589004 -0.756842E-05  0.292E-03    0.58       4.0  T
   7   -160.9589009 -0.502500E-06  0.143E-03    0.58       8.2  T
   8   -160.9589009 -0.348627E-07  0.775E-04    0.58      15.1  T
     SCC iter.                  ...        0 min,  0.064 sec
     gradient                   ...        0 min,  0.012 sec
 * total energy  :  -158.5283930 Eh     change       -0.6280345E-03 Eh
   gradient norm :     0.0117762 Eh/α   predicted    -0.6284055E-03 (   0.06%)
   displ. norm   :     0.6286051 α      lambda       -0.8795985E-03
   maximum displ.:     0.3600961 α      in ANC's #6, #5, #4, ...

........................................................................
.............................. CYCLE   20 ..............................
........................................................................
   1   -160.9665772 -0.160967E+03  0.248E-01    0.58       0.0  T
   2   -160.9666515 -0.742976E-04  0.127E-01    0.58       1.0  T
   3   -160.9665759  0.756514E-04  0.372E-02    0.58       1.0  T
   4   -160.9665828 -0.694187E-05  0.308E-02    0.58       1.0  T
   5   -160.9666580 -0.751427E-04  0.145E-02    0.58       1.0  T
   6   -160.9666772 -0.192503E-04  0.427E-03    0.58       2.7  T
   7   -160.9666787 -0.153360E-05  0.136E-03    0.58       8.6  T
   8   -160.9666788 -0.318147E-07  0.765E-04    0.58      15.3  T
     SCC iter.                  ...        0 min,  0.063 sec
     gradient                   ...        0 min,  0.012 sec
 * total energy  :  -158.5289994 Eh     change       -0.6063780E-03 Eh
   gradient norm :     0.0124084 Eh/α   predicted    -0.6135873E-03 (   1.19%)
   displ. norm   :     0.6875614 α      lambda       -0.7240514E-03
   maximum displ.:     0.4277353 α      in ANC's #6, #5, #4, ...
 * RMSD in coord.:     1.0408206 α      energy gain  -0.8465438E-01 Eh

generating ANC from model Hessian ...
Using Lindh-Hessian (1995)
 Shifting diagonal of input Hessian by   5.045679832228494E-003
 Lowest  eigenvalues of input Hessian
    0.005000   -0.000000   -0.000000    0.000000    0.000000    0.000000
    0.000000    0.005077    0.005181    0.005195    0.005304    0.005520
    0.005633    0.005675    0.005814    0.005859    0.006025    0.006589
 Highest eigenvalues
    2.228527    2.241897    2.590531    2.591312    2.658832    2.662104
 

........................................................................
.............................. CYCLE   21 ..............................
........................................................................
   1   -160.9585750 -0.160959E+03  0.286E-01    0.57       0.0  T
   2   -160.9587023 -0.127250E-03  0.140E-01    0.57       1.0  T
   3   -160.9586301  0.721593E-04  0.442E-02    0.57       1.0  T
   4   -160.9586414 -0.112991E-04  0.333E-02    0.57       1.0  T
   5   -160.9586865 -0.450711E-04  0.234E-02    0.57       1.0  T
   6   -160.9587427 -0.562510E-04  0.477E-03    0.57       2.5  T
   7   -160.9587445 -0.172871E-05  0.161E-03    0.57       7.3  T
   8   -160.9587445 -0.224111E-07  0.106E-03    0.57      11.1  T
   9   -160.9587445 -0.341975E-07  0.541E-04    0.57      21.6  T
  10   -160.9587445 -0.142288E-07  0.230E-04    0.57      51.0  T
     SCC iter.                  ...        0 min,  0.081 sec
     gradient                   ...        0 min,  0.013 sec
 * total energy  :  -158.5294115 Eh     change       -0.4121159E-03 Eh
   gradient norm :     0.0138986 Eh/α   predicted     0.0000000E+00 (-100.00%)
   displ. norm   :     0.1675730 α      lambda       -0.4739834E-03
   maximum displ.:     0.0950620 α      in ANC's #8, #6, #16, ...

........................................................................
.............................. CYCLE   22 ..............................
........................................................................
   1   -160.9641378 -0.160964E+03  0.105E-01    0.57       0.0  T
   2   -160.9641529 -0.151201E-04  0.547E-02    0.57       1.0  T
   3   -160.9641394  0.135617E-04  0.171E-02    0.57       1.0  T
   4   -160.9641540 -0.146191E-04  0.846E-03    0.57       1.4  T
   5   -160.9641532  0.844274E-06  0.723E-03    0.57       1.6  T
   6   -160.9641588 -0.562108E-05  0.230E-03    0.57       5.1  T
   7   -160.9641593 -0.523949E-06  0.669E-04    0.57      17.5  T
   8   -160.9641593 -0.220473E-07  0.374E-04    0.57      31.3  T
     SCC iter.                  ...        0 min,  0.063 sec
     gradient                   ...        0 min,  0.012 sec
 * total energy  :  -158.5296446 Eh     change       -0.2330757E-03 Eh
   gradient norm :     0.0072165 Eh/α   predicted    -0.2436476E-03 (   4.54%)
   displ. norm   :     0.2182668 α      lambda       -0.5977747E-03
   maximum displ.:     0.1036390 α      in ANC's #6, #9, #16, ...

........................................................................
.............................. CYCLE   23 ..............................
........................................................................
   1   -160.9719911 -0.160972E+03  0.156E-01    0.57       0.0  T
   2   -160.9720228 -0.316727E-04  0.822E-02    0.57       1.0  T
   3   -160.9719819  0.409422E-04  0.269E-02    0.57       1.0  T
   4   -160.9720167 -0.348767E-04  0.147E-02    0.57       1.0  T
   5   -160.9720244 -0.770163E-05  0.108E-02    0.57       1.1  T
   6   -160.9720364 -0.120063E-04  0.299E-03    0.57       3.9  T
   7   -160.9720372 -0.736698E-06  0.831E-04    0.57      14.1  T
   8   -160.9720372 -0.170014E-07  0.472E-04    0.57      24.8  T
     SCC iter.                  ...        0 min,  0.064 sec
     gradient                   ...        0 min,  0.012 sec
 * total energy  :  -158.5295564 Eh     change        0.8824561E-04 Eh
   gradient norm :     0.0134521 Eh/α   predicted    -0.3131280E-03 (-454.84%)
   displ. norm   :     0.1022652 α      lambda       -0.6232025E-03
   maximum displ.:     0.0360761 α      in ANC's #8, #28, #25, ...

........................................................................
.............................. CYCLE   24 ..............................
........................................................................
   1   -160.9698836 -0.160970E+03  0.948E-02    0.57       0.0  T
   2   -160.9698946 -0.109441E-04  0.502E-02    0.57       1.0  T
   3   -160.9698695  0.251005E-04  0.186E-02    0.57       1.0  T
   4   -160.9698914 -0.218692E-04  0.947E-03    0.57       1.2  T
   5   -160.9698962 -0.479818E-05  0.641E-03    0.57       1.8  T
   6   -160.9699002 -0.402377E-05  0.136E-03    0.57       8.6  T
   7   -160.9699003 -0.138788E-06  0.499E-04    0.57      23.5  T
   8   -160.9699003 -0.792576E-08  0.276E-04    0.57      42.5  T
     SCC iter.                  ...        0 min,  0.063 sec
     gradient                   ...        0 min,  0.012 sec
 * total energy  :  -158.5298838 Eh     change       -0.3274771E-03 Eh
   gradient norm :     0.0064129 Eh/α   predicted    -0.3148624E-03 (  -3.85%)
   displ. norm   :     0.1546200 α      lambda       -0.3454764E-03
   maximum displ.:     0.0734272 α      in ANC's #8, #6, #16, ...

........................................................................
.............................. CYCLE   25 ..............................
........................................................................
   1   -160.9627303 -0.160963E+03  0.127E-01    0.57       0.0  T
   2   -160.9627479 -0.175534E-04  0.675E-02    0.57       1.0  T
   3   -160.9627073  0.405928E-04  0.242E-02    0.57       1.0  T
   4   -160.9627451 -0.378760E-04  0.113E-02    0.57       1.0  T
   5   -160.9627492 -0.400714E-05  0.881E-03    0.57       1.3  T
   6   -160.9627573 -0.810984E-05  0.168E-03    0.57       7.0  T
   7   -160.9627575 -0.201529E-06  0.605E-04    0.57      19.4  T
   8   -160.9627575 -0.924086E-08  0.345E-04    0.57      33.9  T
     SCC iter.                  ...        0 min,  0.063 sec
     gradient                   ...        0 min,  0.012 sec
 * total energy  :  -158.5297002 Eh     change        0.1836126E-03 Eh
   gradient norm :     0.0105174 Eh/α   predicted    -0.1768715E-03 (-196.33%)
   displ. norm   :     0.1428800 α      lambda       -0.7163516E-03
   maximum displ.:     0.0699444 α      in ANC's #6, #8, #1, ...

........................................................................
.............................. CYCLE   26 ..............................
........................................................................
   1   -160.9633727 -0.160963E+03  0.109E-01    0.57       0.0  T
   2   -160.9633849 -0.121775E-04  0.591E-02    0.57       1.0  T
   3   -160.9633731  0.117499E-04  0.138E-02    0.57       1.0  T
   4   -160.9633852 -0.120980E-04  0.735E-03    0.57       1.6  T
   5   -160.9633882 -0.297084E-05  0.475E-03    0.57       2.5  T
   6   -160.9633905 -0.232640E-05  0.971E-04    0.57      12.1  T
   7   -160.9633906 -0.607105E-07  0.435E-04    0.57      26.9  T
     SCC iter.                  ...        0 min,  0.056 sec
     gradient                   ...        0 min,  0.012 sec
 * total energy  :  -158.5300183 Eh     change       -0.3181049E-03 Eh
   gradient norm :     0.0067402 Eh/α   predicted    -0.3654884E-03 (  14.90%)
   displ. norm   :     0.1948982 α      lambda       -0.4524569E-03
   maximum displ.:     0.0827790 α      in ANC's #6, #8, #16, ...

........................................................................
.............................. CYCLE   27 ..............................
........................................................................
   1   -160.9683912 -0.160968E+03  0.149E-01    0.57       0.0  T
   2   -160.9684097 -0.184821E-04  0.809E-02    0.57       1.0  T
   3   -160.9683136  0.960516E-04  0.336E-02    0.57       1.0  T
   4   -160.9684041 -0.904567E-04  0.132E-02    0.57       1.0  T
   5   -160.9684186 -0.144824E-04  0.710E-03    0.57       1.6  T
   6   -160.9684228 -0.425492E-05  0.225E-03    0.57       5.2  T
   7   -160.9684232 -0.357358E-06  0.730E-04    0.57      16.0  T
   8   -160.9684232 -0.865822E-08  0.457E-04    0.57      25.6  T
     SCC iter.                  ...        0 min,  0.064 sec
     gradient                   ...        0 min,  0.012 sec
 * total energy  :  -158.5299882 Eh     change        0.3017200E-04 Eh
   gradient norm :     0.0088491 Eh/α   predicted    -0.2348221E-03 (-878.28%)
   displ. norm   :     0.1401059 α      lambda       -0.4525412E-03
   maximum displ.:     0.0677945 α      in ANC's #8, #6, #9, ...

........................................................................
.............................. CYCLE   28 ..............................
........................................................................
   1   -160.9678864 -0.160968E+03  0.103E-01    0.57       0.0  T
   2   -160.9678953 -0.896099E-05  0.547E-02    0.57       1.0  T
   3   -160.9678328  0.625332E-04  0.252E-02    0.57       1.0  T
   4   -160.9678920 -0.592016E-04  0.988E-03    0.57       1.2  T
   5   -160.9678999 -0.790210E-05  0.526E-03    0.57       2.2  T
   6   -160.9679021 -0.216496E-05  0.122E-03    0.57       9.6  T
   7   -160.9679022 -0.103292E-06  0.422E-04    0.57      27.8  T
     SCC iter.                  ...        0 min,  0.056 sec
     gradient                   ...        0 min,  0.012 sec
 * total energy  :  -158.5302592 Eh     change       -0.2710823E-03 Eh
   gradient norm :     0.0049085 Eh/α   predicted    -0.2307128E-03 ( -14.89%)
   displ. norm   :     0.2402268 α      lambda       -0.2393322E-03
   maximum displ.:     0.1391756 α      in ANC's #8, #6, #9, ...

........................................................................
.............................. CYCLE   29 ..............................
........................................................................
   1   -160.9632221 -0.160963E+03  0.116E-01    0.57       0.0  T
   2   -160.9632421 -0.200063E-04  0.575E-02    0.57       1.0  T
   3   -160.9632314  0.107250E-04  0.173E-02    0.56       1.0  T
   4   -160.9632366 -0.529960E-05  0.122E-02    0.57       1.0  T
   5   -160.9632386 -0.194503E-05  0.930E-03    0.57       1.3  T
   6   -160.9632487 -0.100749E-04  0.161E-03    0.57       7.3  T
   7   -160.9632489 -0.216878E-06  0.628E-04    0.57      18.6  T
   8   -160.9632489 -0.628930E-08  0.408E-04    0.57      28.7  T
     SCC iter.                  ...        0 min,  0.064 sec
     gradient                   ...        0 min,  0.013 sec
 * total energy  :  -158.5304069 Eh     change       -0.1476307E-03 Eh
   gradient norm :     0.0050787 Eh/α   predicted    -0.1265750E-03 ( -14.26%)
   displ. norm   :     0.3377263 α      lambda       -0.2258442E-03
   maximum displ.:     0.1928576 α      in ANC's #6, #8, #9, ...

........................................................................
.............................. CYCLE   30 ..............................
........................................................................
   1   -160.9622240 -0.160962E+03  0.142E-01    0.56       0.0  T
   2   -160.9622531 -0.290486E-04  0.707E-02    0.56       1.0  T
   3   -160.9622578 -0.471818E-05  0.139E-02    0.56       1.0  T
   4   -160.9622547  0.312212E-05  0.106E-02    0.56       1.1  T
   5   -160.9622609 -0.617954E-05  0.232E-03    0.56       5.0  T
   6   -160.9622613 -0.397586E-06  0.957E-04    0.56      12.2  T
   7   -160.9622613  0.188714E-08  0.724E-04    0.56      16.2  T
     SCC iter.                  ...        0 min,  0.056 sec
     gradient                   ...        0 min,  0.012 sec
 * total energy  :  -158.5306081 Eh     change       -0.2012580E-03 Eh
   gradient norm :     0.0058300 Eh/α   predicted    -0.1258028E-03 ( -37.49%)
   displ. norm   :     0.5434372 α      lambda       -0.3717302E-03
   maximum displ.:     0.3135894 α      in ANC's #8, #6, #9, ...

........................................................................
.............................. CYCLE   31 ..............................
........................................................................
   1   -160.9634585 -0.160963E+03  0.220E-01    0.56       0.0  T
   2   -160.9635272 -0.687621E-04  0.110E-01    0.56       1.0  T
   3   -160.9635217  0.554881E-05  0.248E-02    0.56       1.0  T
   4   -160.9634804  0.412774E-04  0.262E-02    0.56       1.0  T
   5   -160.9635302 -0.497931E-04  0.121E-02    0.56       1.0  T
   6   -160.9635474 -0.172067E-04  0.222E-03    0.56       5.3  T
   7   -160.9635476 -0.230999E-06  0.123E-03    0.56       9.5  T
   8   -160.9635476 -0.832506E-08  0.729E-04    0.56      16.1  T
     SCC iter.                  ...        0 min,  0.063 sec
     gradient                   ...        0 min,  0.012 sec
 * total energy  :  -158.5309126 Eh     change       -0.3044720E-03 Eh
   gradient norm :     0.0051837 Eh/α   predicted    -0.2407570E-03 ( -20.93%)
   displ. norm   :     0.5992563 α      lambda       -0.3219165E-03
   maximum displ.:     0.3503193 α      in ANC's #6, #8, #9, ...

........................................................................
.............................. CYCLE   32 ..............................
........................................................................
   1   -160.9630215 -0.160963E+03  0.237E-01    0.56       0.0  T
   2   -160.9631019 -0.804659E-04  0.119E-01    0.56       1.0  T
   3   -160.9631179 -0.160013E-04  0.220E-02    0.56       1.0  T
   4   -160.9631026  0.153226E-04  0.176E-02    0.56       1.0  T
   5   -160.9631224 -0.198315E-04  0.455E-03    0.56       2.6  T
   6   -160.9631238 -0.134408E-05  0.275E-03    0.56       4.3  T
   7   -160.9631244 -0.605996E-06  0.146E-03    0.56       8.0  T
     SCC iter.                  ...        0 min,  0.056 sec
     gradient                   ...        0 min,  0.012 sec
 * total energy  :  -158.5311645 Eh     change       -0.2518593E-03 Eh
   gradient norm :     0.0057305 Eh/α   predicted    -0.2187623E-03 ( -13.14%)
   displ. norm   :     0.5279602 α      lambda       -0.2476009E-03
   maximum displ.:     0.3257357 α      in ANC's #6, #8, #5, ...

........................................................................
.............................. CYCLE   33 ..............................
........................................................................
   1   -160.9653535 -0.160965E+03  0.204E-01    0.56       0.0  T
   2   -160.9654133 -0.598017E-04  0.103E-01    0.56       1.0  T
   3   -160.9654238 -0.104356E-04  0.189E-02    0.56       1.0  T
   4   -160.9654042  0.195749E-04  0.169E-02    0.56       1.0  T
   5   -160.9654290 -0.248094E-04  0.369E-03    0.56       3.2  T
   6   -160.9654297 -0.657264E-06  0.250E-03    0.56       4.7  T
   7   -160.9654302 -0.547294E-06  0.125E-03    0.56       9.4  T
     SCC iter.                  ...        0 min,  0.056 sec
     gradient                   ...        0 min,  0.012 sec
 * total energy  :  -158.5313592 Eh     change       -0.1947112E-03 Eh
   gradient norm :     0.0050463 Eh/α   predicted    -0.1583100E-03 ( -18.69%)
   displ. norm   :     0.5121391 α      lambda       -0.1985837E-03
   maximum displ.:     0.3281206 α      in ANC's #6, #8, #5, ...

........................................................................
.............................. CYCLE   34 ..............................
........................................................................
   1   -160.9667629 -0.160967E+03  0.200E-01    0.56       0.0  T
   2   -160.9668209 -0.579597E-04  0.100E-01    0.56       1.0  T
   3   -160.9668211 -0.189332E-06  0.204E-02    0.56       1.0  T
   4   -160.9667491  0.720245E-04  0.272E-02    0.55       1.0  T
   5   -160.9668320 -0.829232E-04  0.766E-03    0.56       1.5  T
   6   -160.9668375 -0.551437E-05  0.187E-03    0.56       6.2  T
   7   -160.9668377 -0.205748E-06  0.101E-03    0.56      11.6  T
   8   -160.9668377 -0.226318E-07  0.487E-04    0.56      24.0  T
     SCC iter.                  ...        0 min,  0.063 sec
     gradient                   ...        0 min,  0.012 sec
 * total energy  :  -158.5315157 Eh     change       -0.1565581E-03 Eh
   gradient norm :     0.0041495 Eh/α   predicted    -0.1253377E-03 ( -19.94%)
   displ. norm   :     0.5118416 α      lambda       -0.1536201E-03
   maximum displ.:     0.3389960 α      in ANC's #6, #8, #5, ...

........................................................................
.............................. CYCLE   35 ..............................
........................................................................
   1   -160.9664699 -0.160966E+03  0.203E-01    0.55       0.0  T
   2   -160.9665310 -0.611583E-04  0.101E-01    0.55       1.0  T
   3   -160.9665365 -0.547801E-05  0.198E-02    0.56       1.0  T
   4   -160.9664759  0.606169E-04  0.248E-02    0.55       1.0  T
   5   -160.9665416 -0.656713E-04  0.806E-03    0.55       1.5  T
   6   -160.9665481 -0.654024E-05  0.179E-03    0.55       6.5  T
   7   -160.9665483 -0.197759E-06  0.965E-04    0.55      12.1  T
   8   -160.9665483 -0.261122E-07  0.470E-04    0.55      24.9  T
     SCC iter.                  ...        0 min,  0.063 sec
     gradient                   ...        0 min,  0.012 sec
 * total energy  :  -158.5316310 Eh     change       -0.1152800E-03 Eh
   gradient norm :     0.0035361 Eh/α   predicted    -0.9693652E-04 ( -15.91%)
   displ. norm   :     0.4577150 α      lambda       -0.1454988E-03
   maximum displ.:     0.3218838 α      in ANC's #6, #8, #5, ...

........................................................................
.............................. CYCLE   36 ..............................
........................................................................
   1   -160.9721544 -0.160972E+03  0.175E-01    0.56       0.0  T
   2   -160.9721992 -0.447934E-04  0.878E-02    0.56       1.0  T
   3   -160.9721737  0.255260E-04  0.239E-02    0.56       1.0  T
   4   -160.9721534  0.202941E-04  0.236E-02    0.55       1.0  T
   5   -160.9722043 -0.509778E-04  0.100E-02    0.56       1.2  T
   6   -160.9722131 -0.875985E-05  0.266E-03    0.56       4.4  T
   7   -160.9722137 -0.633220E-06  0.819E-04    0.56      14.3  T
   8   -160.9722137 -0.107516E-07  0.511E-04    0.56      22.9  T
     SCC iter.                  ...        0 min,  0.064 sec
     gradient                   ...        0 min,  0.013 sec
 * total energy  :  -158.5317003 Eh     change       -0.6931029E-04 Eh
   gradient norm :     0.0048756 Eh/α   predicted    -0.8799647E-04 (  26.96%)
   displ. norm   :     0.5604111 α      lambda       -0.1331578E-03
   maximum displ.:     0.3746383 α      in ANC's #6, #8, #5, ...

........................................................................
.............................. CYCLE   37 ..............................
........................................................................
   1   -160.9639504 -0.160964E+03  0.232E-01    0.55       0.0  T
   2   -160.9640345 -0.840126E-04  0.115E-01    0.55       1.0  T
   3   -160.9640485 -0.140415E-04  0.224E-02    0.55       1.0  T
   4   -160.9640361  0.123693E-04  0.165E-02    0.55       1.0  T
   5   -160.9640414 -0.523186E-05  0.113E-02    0.55       1.0  T
   6   -160.9640567 -0.153364E-04  0.242E-03    0.55       4.8  T
   7   -160.9640571 -0.446477E-06  0.110E-03    0.55      10.6  T
   8   -160.9640572 -0.477526E-07  0.544E-04    0.55      21.5  T
     SCC iter.                  ...        0 min,  0.064 sec
     gradient                   ...        0 min,  0.012 sec
 * total energy  :  -158.5317391 Eh     change       -0.3876087E-04 Eh
   gradient norm :     0.0041468 Eh/α   predicted    -0.8748923E-04 ( 125.72%)
   displ. norm   :     0.1340068 α      lambda       -0.5855722E-04
   maximum displ.:     0.0777879 α      in ANC's #6, #8, #9, ...

........................................................................
.............................. CYCLE   38 ..............................
........................................................................
   1   -160.9681682 -0.160968E+03  0.539E-02    0.55       0.0  T
   2   -160.9681729 -0.461934E-05  0.273E-02    0.55       1.0  T
   3   -160.9681713  0.152816E-05  0.697E-03    0.55       1.7  T
   4   -160.9681693  0.199769E-05  0.685E-03    0.55       1.7  T
   5   -160.9681729 -0.360493E-05  0.358E-03    0.55       3.3  T
   6   -160.9681742 -0.131447E-05  0.681E-04    0.55      17.2  T
   7   -160.9681743 -0.218964E-07  0.390E-04    0.55      30.0  T
     SCC iter.                  ...        0 min,  0.056 sec
     gradient                   ...        0 min,  0.012 sec
 * total energy  :  -158.5317723 Eh     change       -0.3321667E-04 Eh
   gradient norm :     0.0019274 Eh/α   predicted    -0.2980487E-04 ( -10.27%)
   displ. norm   :     0.2009619 α      lambda        0.3160362E-04
   maximum displ.:     0.1166646 α      in ANC's #6, #8, #9, ...

........................................................................
.............................. CYCLE   39 ..............................
........................................................................
   1   -160.9738427 -0.160974E+03  0.808E-02    0.56       0.0  T
   2   -160.9738529 -0.101968E-04  0.409E-02    0.56       1.0  T
   3   -160.9738483  0.460819E-05  0.108E-02    0.56       1.1  T
   4   -160.9738431  0.521114E-05  0.110E-02    0.56       1.1  T
   5   -160.9738537 -0.106589E-04  0.489E-03    0.56       2.4  T
   6   -160.9738560 -0.231378E-05  0.950E-04    0.56      12.3  T
   7   -160.9738561 -0.366460E-07  0.566E-04    0.56      20.7  T
   8   -160.9738561 -0.120895E-07  0.304E-04    0.56      38.5  T
     SCC iter.                  ...        0 min,  0.065 sec
     gradient                   ...        0 min,  0.013 sec
 * total energy  :  -158.5317366 Eh     change        0.3566638E-04 Eh
   gradient norm :     0.0059526 Eh/α   predicted     0.1608356E-04 ( -54.91%)
   displ. norm   :     0.2051179 α      lambda       -0.6737960E-04
   maximum displ.:     0.1419677 α      in ANC's #6, #8, #5, ...

........................................................................
.............................. CYCLE   40 ..............................
........................................................................
   1   -160.9706492 -0.160971E+03  0.820E-02    0.56       0.0  T
   2   -160.9706594 -0.102333E-04  0.410E-02    0.56       1.0  T
   3   -160.9706589  0.577193E-06  0.891E-03    0.56       1.3  T
   4   -160.9706509  0.792705E-05  0.102E-02    0.56       1.2  T
   5   -160.9706603 -0.935430E-05  0.441E-03    0.56       2.7  T
   6   -160.9706624 -0.205335E-05  0.909E-04    0.56      12.9  T
   7   -160.9706624 -0.574330E-07  0.389E-04    0.56      30.1  T
     SCC iter.                  ...        0 min,  0.056 sec
     gradient                   ...        0 min,  0.012 sec
 * total energy  :  -158.5317866 Eh     change       -0.4995463E-04 Eh
   gradient norm :     0.0030763 Eh/α   predicted    -0.3510775E-04 ( -29.72%)
   displ. norm   :     0.3102325 α      lambda       -0.5189861E-04
   maximum displ.:     0.2142098 α      in ANC's #6, #8, #5, ...

........................................................................
.............................. CYCLE   41 ..............................
........................................................................
   1   -160.9662253 -0.160966E+03  0.127E-01    0.55       0.0  T
   2   -160.9662502 -0.249202E-04  0.629E-02    0.55       1.0  T
   3   -160.9662527 -0.252366E-05  0.126E-02    0.55       1.0  T
   4   -160.9662339  0.188141E-04  0.143E-02    0.55       1.0  T
   5   -160.9662525 -0.185869E-04  0.633E-03    0.55       1.8  T
   6   -160.9662570 -0.445216E-05  0.987E-04    0.55      11.9  T
   7   -160.9662570 -0.406953E-07  0.545E-04    0.55      21.5  T
   8   -160.9662570 -0.945059E-08  0.288E-04    0.55      40.7  T
     SCC iter.                  ...        0 min,  0.065 sec
     gradient                   ...        0 min,  0.013 sec
 * total energy  :  -158.5318068 Eh     change       -0.2024594E-04 Eh
   gradient norm :     0.0021702 Eh/α   predicted    -0.2844978E-04 (  40.52%)
   displ. norm   :     0.0489694 α      lambda       -0.1945590E-04
   maximum displ.:     0.0276103 α      in ANC's #9, #10, #8, ...

........................................................................
.............................. CYCLE   42 ..............................
........................................................................
   1   -160.9671642 -0.160967E+03  0.225E-02    0.55       0.0  T
   2   -160.9671653 -0.111512E-05  0.109E-02    0.55       1.1  T
   3   -160.9671652  0.915014E-07  0.317E-03    0.55       3.7  T
   4   -160.9671654 -0.209560E-06  0.188E-03    0.55       6.2  T
   5   -160.9671653  0.162893E-06  0.178E-03    0.55       6.6  T
   6   -160.9671656 -0.307018E-06  0.657E-04    0.55      17.8  T
   7   -160.9671656 -0.401693E-07  0.237E-04    0.55      49.5  T
     SCC iter.                  ...        0 min,  0.057 sec
     gradient                   ...        0 min,  0.013 sec
 * total energy  :  -158.5318199 Eh     change       -0.1308850E-04 Eh
   gradient norm :     0.0017833 Eh/α   predicted    -0.9756435E-05 ( -25.46%)
   displ. norm   :     0.0733405 α      lambda       -0.1004562E-05
   maximum displ.:     0.0414150 α      in ANC's #9, #10, #8, ...
 * RMSD in coord.:     0.5966595 α      energy gain  -0.2820505E-02 Eh

generating ANC from model Hessian ...
Using Lindh-Hessian (1995)
 Shifting diagonal of input Hessian by   5.049120006730944E-003
 Lowest  eigenvalues of input Hessian
    0.005000    0.005033   -0.000000   -0.000000   -0.000000   -0.000000
    0.000000    0.000000    0.005076    0.005092    0.005131    0.005226
    0.005313    0.005390    0.005578    0.005685    0.005865    0.006179
 Highest eigenvalues
    2.240643    2.245867    2.596549    2.597373    2.664665    2.664806
 

........................................................................
.............................. CYCLE   43 ..............................
........................................................................
   1   -160.9684392 -0.160968E+03  0.337E-02    0.55       0.0  T
   2   -160.9684416 -0.247532E-05  0.162E-02    0.55       1.0  T
   3   -160.9684414  0.234610E-06  0.471E-03    0.55       2.5  T
   4   -160.9684418 -0.380002E-06  0.298E-03    0.55       3.9  T
   5   -160.9684415  0.313834E-06  0.276E-03    0.55       4.2  T
   6   -160.9684422 -0.752021E-06  0.985E-04    0.55      11.9  T
   7   -160.9684423 -0.870383E-07  0.352E-04    0.55      33.2  T
     SCC iter.                  ...        0 min,  0.057 sec
     gradient                   ...        0 min,  0.013 sec
 * total energy  :  -158.5318168 Eh     change        0.3106862E-05 Eh
   gradient norm :     0.0043936 Eh/α   predicted     0.0000000E+00 (-100.00%)
   displ. norm   :     0.0406400 α      lambda       -0.3596780E-04
   maximum displ.:     0.0220739 α      in ANC's #11, #3, #8, ...

........................................................................
.............................. CYCLE   44 ..............................
........................................................................
   1   -160.9681836 -0.160968E+03  0.215E-02    0.55       0.0  T
   2   -160.9681846 -0.100729E-05  0.114E-02    0.55       1.0  T
   3   -160.9681840  0.562449E-06  0.367E-03    0.55       3.2  T
   4   -160.9681847 -0.698715E-06  0.179E-03    0.55       6.5  T
   5   -160.9681849 -0.143486E-06  0.948E-04    0.55      12.3  T
     SCC iter.                  ...        0 min,  0.040 sec
     gradient                   ...        0 min,  0.012 sec
 * total energy  :  -158.5318352 Eh     change       -0.1842784E-04 Eh
   gradient norm :     0.0020407 Eh/α   predicted    -0.1802158E-04 (  -2.20%)
   displ. norm   :     0.0796050 α      lambda       -0.6959056E-04
   maximum displ.:     0.0393415 α      in ANC's #5, #11, #26, ...

........................................................................
.............................. CYCLE   45 ..............................
........................................................................
   1   -160.9674182 -0.160967E+03  0.572E-02    0.55       0.0  T
   2   -160.9674239 -0.567030E-05  0.308E-02    0.55       1.0  T
   3   -160.9674199  0.399056E-05  0.867E-03    0.55       1.3  T
   4   -160.9674233 -0.341720E-05  0.520E-03    0.55       2.3  T
   5   -160.9674249 -0.159394E-05  0.333E-03    0.55       3.5  T
   6   -160.9674258 -0.901879E-06  0.150E-03    0.55       7.8  T
   7   -160.9674260 -0.194002E-06  0.494E-04    0.55      23.7  T
   8   -160.9674260 -0.132167E-07  0.243E-04    0.55      48.1  T
     SCC iter.                  ...        0 min,  0.065 sec
     gradient                   ...        0 min,  0.013 sec
 * total energy  :  -158.5317713 Eh     change        0.6397022E-04 Eh
   gradient norm :     0.0063380 Eh/α   predicted    -0.3501575E-04 (-154.74%)
   displ. norm   :     0.0444213 α      lambda       -0.1527481E-03
   maximum displ.:     0.0241607 α      in ANC's #5, #26, #13, ...

........................................................................
.............................. CYCLE   46 ..............................
........................................................................
   1   -160.9681439 -0.160968E+03  0.392E-02    0.55       0.0  T
   2   -160.9681466 -0.270890E-05  0.213E-02    0.55       1.0  T
   3   -160.9681440  0.262911E-05  0.657E-03    0.55       1.8  T
   4   -160.9681457 -0.171029E-05  0.424E-03    0.55       2.8  T
   5   -160.9681471 -0.143955E-05  0.215E-03    0.55       5.4  T
   6   -160.9681476 -0.439915E-06  0.893E-04    0.55      13.1  T
     SCC iter.                  ...        0 min,  0.048 sec
     gradient                   ...        0 min,  0.012 sec
 * total energy  :  -158.5318496 Eh     change       -0.7829261E-04 Eh
   gradient norm :     0.0009904 Eh/α   predicted    -0.7652900E-04 (  -2.25%)
   displ. norm   :     0.0414331 α      lambda       -0.8773548E-05
   maximum displ.:     0.0177154 α      in ANC's #3, #11, #8, ...

........................................................................
.............................. CYCLE   47 ..............................
........................................................................
   1   -160.9679116 -0.160968E+03  0.299E-02    0.55       0.0  T
   2   -160.9679126 -0.951546E-06  0.162E-02    0.55       1.0  T
   3   -160.9679124  0.150493E-06  0.272E-03    0.55       4.3  T
   4   -160.9679126 -0.154638E-06  0.200E-03    0.55       5.9  T
   5   -160.9679128 -0.199250E-06  0.130E-03    0.55       9.0  T
   6   -160.9679129 -0.174244E-06  0.427E-04    0.55      27.4  T
   7   -160.9679130 -0.145775E-07  0.180E-04    0.55      64.9  T
     SCC iter.                  ...        0 min,  0.057 sec
     gradient                   ...        0 min,  0.013 sec
 * total energy  :  -158.5318312 Eh     change        0.1836829E-04 Eh
   gradient norm :     0.0023908 Eh/α   predicted    -0.4391227E-05 (-123.91%)
   displ. norm   :     0.0286851 α      lambda       -0.3490971E-04
   maximum displ.:     0.0137350 α      in ANC's #12, #11, #4, ...

........................................................................
.............................. CYCLE   48 ..............................
........................................................................
   1   -160.9679489 -0.160968E+03  0.183E-02    0.55       0.0  T
   2   -160.9679493 -0.374755E-06  0.982E-03    0.55       1.2  T
   3   -160.9679494 -0.661874E-07  0.136E-03    0.55       8.6  T
   4   -160.9679494  0.254661E-08  0.102E-03    0.55      11.5  T
   5   -160.9679494 -0.179980E-07  0.731E-04    0.55      16.0  T
   6   -160.9679494 -0.557930E-07  0.271E-04    0.55      43.2  T
     SCC iter.                  ...        0 min,  0.049 sec
     gradient                   ...        0 min,  0.013 sec
 * total energy  :  -158.5318562 Eh     change       -0.2495279E-04 Eh
   gradient norm :     0.0011237 Eh/α   predicted    -0.1747098E-04 ( -29.98%)
   displ. norm   :     0.0810111 α      lambda       -0.1737218E-04
   maximum displ.:     0.0397760 α      in ANC's #11, #12, #9, ...

........................................................................
.............................. CYCLE   49 ..............................
........................................................................
   1   -160.9679953 -0.160968E+03  0.329E-02    0.55       0.0  T
   2   -160.9679968 -0.148246E-05  0.169E-02    0.55       1.0  T
   3   -160.9679968 -0.418964E-08  0.348E-03    0.55       3.4  T
   4   -160.9679966  0.127308E-06  0.275E-03    0.55       4.3  T
   5   -160.9679968 -0.153512E-06  0.205E-03    0.55       5.7  T
   6   -160.9679972 -0.412787E-06  0.670E-04    0.55      17.5  T
   7   -160.9679972 -0.399169E-07  0.293E-04    0.55      39.9  T
     SCC iter.                  ...        0 min,  0.058 sec
     gradient                   ...        0 min,  0.013 sec
 * total energy  :  -158.5318646 Eh     change       -0.8432194E-05 Eh
   gradient norm :     0.0015308 Eh/α   predicted    -0.8712522E-05 (   3.32%)
   displ. norm   :     0.1356156 α      lambda       -0.2560887E-04
   maximum displ.:     0.0606647 α      in ANC's #11, #3, #7, ...

........................................................................
.............................. CYCLE   50 ..............................
........................................................................
   1   -160.9672990 -0.160967E+03  0.717E-02    0.55       0.0  T
   2   -160.9673051 -0.611698E-05  0.379E-02    0.55       1.0  T
   3   -160.9673055 -0.425219E-06  0.595E-03    0.55       2.0  T
   4   -160.9673047  0.804843E-06  0.531E-03    0.55       2.2  T
   5   -160.9673065 -0.175004E-05  0.295E-03    0.55       4.0  T
   6   -160.9673073 -0.814507E-06  0.109E-03    0.55      10.8  T
   7   -160.9673074 -0.108944E-06  0.467E-04    0.55      25.0  T
   8   -160.9673074 -0.309885E-08  0.261E-04    0.55      44.8  T
     SCC iter.                  ...        0 min,  0.065 sec
     gradient                   ...        0 min,  0.013 sec
 * total energy  :  -158.5317919 Eh     change        0.7266931E-04 Eh
   gradient norm :     0.0049702 Eh/α   predicted    -0.1291290E-04 (-117.77%)
   displ. norm   :     0.0417926 α      lambda       -0.1115587E-03
   maximum displ.:     0.0172062 α      in ANC's #1, #26, #11, ...

........................................................................
.............................. CYCLE   51 ..............................
........................................................................
   1   -160.9680069 -0.160968E+03  0.324E-02    0.55       0.0  T
   2   -160.9680081 -0.112905E-05  0.176E-02    0.55       1.0  T
   3   -160.9680083 -0.213846E-06  0.205E-03    0.55       5.7  T
   4   -160.9680084 -0.945672E-07  0.140E-03    0.55       8.4  T
     SCC iter.                  ...        0 min,  0.033 sec
     gradient                   ...        0 min,  0.012 sec
 * total energy  :  -158.5318674 Eh     change       -0.7544004E-04 Eh
   gradient norm :     0.0018582 Eh/α   predicted    -0.5587998E-04 ( -25.93%)
   displ. norm   :     0.0436155 α      lambda       -0.2793060E-04
   maximum displ.:     0.0157470 α      in ANC's #3, #7, #11, ...

........................................................................
.............................. CYCLE   52 ..............................
........................................................................
   1   -160.9677106 -0.160968E+03  0.256E-02    0.55       0.0  T
   2   -160.9677111 -0.503914E-06  0.139E-02    0.55       1.0  T
   3   -160.9677049  0.622139E-05  0.749E-03    0.55       1.6  T
   4   -160.9677114 -0.643077E-05  0.172E-03    0.55       6.8  T
   5   -160.9677116 -0.192499E-06  0.989E-04    0.55      11.8  T
   6   -160.9677116 -0.684786E-07  0.309E-04    0.55      37.9  T
     SCC iter.                  ...        0 min,  0.053 sec
     gradient                   ...        0 min,  0.014 sec
 * total energy  :  -158.5318823 Eh     change       -0.1493253E-04 Eh
   gradient norm :     0.0013231 Eh/α   predicted    -0.1397769E-04 (  -6.39%)
   displ. norm   :     0.0572640 α      lambda       -0.7112254E-05
   maximum displ.:     0.0261204 α      in ANC's #3, #11, #7, ...

........................................................................
.............................. CYCLE   53 ..............................
........................................................................
   1   -160.9681577 -0.160968E+03  0.219E-02    0.55       0.0  T
   2   -160.9681583 -0.611330E-06  0.113E-02    0.55       1.0  T
   3   -160.9681584 -0.859360E-07  0.204E-03    0.55       5.8  T
   4   -160.9681583  0.297162E-07  0.157E-03    0.55       7.5  T
   5   -160.9681585 -0.135948E-06  0.424E-04    0.55      27.6  T
   6   -160.9681585 -0.103889E-07  0.216E-04    0.55      54.1  T
     SCC iter.                  ...        0 min,  0.049 sec
     gradient                   ...        0 min,  0.013 sec
 * total energy  :  -158.5318865 Eh     change       -0.4191256E-05 Eh
   gradient norm :     0.0014441 Eh/α   predicted    -0.3565376E-05 ( -14.93%)
   displ. norm   :     0.2401845 α      lambda       -0.2807066E-04
   maximum displ.:     0.1003258 α      in ANC's #11, #3, #7, ...

........................................................................
.............................. CYCLE   54 ..............................
........................................................................
   1   -160.9692732 -0.160969E+03  0.851E-02    0.55       0.0  T
   2   -160.9692827 -0.954254E-05  0.436E-02    0.55       1.0  T
   3   -160.9692826  0.193542E-06  0.891E-03    0.55       1.3  T
   4   -160.9692778  0.477122E-05  0.921E-03    0.55       1.3  T
   5   -160.9692832 -0.542442E-05  0.483E-03    0.55       2.4  T
   6   -160.9692858 -0.262839E-05  0.105E-03    0.55      11.2  T
   7   -160.9692859 -0.256972E-07  0.707E-04    0.55      16.6  T
   8   -160.9692859 -0.855525E-08  0.370E-04    0.55      31.7  T
     SCC iter.                  ...        0 min,  0.065 sec
     gradient                   ...        0 min,  0.013 sec
 * total energy  :  -158.5318668 Eh     change        0.1969954E-04 Eh
   gradient norm :     0.0060907 Eh/α   predicted    -0.1439877E-04 (-173.09%)
   displ. norm   :     0.0366643 α      lambda       -0.4257090E-04
   maximum displ.:     0.0165073 α      in ANC's #11, #8, #12, ...

........................................................................
.............................. CYCLE   55 ..............................
........................................................................
   1   -160.9684283 -0.160968E+03  0.187E-02    0.55       0.0  T
   2   -160.9684287 -0.426366E-06  0.998E-03    0.55       1.2  T
   3   -160.9684286  0.127046E-06  0.226E-03    0.55       5.2  T
   4   -160.9684288 -0.213635E-06  0.119E-03    0.55       9.8  T
     SCC iter.                  ...        0 min,  0.033 sec
     gradient                   ...        0 min,  0.012 sec
 * total energy  :  -158.5318966 Eh     change       -0.2986163E-04 Eh
   gradient norm :     0.0022722 Eh/α   predicted    -0.2131617E-04 ( -28.62%)
   displ. norm   :     0.0289902 α      lambda       -0.1642263E-04
   maximum displ.:     0.0154808 α      in ANC's #3, #7, #4, ...

........................................................................
.............................. CYCLE   56 ..............................
........................................................................
   1   -160.9679366 -0.160968E+03  0.141E-02    0.55       0.0  T
   2   -160.9679364  0.182804E-06  0.775E-03    0.55       1.5  T
   3   -160.9679255  0.109439E-04  0.957E-03    0.55       1.2  T
   4   -160.9679370 -0.114867E-04  0.112E-03    0.55      10.5  T
   5   -160.9679370 -0.396858E-07  0.727E-04    0.55      16.1  T
   6   -160.9679370 -0.287964E-07  0.216E-04    0.55      54.1  T
     SCC iter.                  ...        0 min,  0.049 sec
     gradient                   ...        0 min,  0.013 sec
 * total energy  :  -158.5319063 Eh     change       -0.9612001E-05 Eh
   gradient norm :     0.0004069 Eh/α   predicted    -0.8219817E-05 ( -14.48%)
   displ. norm   :     0.0849830 α      lambda       -0.3633962E-05
   maximum displ.:     0.0421400 α      in ANC's #3, #7, #4, ...

........................................................................
.............................. CYCLE   57 ..............................
........................................................................
   1   -160.9677878 -0.160968E+03  0.257E-02    0.55       0.0  T
   2   -160.9677887 -0.902138E-06  0.129E-02    0.55       1.0  T
   3   -160.9677887  0.355692E-08  0.284E-03    0.55       4.1  T
   4   -160.9677886  0.104389E-06  0.231E-03    0.55       5.1  T
   5   -160.9677887 -0.136170E-06  0.150E-03    0.55       7.8  T
   6   -160.9677889 -0.232004E-06  0.444E-04    0.55      26.4  T
   7   -160.9677889 -0.142660E-07  0.223E-04    0.55      52.5  T
     SCC iter.                  ...        0 min,  0.057 sec
     gradient                   ...        0 min,  0.013 sec
 * total energy  :  -158.5319106 Eh     change       -0.4380185E-05 Eh
   gradient norm :     0.0006606 Eh/α   predicted    -0.1824518E-05 ( -58.35%)
   displ. norm   :     0.2085717 α      lambda       -0.7645855E-05
   maximum displ.:     0.1048921 α      in ANC's #3, #4, #7, ...

   *** GEOMETRY OPTIMIZATION CONVERGED AFTER 57 ITERATIONS ***

------------------------------------------------------------------------
 total energy gain   :        -0.0875656 Eh      -54.9482 kcal/mol
 total RMSD          :         1.5282922 a0        0.8087 Å
 total power (kW/mol):        -4.0333934 (step)  -41.5674 (real)
------------------------------------------------------------------------

 ANCopt (total)                0 d,  0 h,  0 min,  5.531 sec
 optimizer setup                ...        0 min,  0.000 sec (  0.002%)
 model hessian                  ...        0 min,  0.029 sec (  0.532%)
 ANC generation                 ...        0 min,  0.010 sec (  0.182%)
 coordinate transformation      ...        0 min,  0.002 sec (  0.042%)
 single point calculation       ...        0 min,  5.460 sec ( 98.715%)
 optimization log               ...        0 min,  0.010 sec (  0.189%)
 hessian update                 ...        0 min,  0.002 sec (  0.039%)
 rational function              ...        0 min,  0.013 sec (  0.230%)

================
 final structure:
================
$coord
    4.80659470904509   -0.19293624395346    8.16443614670592      C 
    4.97578616564720   -0.25084546130182    5.57194219010913      C 
    4.66987608362591   -2.29874715337844    4.13139998410216      N 
    4.15590733592447   -4.50984855608812    5.16499143015523      C 
    3.92139483536271   -4.71694459617174    7.83403222353882      C 
    4.26019732267113   -2.49623282506077    9.35710119445548      C 
    3.98627329178526   -3.00310580864443   11.81482464784093      N 
    3.37079873268567   -5.95283709334309   12.14440146701715      S 
    3.41544698465723   -6.75773641730601    9.20832141125366      N 
    3.85990757481829   -6.66228451481549    3.55638200783666      C 
    4.07537117853368   -6.69330718281469    0.95059557330543      C 
    3.70366218936406   -9.10675092657312   -0.02623993595683      C 
    3.19884143510884  -10.91634965997309    1.86788921033066      C 
    3.18406136153110   -9.63740047153848    4.82954642347409      S 
    2.87597605982134  -13.30728765016401    0.71398627135314      C 
    3.17897682608313  -13.00901933971221   -1.91758884792012      C 
    3.70295203430502  -10.36604155908573   -2.46583810732983      C 
    4.11829904873075   -9.30989077836438   -4.78043316045705      C 
    4.08664833116518  -10.74542265293980   -7.02718262907147      C 
    4.06798428395366  -11.88725877456539   -8.86953102676459      N 
    4.61705323938778   -6.70991538672320   -5.09742332868939      C 
    5.02469358549050   -4.60146624695716   -5.38712886927611      N 
[...]

         :::::::::::::::::::::::::::::::::::::::::::::::::::::
         ::                     SUMMARY                     ::
         :::::::::::::::::::::::::::::::::::::::::::::::::::::
         :: total energy            -158.531910655344 Eh    ::
         :: gradient norm              0.000660602794 Eh/a0 ::
         :: HOMO-LUMO gap              0.554911715691 eV    ::
         ::.................................................::
         :: SCC energy              -160.967788945603 Eh    ::
         :: -> isotropic ES            0.108105356421 Eh    ::
         :: -> anisotropic ES          0.013715195537 Eh    ::
         :: -> anisotropic XC          0.143956495772 Eh    ::
         :: -> dispersion             -0.134938460996 Eh    ::
         :: repulsion energy           2.438180168661 Eh    ::
         :: add. restraining           0.000000000000 Eh    ::
         :::::::::::::::::::::::::::::::::::::::::::::::::::::

           -------------------------------------------------
          |                Property Printout                |
           -------------------------------------------------

    * Orbital Energies and Occupations

         #    Occupation            Energy/Eh            Energy/eV
      -------------------------------------------------------------
         1        2.0000           -0.7828830             -21.3033
       ...           ...                  ...                  ...
       133        2.0000           -0.4263640             -11.6020
       134        2.0000           -0.4257134             -11.5843
       135        2.0000           -0.4256255             -11.5819
       136        2.0000           -0.4233778             -11.5207
       137        2.0000           -0.4219357             -11.4815
       138        2.0000           -0.4160591             -11.3215
       139        2.0000           -0.4131592             -11.2426
       140        2.0000           -0.4047233             -11.0131
       141        2.0000           -0.3892784             -10.5928
       142        2.0000           -0.3881939             -10.5633
       143        2.0000           -0.3875437             -10.5456
       144        2.0000           -0.3788203             -10.3082
       145        2.0000           -0.3702705             -10.0756 (HOMO)
       146        0.0000           -0.3498778              -9.5207 (LUMO)
       147                         -0.3415137              -9.2931
       148                         -0.3364803              -9.1561
       149                         -0.3263121              -8.8794
       150                         -0.3255004              -8.8573
       151                         -0.2975939              -8.0979
       152                         -0.2838994              -7.7253
       153                         -0.2792828              -7.5997
       154                         -0.2656252              -7.2280
       155                         -0.2640004              -7.1838
       156                         -0.2480745              -6.7504
       ...                                ...                  ...
       297                          1.1605242              31.5795
      -------------------------------------------------------------
                  HL-Gap            0.0203926 Eh            0.5549 eV
             Fermi-level           -0.3600741 Eh           -9.7981 eV

     #   Z        covCN         q      C6AA      α(0)
     1   6 C      2.903    -0.056    29.385     8.888
     2   6 C      2.896     0.056    26.742     8.479
     3   7 N      1.845    -0.234    26.969     7.696
     4   6 C      2.966     0.087    26.064     8.374
     5   6 C      3.354     0.063    23.875     7.688
     6   6 C      3.354     0.084    23.461     7.622
     7   7 N      1.854    -0.269    27.839     7.820
     8  16 S      2.688     0.366   127.022    18.969
     9   7 N      1.866    -0.269    27.837     7.821
    10   6 C      3.014     0.014    27.674     8.629
    11   6 C      3.047    -0.034    28.793     8.801
    12   6 C      3.240    -0.019    27.541     8.509
    13   6 C      3.088     0.016    27.560     8.605
    14  16 S      2.258     0.057   138.745    19.825
    15   6 C      3.080     0.007    27.781     8.641
    16   6 C      3.238    -0.017    27.523     8.509
    17   6 C      3.039     0.039    27.097     8.538
    18   6 C      2.946     0.020    27.562     8.611
    19   6 C      1.922     0.125    28.027     8.550
    20   7 N      0.911    -0.220    25.799     7.346
    21   6 C      1.922     0.124    28.049     8.553
    22   7 N      0.911    -0.216    25.704     7.333
    23   6 C      3.043    -0.042    29.007     8.833
    24   6 C      3.006     0.029    27.341     8.577
    25  16 S      2.461     0.037   139.563    19.883
    26   6 C      3.002    -0.016    28.392     8.741
    27   6 C      2.969     0.069    26.448     8.436
    28   6 C      2.961     0.073    26.375     8.424
    29   7 N      1.843    -0.208    26.351     7.608
    30   6 C      2.889     0.058    26.701     8.472
    31   6 C      2.888     0.056    26.753     8.480
    32   7 N      2.075    -0.183    25.635     7.511
    33   6 C      2.997    -0.017    28.430     8.746
    34   6 C      3.340     0.069    24.049     7.756
    35   6 C      3.334     0.068    24.186     7.795
    36   7 N      1.854    -0.266    27.768     7.810
    37  16 S      2.653     0.393   126.058    18.897
    38   7 N      1.928    -0.266    27.758     7.812
    39   6 C      3.004     0.028    27.356     8.580
    40   6 C      3.045    -0.044    29.046     8.839
    41   6 C      3.244    -0.019    27.479     8.493
    42   6 C      3.080     0.009    27.735     8.634
    43  16 S      2.322     0.045   139.232    19.860
    44   6 C      3.087     0.020    27.474     8.592
    45   6 C      3.246    -0.020    27.491     8.493
    46   6 C      3.041     0.038    27.106     8.539
    47   6 C      2.946     0.020    27.559     8.610
    48   6 C      1.922     0.125    28.036     8.551
    49   7 N      0.911    -0.218    25.752     7.339
    50   6 C      1.922     0.125    28.018     8.548
    51   7 N      0.911    -0.220    25.804     7.347
    52   6 C      3.050    -0.043    29.013     8.834
    53   6 C      3.003     0.020    27.543     8.609
    54  16 S      2.253     0.018   140.327    19.938
    55   6 C      2.985    -0.012    28.304     8.727
    56   6 C      2.907     0.043    27.025     8.524
    57   7 N      1.836    -0.208    26.347     7.607
    58   6 C      2.886     0.051    26.845     8.494
    59   6 C      3.346     0.063    24.029     7.736
    60   6 C      3.357     0.080    23.479     7.617
    61   7 N      1.853    -0.275    27.976     7.839
    62  16 S      2.686     0.391   126.112    18.901
    63   7 N      1.852    -0.266    27.750     7.808
    64   1 H      0.926     0.053     2.282     2.362
    65   1 H      0.925     0.053     2.287     2.365
    66   1 H      0.926     0.082     1.963     2.191
    67   1 H      0.926     0.082     1.962     2.191
    68   1 H      0.926     0.059     2.207     2.323
    69   1 H      0.926     0.053     2.277     2.360
    70   1 H      0.926     0.091     1.870     2.138
    71   1 H      0.926     0.083     1.950     2.184
    72   1 H      0.925     0.053     2.278     2.360
    73   1 H      0.926     0.059     2.206     2.323

 Mol. C6AA /au·bohr⁶  :     149064.185019
 Mol. C8AA /au·bohr⁸  :    4538981.261591
 Mol. α(0) /au        :        621.443169


Wiberg/Mayer (AO) data.
largest (>0.10) Wiberg bond orders for each atom
          total WBO             WBO to atom ...
     1  C   3.943        C    2 1.511    C    6 1.263    H   64 0.967
     2  C   3.979        C    1 1.511    N    3 1.355    H   65 0.961
     3  N   3.049        C    4 1.434    C    2 1.355
     4  C   3.978        N    3 1.434    C    5 1.172    C   10 1.153
     5  C   3.970        N    9 1.396    C    4 1.172    C    6 1.171
     6  C   3.975        N    7 1.361    C    1 1.263    C    5 1.171
     7  N   3.073        S    8 1.447    C    6 1.361    N    9 0.165
     8  S   3.194        N    7 1.447    N    9 1.422
     9  N   3.105        S    8 1.422    C    5 1.396    N    7 0.165
    10  C   3.897        C   11 1.443    C    4 1.153    S   14 1.123
    11  C   3.965        C   10 1.443    C   12 1.349    H   66 0.955
    12  C   3.938        C   11 1.349    C   13 1.290    C   17 1.101
    13  C   3.918        C   12 1.290    S   14 1.210    C   15 1.204
    14  S   2.667        C   13 1.210    C   10 1.123
    15  C   3.897        C   16 1.285    C   13 1.204    S   25 1.195
    16  C   3.947        C   23 1.370    C   15 1.285    C   17 1.092
    17  C   3.981        C   18 1.511    C   12 1.101    C   16 1.092
    18  C   3.985        C   17 1.511    C   19 1.094    C   21 1.093
    19  C   3.947        N   20 2.782    C   18 1.094
    20  N   2.976        C   19 2.782
    21  C   3.948        N   22 2.784    C   18 1.093
    22  N   2.977        C   21 2.784
    23  C   3.924        C   24 1.400    C   16 1.370    H   67 0.948
    24  C   3.917        C   23 1.400    C   26 1.220    S   25 1.111
    25  S   2.752        C   15 1.195    C   24 1.111    N   32 0.147
    26  C   3.915        C   27 1.238    C   24 1.220    C   35 1.220
    27  C   3.969        N   32 1.297    C   26 1.238    C   28 1.191
    28  C   3.969        N   29 1.302    C   33 1.231    C   27 1.191
    29  N   3.072        C   30 1.550    C   28 1.302
    30  C   3.946        N   29 1.550    C   31 1.277    H   68 0.960
    31  C   3.945        N   32 1.538    C   30 1.277    H   69 0.961
    32  N   3.192        C   31 1.538    C   27 1.297    S   25 0.147
    33  C   3.913        C   28 1.231    C   34 1.228    C   39 1.217
    34  C   3.968        N   38 1.371    C   33 1.228    C   35 1.153
    35  C   3.967        N   36 1.374    C   26 1.220    C   34 1.153
    36  N   3.076        S   37 1.443    C   35 1.374    N   38 0.157
    37  S   3.153        N   36 1.443    N   38 1.418
    38  N   3.109        S   37 1.418    C   34 1.371    N   36 0.157
    39  C   3.916        C   40 1.404    C   33 1.217    S   43 1.108
    40  C   3.923        C   39 1.404    C   41 1.368    H   70 0.943
    41  C   3.950        C   40 1.368    C   42 1.287    C   46 1.091
    42  C   3.886        C   41 1.287    S   43 1.203    C   44 1.199
    43  S   2.676        C   42 1.203    C   39 1.108
    44  C   3.921        C   45 1.305    C   42 1.199    S   54 1.197
    45  C   3.936        C   52 1.327    C   44 1.305    C   46 1.102
    46  C   3.981        C   47 1.510    C   45 1.102    C   41 1.091
    47  C   3.983        C   46 1.510    C   50 1.094    C   48 1.094
    48  C   3.948        N   49 2.783    C   47 1.094
    49  N   2.976        C   48 2.783
    50  C   3.947        N   51 2.782    C   47 1.094
    51  N   2.975        C   50 2.782
    52  C   3.977        C   53 1.470    C   45 1.327    H   71 0.947
    53  C   3.894        C   52 1.470    C   55 1.151    S   54 1.104
    54  S   2.607        C   44 1.197    C   53 1.104
    55  C   3.984        C   56 1.420    C   60 1.193    C   53 1.151
    56  C   3.957        C   55 1.420    N   57 1.359    H   72 0.955
    57  N   3.082        C   58 1.529    C   56 1.359
    58  C   3.937        N   57 1.529    C   59 1.238    H   73 0.960
    59  C   3.974        N   63 1.363    C   58 1.238    C   60 1.174
    60  C   3.971        N   61 1.386    C   55 1.193    C   59 1.174
    61  N   3.089        S   62 1.434    C   60 1.386    N   63 0.166
    62  S   3.221        N   63 1.462    N   61 1.434
    63  N   3.081        S   62 1.462    C   59 1.363    N   61 0.166
    64  H   0.996        C    1 0.967
    65  H   0.995        C    2 0.961
    66  H   0.993        C   11 0.955
    67  H   0.993        C   23 0.948
    68  H   0.995        C   30 0.960
    69  H   0.996        C   31 0.961
    70  H   0.991        C   40 0.943
    71  H   0.993        C   52 0.947
    72  H   0.995        C   56 0.955
    73  H   0.996        C   58 0.960

molecular dipole:
                 x           y           z       tot (Debye)
 q only:       -0.171      -0.708       0.624
   full:       -0.215      -0.349       1.321       3.516
molecular quadrupole (traceless):
                xx          xy          yy          xz          yz          zz
 q only:       -3.518      -8.310      -2.174       6.507      14.752       5.692
  q+dip:       15.715      -6.294     -16.817      13.196       2.316       1.102
   full:       32.904      -8.890     -26.782      15.752       0.182      -6.122

           -------------------------------------------------
          |                Geometry Summary                 |
           -------------------------------------------------

      molecular mass/u    :      935.0548000
   center of mass at/Å    :        1.3529656     -12.1801243      -1.3009877
  moments of inertia/u·Å² :        0.5433085E+04   0.5892337E+05   0.6413773E+05
rotational constants/cm⁻¹ :        0.3102774E-02   0.2860942E-03   0.2628349E-03

 * 78 selected distances

     #   Z        #   Z                                     value/Å
     1   6 C      2   6 C                                 1.3751488
     2   6 C      3   7 N                                 1.3348117
     3   7 N      4   6 C                                 1.3199175
     4   6 C      5   6 C                                 1.4220662
     1   6 C      6   6 C                                 1.4026866
     5   6 C      6   6 C                                 1.4362155
     6   6 C      7   7 N                                 1.3358303
     7   7 N      8  16 S                                 1.6040570
     5   6 C      9   7 N                                 1.3292239
     8  16 S      9   7 N                                 1.6112055
     4   6 C     10   6 C                                 1.4305630
    10   6 C     11   6 C                                 1.3837262
    11   6 C     12   6 C                                 1.3917549
    12   6 C     13   6 C                                 1.4117450
    10   6 C     14  16 S                                 1.7494116
    13   6 C     14  16 S                                 1.7071477
    13   6 C     15   6 C                                 1.4152221
    15   6 C     16   6 C                                 1.4106283
    12   6 C     17   6 C                                 1.4528256
    17   6 C     18   6 C                                 1.3641403
    19   6 C     20   7 N                                 1.1470319
    21   6 C     22   7 N                                 1.1466989
    16   6 C     23   6 C                                 1.3874912
    23   6 C     24   6 C                                 1.3902204
    15   6 C     25  16 S                                 1.7139210
    24   6 C     25  16 S                                 1.7547093
    24   6 C     26   6 C                                 1.4168053
    26   6 C     27   6 C                                 1.4164698
    27   6 C     28   6 C                                 1.4337872
    28   6 C     29   7 N                                 1.3468852
    29   7 N     30   6 C                                 1.3039050
    30   6 C     31   6 C                                 1.4084503
    27   6 C     32   7 N                                 1.3448510
    31   6 C     32   7 N                                 1.3034541
    28   6 C     33   6 C                                 1.4208408
    33   6 C     34   6 C                                 1.4112503
    26   6 C     35   6 C                                 1.4108070
    34   6 C     35   6 C                                 1.4421808
    35   6 C     36   7 N                                 1.3345626
    36   7 N     37  16 S                                 1.6010121
    34   6 C     38   7 N                                 1.3346724
    37  16 S     38   7 N                                 1.6066638
    33   6 C     39   6 C                                 1.4202527
    39   6 C     40   6 C                                 1.3898628
    40   6 C     41   6 C                                 1.3871371
    41   6 C     42   6 C                                 1.4100857
    39   6 C     43  16 S                                 1.7601672 (max)
    42   6 C     43  16 S                                 1.7086573
    42   6 C     44   6 C                                 1.4160754
    44   6 C     45   6 C                                 1.4079702
    45   6 C     46   6 C                                 1.4516502
    46   6 C     47   6 C                                 1.3643912
    48   6 C     49   7 N                                 1.1467718
    50   6 C     51   7 N                                 1.1468692
    45   6 C     52   6 C                                 1.3950288
    52   6 C     53   6 C                                 1.3799788
    44   6 C     54  16 S                                 1.7062970
    53   6 C     55   6 C                                 1.4325450
    55   6 C     56   6 C                                 1.3897124
    56   6 C     57   7 N                                 1.3331830
    57   7 N     58   6 C                                 1.3059602
    58   6 C     59   6 C                                 1.4070198
    55   6 C     60   6 C                                 1.4202130
    59   6 C     60   6 C                                 1.4384309
    60   6 C     61   7 N                                 1.3325559
    61   7 N     62  16 S                                 1.6064054
    59   6 C     63   7 N                                 1.3350534
    62  16 S     63   7 N                                 1.6020145
     1   6 C     64   1 H                                 1.0765352
     2   6 C     65   1 H                                 1.0814985
    11   6 C     66   1 H                                 1.0743481
    23   6 C     67   1 H                                 1.0744826
    30   6 C     68   1 H                                 1.0809879
    31   6 C     69   1 H                                 1.0805199
    40   6 C     70   1 H                                 1.0737947 (min)
    52   6 C     71   1 H                                 1.0747722
    56   6 C     72   1 H                                 1.0826502
    58   6 C     73   1 H                                 1.0796579

 * 5 distinct bonds (by element types)

   Z      Z             #   av. dist./Å        max./Å        min./Å
   1 H    6 C          10     1.0779247     1.0826502     1.0737947
   6 C    6 C          37     1.4093346     1.4528256     1.3641403
   6 C    7 N          18     1.2879021     1.3468852     1.1466989
   6 C   16 S           7     1.7286159     1.7601672     1.7062970
   7 N   16 S           6     1.6052264     1.6112055     1.6010121


optimized geometry written to: xtbopt.xyz


           -------------------------------------------------
          | TOTAL ENERGY             -158.531910655344 Eh   |
          | GRADIENT NORM               0.000660602794 Eh/α |
          | HOMO-LUMO GAP               0.554911715691 eV   |
           -------------------------------------------------

------------------------------------------------------------------------
 * finished run on 2021/05/14 at 16:30:55.198     
------------------------------------------------------------------------
 total:
 * wall-time:     0 d,  0 h,  0 min,  5.794 sec
 *  cpu-time:     0 d,  0 h,  1 min,  9.439 sec
 * ratio c/w:    11.984 speedup
 SCF:
 * wall-time:     0 d,  0 h,  0 min,  0.163 sec
 *  cpu-time:     0 d,  0 h,  0 min,  1.954 sec
 * ratio c/w:    11.977 speedup
 ANC optimizer:
 * wall-time:     0 d,  0 h,  0 min,  5.593 sec
 *  cpu-time:     0 d,  0 h,  1 min,  7.113 sec
 * ratio c/w:    11.998 speedup

