      -----------------------------------------------------------      
     |                   =====================                   |     
     |                           x T B                           |     
     |                   =====================                   |     
     |                         S. Grimme                         |     
     |          Mulliken Center for Theoretical Chemistry        |     
     |                    University of Bonn                     |     
     |                Version 6.2 RC2 (SAW190805)                |     
      -----------------------------------------------------------      

   This program is distributed in the hope that it will be useful,
   but WITHOUT ANY WARRANTY; without even the implied warranty of
   MERCHANTABILITY or FITNESS FOR A PARTICULAR PURPOSE.
   
   FOR NON-COMMERCIAL, ACADEMIA USE ONLY.
   
   Cite this work as:
   * S. Grimme, C. Bannwarth, P. Shushkov, J. Chem. Theory Comput., 2017,
     13, 1989-2009. DOI: 10.1021/acs.jctc.7b00118
   * C. Bannwarth, S. Ehlert and S. Grimme., J. Chem. Theory Comput., 2019,
     15, 1652-1671. DOI: 10.1021/acs.jctc.8b01176
   * P. Pracht, E. Caldeweyher, S. Ehlert, S. Grimme, ChemRxiv, 2019, preprint.
     DOI: 10.26434/chemrxiv.8326202.v1
   
   for DFT-D4:
   * E. Caldeweyher, C. Bannwarth and S. Grimme, J. Chem. Phys., 2017,
     147, 034112. DOI: 10.1063/1.4993215
   * E. Caldeweyher, S. Ehlert, A. Hansen, H. Neugebauer, S. Spicher,
     C. Bannwarth and S. Grimme, J. Chem. Phys., 2019, 150, 154122.
     DOI: 10.1063/1.5090222
   
   for sTDA-xTB:
   * S. Grimme and C. Bannwarth, J. Chem. Phys., 2016, 145, 054103.
     DOI: 10.1063/1.4959605
   
   in the mass-spec context:
   * V. Asgeirsson, C. Bauer and S. Grimme, Chem. Sci., 2017, 8, 4879.
     DOI: 10.1039/c7sc00601b
   
   for metadynamics refer to:
   * S. Grimme, J. Chem. Theory Comput., 2019, 155, 2847-2862
     DOI: 10.1021/acs.jctc.9b00143
   
   with help from (in alphabetical order)
   C. Bannwarth, F. Bohle, G. Brandenburg, E. Caldeweyher, M. Checinski,
   S. Dohm, S. Ehlert, S. Ehrlich, F. März, H. Neugebauer, J. Pisarek,
   P. Pracht, P. Shushkov, and S. Spicher.
   
 * started run on 2021/05/04 at 16:00:34.105     

           -------------------------------------------------
          |                Calculation Setup                |
           -------------------------------------------------

          program call               : /ihome/ghutchison/geoffh/xtb/xtb ../32_40_17_40_32.xyz --opt
          hostname                   : login0.crc.pitt.edu
          coordinate file            : ../32_40_17_40_32.xyz
          omp threads                :                    12
          number of atoms            :                    67
          number of electrons        :                   234
          charge                     :                     0
          spin                       :                   0.0
          first test random number   :      0.20230496544201


########################################################################
# WARNING! Please study the warnings concerning your input carefully
#  - XTBHOME is not set, using HOME instead
#  - XTBPATH is not set, using XTBHOME instead
########################################################################

           ------------------------------------------------- 
          |                 G F N 2 - x T B                 |
          | Geometry, Frequencies, Noncovalent interactions |
          |            JCTC 2019 parametrisation            |
           ------------------------------------------------- 
             k(s)              :                1.8500
             k(p)              :                2.2300
             k(d)              :                2.2300
             k(f)              :                2.0000
             kEN (H0ij)        :               -2.0000
             D4 a1             :                0.5200
             D4 a2             :                5.0000
             D4 s6             :                1.0000
             D4 s8             :                2.7000
             D4 s9             :                5.0000
             alphaj            :                2.0000

  Z AO/shell   Hii/eV     exponent
  1     Wed Apr 25 08:07:45 CEST 2018   EN: 2.200 GM2: 0.406  GM3: 0.0800  RAES: 1.40
     1s    -10.707211    1.230000
  6     Wed Apr 25 08:07:45 CEST 2018   EN: 2.550 GM2: 0.538  GM3: 0.1500  RAES: 3.00
     2s    -13.970922    2.096432
     2p    -10.063292    1.800000
  7     Wed Apr 25 08:07:45 CEST 2018   EN: 3.040 GM2: 0.461  GM3:-0.0640  RAES: 1.90
     2s    -16.686243    2.339881
     2p    -12.523956    2.014332
  8     Wed Apr 25 08:07:45 CEST 2018   EN: 3.440 GM2: 0.452  GM3:-0.0517  RAES: 1.80
     2s    -20.229985    2.439742
     2p    -15.503117    2.137023
 16     Tue Apr 24 11:44:34 CEST 2018   EN: 2.580 GM2: 0.340  GM3:-0.0502  RAES: 3.10
     3s    -20.029654    1.981333
     3p    -11.377694    2.025643
     3d     -0.420282    1.702555

           ------------------------------------------------- 
          |        Self-Consistent Charge Iterations        |
           ------------------------------------------------- 

          ...................................................
          :                      SETUP                      :
          :.................................................:
          :  # basis functions                 223          :
          :  # atomic orbitals                 221          :
          :  # shells                          117          :
          :  # electrons                       234          :
          :  max. iterations                   250          :
          :  Hamiltonian                  GFN2-xTB          :
          :  restarted?                      false          :
          :  GBSA solvation                  false          :
          :  PC potential                    false          :
          :  electronic temp.          300.0000000     K    :
          :  accuracy                    1.0000000          :
          :  -> integral cutoff          0.2500000E+02      :
          :  -> integral neglect         0.1000000E-07      :
          :  -> SCF convergence          0.1000000E-05 Eh   :
          :  -> wf. convergence          0.1000000E-03 e    :
          :  Broyden damping             0.4000000          :
          ...................................................

 iter      E             dE          RMSdq      gap      omega  full diag
   1   -132.3151824 -0.132315E+03  0.461E+00    1.78       0.0  T
   2   -132.6041023 -0.288920E+00  0.298E+00    1.56       1.0  T
   3   -132.6653194 -0.612172E-01  0.160E+00    1.60       1.0  T
   4   -132.6782427 -0.129233E-01  0.435E-01    1.39       1.0  T
   5   -132.6868398 -0.859709E-02  0.159E-01    1.44       1.0  T
   6   -132.6875483 -0.708494E-03  0.973E-02    1.47       1.0  T
   7   -132.6879057 -0.357466E-03  0.430E-02    1.47       1.0  T
   8   -132.6879777 -0.719731E-04  0.188E-02    1.48       1.0  T
   9   -132.6879806 -0.291839E-05  0.122E-02    1.47       1.0  T
  10   -132.6879889 -0.822451E-05  0.338E-03    1.47       3.6  T
  11   -132.6879891 -0.220505E-06  0.175E-03    1.47       7.0  T
  12   -132.6879892 -0.846869E-07  0.692E-04    1.47      17.7  T
  13   -132.6879892  0.652193E-09  0.433E-04    1.47      28.2  T

   *** convergence criteria satisfied after 13 iterations ***

         #    Occupation            Energy/Eh            Energy/eV
      -------------------------------------------------------------
         1        2.0000           -0.7668284             -20.8665
       ...           ...                  ...                  ...
       111        2.0000           -0.4046287             -11.0105
       112        2.0000           -0.4023948             -10.9497
       113        2.0000           -0.3997409             -10.8775
       114        2.0000           -0.3916331             -10.6569
       115        2.0000           -0.3877316             -10.5507
       116        2.0000           -0.3867718             -10.5246
       117        2.0000           -0.3803301             -10.3493 (HOMO)
       118                         -0.3261746              -8.8757 (LUMO)
       119                         -0.3258968              -8.8681
       120                         -0.3226306              -8.7792
       121                         -0.3166551              -8.6166
       122                         -0.2797181              -7.6115
       ...                                ...                  ...
       221                          0.7709441              20.9785
      -------------------------------------------------------------
                  HL-Gap            0.0541556 Eh            1.4736 eV
             Fermi-level           -0.3535083 Eh           -9.6194 eV

 SCC (total)                   0 d,  0 h,  0 min,  0.226 sec
 SCC setup                      ...        0 min,  0.001 sec (  0.594%)
 Dispersion                     ...        0 min,  0.002 sec (  1.047%)
 integral evaluation            ...        0 min,  0.027 sec ( 11.849%)
 zeroth order Hamiltonian       ...        0 min,  0.001 sec (  0.429%)
 iterations                     ...        0 min,  0.174 sec ( 76.814%)
 molecular gradient             ...        0 min,  0.015 sec (  6.668%)
 printout                       ...        0 min,  0.006 sec (  2.550%)

         :::::::::::::::::::::::::::::::::::::::::::::::::::::
         ::                     SUMMARY                     ::
         :::::::::::::::::::::::::::::::::::::::::::::::::::::
         :: total energy            -131.039873122159 Eh    ::
         :: gradient norm              0.170501241343 Eh/a0 ::
         :: HOMO-LUMO gap              1.473647555714 eV    ::
         ::.................................................::
         :: SCC energy              -132.687989170125 Eh    ::
         :: -> isotropic ES            0.183933824570 Eh    ::
         :: -> anisotropic ES          0.011287560137 Eh    ::
         :: -> anisotropic XC          0.066454994563 Eh    ::
         :: -> dispersion             -0.097380203932 Eh    ::
         :: repulsion energy           1.647718398290 Eh    ::
         :: add. restraining           0.000000000000 Eh    ::
         :::::::::::::::::::::::::::::::::::::::::::::::::::::

      ----------------------------------------------------------- 
     |                   =====================                   |
     |                        A N C O P T                        |
     |                   =====================                   |
     |               Approximate Normal Coordinate               |
     |                Rational Function Optimizer                |
      ----------------------------------------------------------- 

          ...................................................
          :                      SETUP                      :
          :.................................................:
          :   optimization level            normal          :
          :   max. optcycles                   201          :
          :   ANC micro-cycles                  20          :
          :   degrees of freedom               195          :
          :.................................................:
          :   RF solver                   davidson          :
          :   input Hessian                  false          :
          :   write xtbopt.log                true          :
          :   linear?                        false          :
          :   energy convergence         0.5000000E-05 Eh   :
          :   grad. convergence          0.1000000E-02 Eh/α :
          :   maximium RF displ.         1.0000000          :
          :   Hlow (freq-cutoff)         0.1000000E-01      :
          :   Hmax (freq-cutoff)         5.0000000          :
          :   S6 in model hess.         20.0000000          :
          ...................................................

generating ANC from model Hessian ...
Using Lindh-Hessian (1995)
 Shifting diagonal of input Hessian by   9.899349773264642E-003
 Lowest  eigenvalues of input Hessian
   -0.000000   -0.000000   -0.000000   -0.000000    0.000000    0.000000
    0.010000    0.010051    0.010095    0.010441    0.010505    0.010763
    0.010812    0.011001    0.011247    0.012172    0.012219    0.012596
 Highest eigenvalues
    2.203631    2.228548    2.367743    2.385237    2.401427    2.411864
 

........................................................................
.............................. CYCLE    1 ..............................
........................................................................
   1   -132.6879892 -0.132688E+03  0.238E-04    1.47       0.0  T
   2   -132.6879892  0.197360E-08  0.246E-04    1.47      49.7  T
   3   -132.6879892 -0.460216E-08  0.866E-05    1.47     141.1  T
     SCC iter.                  ...        0 min,  0.032 sec
     gradient                   ...        0 min,  0.014 sec
 * total energy  :  -131.0398731 Eh     change        0.4332782E-07 Eh
   gradient norm :     0.1705013 Eh/α   predicted     0.0000000E+00 (-100.00%)
   displ. norm   :     0.3730996 α      lambda       -0.4200494E-01
   maximum displ.:     0.1148660 α      in ANC's #111, #110, #42, ...

........................................................................
.............................. CYCLE    2 ..............................
........................................................................
   1   -132.7773639 -0.132777E+03  0.373E-01    1.37       0.0  T
   2   -132.7778739 -0.509926E-03  0.169E-01    1.38       1.0  T
   3   -132.7776708  0.203071E-03  0.791E-02    1.39       1.0  T
   4   -132.7778415 -0.170704E-03  0.504E-02    1.38       1.0  T
   5   -132.7779750 -0.133545E-03  0.202E-02    1.38       1.0  T
   6   -132.7779841 -0.903182E-05  0.820E-03    1.39       1.5  T
   7   -132.7779868 -0.270298E-05  0.297E-03    1.38       4.1  T
   8   -132.7779872 -0.394244E-06  0.154E-03    1.39       7.9  T
     SCC iter.                  ...        0 min,  0.147 sec
     gradient                   ...        0 min,  0.020 sec
 * total energy  :  -131.0701377 Eh     change       -0.3026466E-01 Eh
   gradient norm :     0.0874497 Eh/α   predicted    -0.2392612E-01 ( -20.94%)
   displ. norm   :     0.3681301 α      lambda       -0.1752469E-01
   maximum displ.:     0.1406594 α      in ANC's #42, #48, #45, ...

........................................................................
.............................. CYCLE    3 ..............................
........................................................................
   1   -132.8333131 -0.132833E+03  0.295E-01    1.30       0.0  T
   2   -132.8336798 -0.366739E-03  0.142E-01    1.30       1.0  T
   3   -132.8334983  0.181517E-03  0.834E-02    1.31       1.0  T
   4   -132.8335983 -0.100026E-03  0.517E-02    1.31       1.0  T
   5   -132.8337567 -0.158403E-03  0.175E-02    1.31       1.0  T
   6   -132.8337704 -0.137010E-04  0.700E-03    1.31       1.7  T
   7   -132.8337722 -0.175724E-05  0.230E-03    1.31       5.3  T
   8   -132.8337723 -0.177255E-06  0.116E-03    1.31      10.5  T
     SCC iter.                  ...        0 min,  0.070 sec
     gradient                   ...        0 min,  0.013 sec
 * total energy  :  -131.0807074 Eh     change       -0.1056969E-01 Eh
   gradient norm :     0.0375675 Eh/α   predicted    -0.9949815E-02 (  -5.86%)
   displ. norm   :     0.2694934 α      lambda       -0.3340846E-02
   maximum displ.:     0.1004169 α      in ANC's #23, #42, #15, ...

........................................................................
.............................. CYCLE    4 ..............................
........................................................................
   1   -132.8412205 -0.132841E+03  0.170E-01    1.28       0.0  T
   2   -132.8413126 -0.921543E-04  0.807E-02    1.28       1.0  T
   3   -132.8412712  0.414706E-04  0.437E-02    1.29       1.0  T
   4   -132.8413062 -0.349861E-04  0.249E-02    1.28       1.0  T
   5   -132.8413369 -0.307340E-04  0.127E-02    1.28       1.0  T
   6   -132.8413463 -0.937569E-05  0.326E-03    1.28       3.7  T
   7   -132.8413466 -0.340755E-06  0.127E-03    1.28       9.6  T
   8   -132.8413467 -0.686144E-07  0.611E-04    1.28      20.0  T
     SCC iter.                  ...        0 min,  0.070 sec
     gradient                   ...        0 min,  0.013 sec
 * total energy  :  -131.0830779 Eh     change       -0.2370501E-02 Eh
   gradient norm :     0.0251084 Eh/α   predicted    -0.1791971E-02 ( -24.41%)
   displ. norm   :     0.2906359 α      lambda       -0.1727609E-02
   maximum displ.:     0.1206798 α      in ANC's #14, #23, #20, ...

........................................................................
.............................. CYCLE    5 ..............................
........................................................................
   1   -132.8423587 -0.132842E+03  0.148E-01    1.27       0.0  T
   2   -132.8424071 -0.483498E-04  0.739E-02    1.27       1.0  T
   3   -132.8423233  0.837772E-04  0.428E-02    1.27       1.0  T
   4   -132.8423959 -0.726268E-04  0.239E-02    1.27       1.0  T
   5   -132.8424316 -0.356416E-04  0.939E-03    1.27       1.3  T
   6   -132.8424355 -0.397271E-05  0.259E-03    1.27       4.7  T
   7   -132.8424357 -0.155582E-06  0.127E-03    1.27       9.6  T
     SCC iter.                  ...        0 min,  0.259 sec
     gradient                   ...        0 min,  0.013 sec
 * total energy  :  -131.0841921 Eh     change       -0.1114211E-02 Eh
   gradient norm :     0.0128300 Eh/α   predicted    -0.9367696E-03 ( -15.93%)
   displ. norm   :     0.2319829 α      lambda       -0.5610172E-03
   maximum displ.:     0.1116390 α      in ANC's #14, #7, #4, ...

........................................................................
.............................. CYCLE    6 ..............................
........................................................................
   1   -132.8433991 -0.132843E+03  0.919E-02    1.27       0.0  T
   2   -132.8434161 -0.170047E-04  0.507E-02    1.27       1.0  T
   3   -132.8433767  0.393920E-04  0.253E-02    1.27       1.0  T
   4   -132.8434112 -0.344820E-04  0.130E-02    1.27       1.0  T
   5   -132.8434232 -0.119549E-04  0.448E-03    1.27       2.7  T
   6   -132.8434238 -0.616781E-06  0.215E-03    1.27       5.7  T
   7   -132.8434240 -0.208590E-06  0.850E-04    1.27      14.4  T
     SCC iter.                  ...        0 min,  0.108 sec
     gradient                   ...        0 min,  0.014 sec
 * total energy  :  -131.0846101 Eh     change       -0.4179578E-03 Eh
   gradient norm :     0.0071532 Eh/α   predicted    -0.2956151E-03 ( -29.27%)
   displ. norm   :     0.3357738 α      lambda       -0.5357037E-03
   maximum displ.:     0.1687406 α      in ANC's #7, #14, #4, ...

........................................................................
.............................. CYCLE    7 ..............................
........................................................................
   1   -132.8442235 -0.132844E+03  0.122E-01    1.26       0.0  T
   2   -132.8442452 -0.217244E-04  0.692E-02    1.26       1.0  T
   3   -132.8442033  0.418286E-04  0.265E-02    1.26       1.0  T
   4   -132.8442435 -0.401647E-04  0.125E-02    1.26       1.0  T
   5   -132.8442537 -0.101655E-04  0.526E-03    1.26       2.3  T
   6   -132.8442545 -0.869885E-06  0.268E-03    1.26       4.6  T
   7   -132.8442548 -0.303730E-06  0.958E-04    1.26      12.8  T
     SCC iter.                  ...        0 min,  0.059 sec
     gradient                   ...        0 min,  0.013 sec
 * total energy  :  -131.0850079 Eh     change       -0.3978244E-03 Eh
   gradient norm :     0.0091623 Eh/α   predicted    -0.2980505E-03 ( -25.08%)
   displ. norm   :     0.3640307 α      lambda       -0.4348989E-03
   maximum displ.:     0.1996123 α      in ANC's #7, #14, #4, ...

........................................................................
.............................. CYCLE    8 ..............................
........................................................................
   1   -132.8440875 -0.132844E+03  0.134E-01    1.25       0.0  T
   2   -132.8441062 -0.187303E-04  0.732E-02    1.25       1.0  T
   3   -132.8440927  0.135042E-04  0.203E-02    1.25       1.0  T
   4   -132.8441077 -0.149475E-04  0.115E-02    1.25       1.1  T
   5   -132.8441118 -0.409223E-05  0.635E-03    1.25       1.9  T
   6   -132.8441139 -0.216827E-05  0.235E-03    1.25       5.2  T
   7   -132.8441142 -0.286602E-06  0.110E-03    1.25      11.1  T
     SCC iter.                  ...        0 min,  0.056 sec
     gradient                   ...        0 min,  0.018 sec
 * total energy  :  -131.0853546 Eh     change       -0.3466332E-03 Eh
   gradient norm :     0.0115677 Eh/α   predicted    -0.2462671E-03 ( -28.95%)
   displ. norm   :     0.4069933 α      lambda       -0.4557153E-03
   maximum displ.:     0.2357956 α      in ANC's #7, #4, #14, ...

........................................................................
.............................. CYCLE    9 ..............................
........................................................................
   1   -132.8435990 -0.132844E+03  0.136E-01    1.23       0.0  T
   2   -132.8436139 -0.148811E-04  0.766E-02    1.23       1.0  T
   3   -132.8435726  0.412990E-04  0.261E-02    1.23       1.0  T
   4   -132.8436133 -0.407191E-04  0.124E-02    1.23       1.0  T
   5   -132.8436218 -0.848865E-05  0.539E-03    1.23       2.3  T
   6   -132.8436228 -0.972826E-06  0.215E-03    1.23       5.7  T
   7   -132.8436229 -0.159144E-06  0.102E-03    1.23      12.0  T
     SCC iter.                  ...        0 min,  0.057 sec
     gradient                   ...        0 min,  0.018 sec
 * total energy  :  -131.0857249 Eh     change       -0.3703315E-03 Eh
   gradient norm :     0.0105404 Eh/α   predicted    -0.2656072E-03 ( -28.28%)
   displ. norm   :     0.4133340 α      lambda       -0.4510407E-03
   maximum displ.:     0.2545591 α      in ANC's #7, #4, #3, ...

........................................................................
.............................. CYCLE   10 ..............................
........................................................................
   1   -132.8432291 -0.132843E+03  0.134E-01    1.21       0.0  T
   2   -132.8432471 -0.180062E-04  0.749E-02    1.21       1.0  T
   3   -132.8431834  0.637081E-04  0.307E-02    1.21       1.0  T
   4   -132.8432431 -0.597239E-04  0.144E-02    1.21       1.0  T
   5   -132.8432564 -0.133381E-04  0.456E-03    1.21       2.7  T
   6   -132.8432568 -0.317138E-06  0.208E-03    1.21       5.9  T
   7   -132.8432569 -0.153072E-06  0.887E-04    1.21      13.8  T
     SCC iter.                  ...        0 min,  0.057 sec
     gradient                   ...        0 min,  0.015 sec
 * total energy  :  -131.0860809 Eh     change       -0.3559895E-03 Eh
   gradient norm :     0.0077174 Eh/α   predicted    -0.2640496E-03 ( -25.83%)
   displ. norm   :     0.3675879 α      lambda       -0.3705706E-03
   maximum displ.:     0.2400927 α      in ANC's #7, #4, #3, ...

........................................................................
.............................. CYCLE   11 ..............................
........................................................................
   1   -132.8433751 -0.132843E+03  0.117E-01    1.20       0.0  T
   2   -132.8433917 -0.166275E-04  0.653E-02    1.20       1.0  T
   3   -132.8433422  0.495197E-04  0.274E-02    1.20       1.0  T
   4   -132.8433881 -0.458818E-04  0.128E-02    1.20       1.0  T
   5   -132.8433990 -0.109063E-04  0.401E-03    1.20       3.0  T
   6   -132.8433992 -0.186398E-06  0.194E-03    1.20       6.3  T
   7   -132.8433993 -0.159787E-06  0.735E-04    1.20      16.6  T
     SCC iter.                  ...        0 min,  0.059 sec
     gradient                   ...        0 min,  0.013 sec
 * total energy  :  -131.0863718 Eh     change       -0.2909497E-03 Eh
   gradient norm :     0.0069296 Eh/α   predicted    -0.2103221E-03 ( -27.71%)
   displ. norm   :     0.3288987 α      lambda       -0.3168051E-03
   maximum displ.:     0.2228901 α      in ANC's #7, #3, #4, ...

........................................................................
.............................. CYCLE   12 ..............................
........................................................................
   1   -132.8440177 -0.132844E+03  0.109E-01    1.19       0.0  T
   2   -132.8440317 -0.140382E-04  0.593E-02    1.19       1.0  T
   3   -132.8440076  0.240447E-04  0.207E-02    1.19       1.0  T
   4   -132.8440282 -0.205135E-04  0.114E-02    1.19       1.1  T
   5   -132.8440364 -0.828806E-05  0.452E-03    1.19       2.7  T
   6   -132.8440372 -0.732281E-06  0.182E-03    1.19       6.7  T
   7   -132.8440373 -0.158297E-06  0.771E-04    1.19      15.8  T
     SCC iter.                  ...        0 min,  0.059 sec
     gradient                   ...        0 min,  0.013 sec
 * total energy  :  -131.0866303 Eh     change       -0.2584617E-03 Eh
   gradient norm :     0.0081444 Eh/α   predicted    -0.1755474E-03 ( -32.08%)
   displ. norm   :     0.3581594 α      lambda       -0.3407488E-03
   maximum displ.:     0.2425861 α      in ANC's #7, #3, #4, ...

........................................................................
.............................. CYCLE   13 ..............................
........................................................................
   1   -132.8445136 -0.132845E+03  0.121E-01    1.18       0.0  T
   2   -132.8445275 -0.138696E-04  0.657E-02    1.18       1.0  T
   3   -132.8444928  0.346660E-04  0.239E-02    1.18       1.0  T
   4   -132.8445272 -0.343826E-04  0.110E-02    1.18       1.1  T
   5   -132.8445331 -0.593372E-05  0.568E-03    1.18       2.2  T
   6   -132.8445349 -0.178646E-05  0.181E-03    1.18       6.8  T
   7   -132.8445350 -0.120721E-06  0.914E-04    1.18      13.4  T
     SCC iter.                  ...        0 min,  0.060 sec
     gradient                   ...        0 min,  0.020 sec
 * total energy  :  -131.0869195 Eh     change       -0.2891733E-03 Eh
   gradient norm :     0.0090172 Eh/α   predicted    -0.1922316E-03 ( -33.52%)
   displ. norm   :     0.4400008 α      lambda       -0.4142279E-03
   maximum displ.:     0.2962866 α      in ANC's #7, #3, #8, ...

........................................................................
.............................. CYCLE   14 ..............................
........................................................................
   1   -132.8447550 -0.132845E+03  0.154E-01    1.18       0.0  T
   2   -132.8447753 -0.203584E-04  0.829E-02    1.18       1.0  T
   3   -132.8447077  0.676433E-04  0.327E-02    1.18       1.0  T
   4   -132.8447795 -0.717565E-04  0.133E-02    1.18       1.0  T
   5   -132.8447851 -0.567449E-05  0.718E-03    1.18       1.7  T
   6   -132.8447882 -0.310400E-05  0.192E-03    1.18       6.4  T
   7   -132.8447883 -0.823289E-07  0.114E-03    1.18      10.7  T
   8   -132.8447883 -0.192344E-07  0.567E-04    1.18      21.6  T
     SCC iter.                  ...        0 min,  0.069 sec
     gradient                   ...        0 min,  0.013 sec
 * total energy  :  -131.0872778 Eh     change       -0.3583513E-03 Eh
   gradient norm :     0.0092547 Eh/α   predicted    -0.2472182E-03 ( -31.01%)
   displ. norm   :     0.5115525 α      lambda       -0.4728082E-03
   maximum displ.:     0.3492864 α      in ANC's #7, #3, #8, ...

........................................................................
.............................. CYCLE   15 ..............................
........................................................................
   1   -132.8443398 -0.132844E+03  0.178E-01    1.18       0.0  T
   2   -132.8443665 -0.267365E-04  0.967E-02    1.18       1.0  T
   3   -132.8442687  0.978387E-04  0.389E-02    1.18       1.0  T
   4   -132.8443735 -0.104837E-03  0.147E-02    1.18       1.0  T
   5   -132.8443804 -0.690621E-05  0.804E-03    1.18       1.5  T
   6   -132.8443841 -0.366522E-05  0.221E-03    1.18       5.5  T
   7   -132.8443842 -0.132922E-06  0.124E-03    1.18       9.9  T
   8   -132.8443843 -0.156742E-07  0.645E-04    1.18      19.0  T
     SCC iter.                  ...        0 min,  0.069 sec
     gradient                   ...        0 min,  0.020 sec
 * total energy  :  -131.0876883 Eh     change       -0.4104443E-03 Eh
   gradient norm :     0.0091973 Eh/α   predicted    -0.2982722E-03 ( -27.33%)
   displ. norm   :     0.5317350 α      lambda       -0.4823093E-03
   maximum displ.:     0.3729443 α      in ANC's #7, #3, #8, ...

........................................................................
.............................. CYCLE   16 ..............................
........................................................................
   1   -132.8441205 -0.132844E+03  0.190E-01    1.17       0.0  T
   2   -132.8441546 -0.340769E-04  0.102E-01    1.17       1.0  T
   3   -132.8441152  0.393528E-04  0.298E-02    1.18       1.0  T
   4   -132.8441559 -0.407098E-04  0.160E-02    1.17       1.0  T
   5   -132.8441643 -0.832476E-05  0.890E-03    1.17       1.4  T
   6   -132.8441696 -0.529242E-05  0.225E-03    1.17       5.4  T
   7   -132.8441697 -0.169041E-06  0.119E-03    1.17      10.2  T
   8   -132.8441697 -0.105078E-07  0.635E-04    1.17      19.2  T
     SCC iter.                  ...        0 min,  0.073 sec
     gradient                   ...        0 min,  0.014 sec
 * total energy  :  -131.0881074 Eh     change       -0.4191887E-03 Eh
   gradient norm :     0.0087002 Eh/α   predicted    -0.3093405E-03 ( -26.20%)
   displ. norm   :     0.5247985 α      lambda       -0.4715988E-03
   maximum displ.:     0.3803100 α      in ANC's #7, #3, #8, ...

........................................................................
.............................. CYCLE   17 ..............................
........................................................................
   1   -132.8440572 -0.132844E+03  0.187E-01    1.17       0.0  T
   2   -132.8440898 -0.325924E-04  0.101E-01    1.17       1.0  T
   3   -132.8440734  0.163245E-04  0.244E-02    1.17       1.0  T
   4   -132.8440964 -0.229780E-04  0.123E-02    1.17       1.0  T
   5   -132.8440981 -0.172128E-05  0.723E-03    1.17       1.7  T
   6   -132.8441024 -0.430779E-05  0.231E-03    1.17       5.3  T
   7   -132.8441027 -0.286399E-06  0.107E-03    1.17      11.4  T
   8   -132.8441027 -0.161864E-07  0.557E-04    1.17      21.9  T
     SCC iter.                  ...        0 min,  0.066 sec
     gradient                   ...        0 min,  0.018 sec
 * total energy  :  -131.0885223 Eh     change       -0.4148929E-03 Eh
   gradient norm :     0.0081136 Eh/α   predicted    -0.3007445E-03 ( -27.51%)
   displ. norm   :     0.5311973 α      lambda       -0.4834323E-03
   maximum displ.:     0.3928365 α      in ANC's #7, #3, #8, ...

........................................................................
.............................. CYCLE   18 ..............................
........................................................................
   1   -132.8444205 -0.132844E+03  0.197E-01    1.16       0.0  T
   2   -132.8444564 -0.359526E-04  0.104E-01    1.15       1.0  T
   3   -132.8444132  0.431737E-04  0.310E-02    1.16       1.0  T
   4   -132.8444512 -0.380007E-04  0.181E-02    1.15       1.0  T
   5   -132.8444663 -0.150753E-04  0.905E-03    1.15       1.3  T
   6   -132.8444720 -0.571093E-05  0.195E-03    1.15       6.3  T
   7   -132.8444721 -0.117911E-06  0.995E-04    1.15      12.3  T
   8   -132.8444722 -0.152678E-07  0.522E-04    1.15      23.4  T
     SCC iter.                  ...        0 min,  0.092 sec
     gradient                   ...        0 min,  0.019 sec
 * total energy  :  -131.0889540 Eh     change       -0.4316954E-03 Eh
   gradient norm :     0.0077733 Eh/α   predicted    -0.3099222E-03 ( -28.21%)
   displ. norm   :     0.5772248 α      lambda       -0.5374950E-03
   maximum displ.:     0.4283087 α      in ANC's #7, #3, #8, ...

........................................................................
.............................. CYCLE   19 ..............................
........................................................................
   1   -132.8440507 -0.132844E+03  0.212E-01    1.14       0.0  T
   2   -132.8440899 -0.392225E-04  0.114E-01    1.14       1.0  T
   3   -132.8440136  0.763276E-04  0.381E-02    1.14       1.0  T
   4   -132.8440871 -0.735143E-04  0.193E-02    1.14       1.0  T
   5   -132.8441040 -0.168972E-04  0.931E-03    1.14       1.3  T
   6   -132.8441095 -0.546079E-05  0.214E-03    1.14       5.7  T
   7   -132.8441096 -0.147684E-06  0.107E-03    1.14      11.4  T
   8   -132.8441096 -0.203976E-07  0.579E-04    1.14      21.1  T
     SCC iter.                  ...        0 min,  0.069 sec
     gradient                   ...        0 min,  0.020 sec
 * total energy  :  -131.0894448 Eh     change       -0.4907693E-03 Eh
   gradient norm :     0.0081371 Eh/α   predicted    -0.3582963E-03 ( -26.99%)
   displ. norm   :     0.6495744 α      lambda       -0.6454933E-03
   maximum displ.:     0.4761947 α      in ANC's #7, #6, #8, ...

........................................................................
.............................. CYCLE   20 ..............................
........................................................................
   1   -132.8441248 -0.132844E+03  0.243E-01    1.12       0.0  T
   2   -132.8441790 -0.541452E-04  0.128E-01    1.12       1.0  T
   3   -132.8440761  0.102901E-03  0.443E-02    1.13       1.0  T
   4   -132.8441715 -0.953893E-04  0.236E-02    1.12       1.0  T
   5   -132.8441984 -0.269670E-04  0.103E-02    1.12       1.2  T
   6   -132.8442050 -0.661838E-05  0.233E-03    1.12       5.2  T
   7   -132.8442052 -0.188073E-06  0.114E-03    1.12      10.7  T
   8   -132.8442053 -0.175247E-07  0.660E-04    1.12      18.5  T
     SCC iter.                  ...        0 min,  0.069 sec
     gradient                   ...        0 min,  0.013 sec
 * total energy  :  -131.0900365 Eh     change       -0.5917100E-03 Eh
   gradient norm :     0.0092116 Eh/α   predicted    -0.4589346E-03 ( -22.44%)
   displ. norm   :     0.7385864 α      lambda       -0.7807036E-03
   maximum displ.:     0.5314734 α      in ANC's #7, #6, #8, ...
 * RMSD in coord.:     0.8227806 α      energy gain  -0.5016339E-01 Eh

generating ANC from model Hessian ...
Using Lindh-Hessian (1995)
 Shifting diagonal of input Hessian by   9.892027352291118E-003
 Lowest  eigenvalues of input Hessian
   -0.000000   -0.000000   -0.000000   -0.000000   -0.000000    0.000000
    0.010000    0.010082    0.010102    0.010483    0.010687    0.010851
    0.010975    0.011136    0.011764    0.012345    0.012593    0.012841
 Highest eigenvalues
    2.225675    2.268050    2.404076    2.409138    2.434297    2.438183
 

........................................................................
.............................. CYCLE   21 ..............................
........................................................................
   1   -132.8425195 -0.132843E+03  0.273E-01    1.11       0.0  T
   2   -132.8425861 -0.665450E-04  0.145E-01    1.11       1.0  T
   3   -132.8424423  0.143830E-03  0.515E-02    1.11       1.0  T
   4   -132.8425864 -0.144132E-03  0.244E-02    1.11       1.0  T
   5   -132.8426102 -0.237630E-04  0.121E-02    1.10       1.0  T
   6   -132.8426199 -0.976976E-05  0.281E-03    1.11       4.3  T
   7   -132.8426202 -0.302783E-06  0.140E-03    1.11       8.7  T
   8   -132.8426203 -0.236550E-07  0.793E-04    1.11      15.4  T
   9   -132.8426203 -0.206283E-07  0.209E-04    1.11      58.5  T
     SCC iter.                  ...        0 min,  0.083 sec
     gradient                   ...        0 min,  0.020 sec
 * total energy  :  -131.0907377 Eh     change       -0.7012259E-03 Eh
   gradient norm :     0.0100853 Eh/α   predicted     0.0000000E+00 (-100.00%)
   displ. norm   :     0.1177617 α      lambda       -0.2971844E-03
   maximum displ.:     0.0674951 α      in ANC's #4, #5, #8, ...

........................................................................
.............................. CYCLE   22 ..............................
........................................................................
   1   -132.8461341 -0.132846E+03  0.595E-02    1.11       0.0  T
   2   -132.8461388 -0.475229E-05  0.291E-02    1.11       1.0  T
   3   -132.8461147  0.241129E-04  0.186E-02    1.11       1.0  T
   4   -132.8461414 -0.266632E-04  0.637E-03    1.11       1.9  T
   5   -132.8461426 -0.124243E-05  0.249E-03    1.11       4.9  T
   6   -132.8461428 -0.194245E-06  0.738E-04    1.11      16.5  T
     SCC iter.                  ...        0 min,  0.048 sec
     gradient                   ...        0 min,  0.018 sec
 * total energy  :  -131.0909892 Eh     change       -0.2515094E-03 Eh
   gradient norm :     0.0056759 Eh/α   predicted    -0.1507214E-03 ( -40.07%)
   displ. norm   :     0.3601085 α      lambda       -0.6056816E-03
   maximum displ.:     0.2025990 α      in ANC's #4, #5, #8, ...

........................................................................
.............................. CYCLE   23 ..............................
........................................................................
   1   -132.8503073 -0.132850E+03  0.151E-01    1.11       0.0  T
   2   -132.8503344 -0.270547E-04  0.781E-02    1.11       1.0  T
   3   -132.8502625  0.719135E-04  0.341E-02    1.11       1.0  T
   4   -132.8503323 -0.698904E-04  0.169E-02    1.11       1.0  T
   5   -132.8503464 -0.140030E-04  0.676E-03    1.11       1.8  T
   6   -132.8503486 -0.221247E-05  0.191E-03    1.11       6.4  T
   7   -132.8503487 -0.113857E-06  0.101E-03    1.11      12.1  T
     SCC iter.                  ...        0 min,  0.189 sec
     gradient                   ...        0 min,  0.013 sec
 * total energy  :  -131.0914542 Eh     change       -0.4649671E-03 Eh
   gradient norm :     0.0060148 Eh/α   predicted    -0.3421133E-03 ( -26.42%)
   displ. norm   :     0.4458087 α      lambda       -0.5049299E-03
   maximum displ.:     0.2499770 α      in ANC's #5, #4, #8, ...

........................................................................
.............................. CYCLE   24 ..............................
........................................................................
   1   -132.8500602 -0.132850E+03  0.183E-01    1.11       0.0  T
   2   -132.8500969 -0.366799E-04  0.942E-02    1.11       1.0  T
   3   -132.8500671  0.297626E-04  0.284E-02    1.11       1.0  T
   4   -132.8500939 -0.267594E-04  0.170E-02    1.11       1.0  T
   5   -132.8501037 -0.984562E-05  0.923E-03    1.11       1.3  T
   6   -132.8501110 -0.720946E-05  0.211E-03    1.11       5.8  T
   7   -132.8501111 -0.135744E-06  0.121E-03    1.11      10.1  T
   8   -132.8501111 -0.238230E-07  0.659E-04    1.11      18.5  T
     SCC iter.                  ...        0 min,  0.069 sec
     gradient                   ...        0 min,  0.013 sec
 * total energy  :  -131.0918938 Eh     change       -0.4395510E-03 Eh
   gradient norm :     0.0102345 Eh/α   predicted    -0.3026874E-03 ( -31.14%)
   displ. norm   :     0.5425267 α      lambda       -0.5998547E-03
   maximum displ.:     0.3055231 α      in ANC's #5, #4, #8, ...

........................................................................
.............................. CYCLE   25 ..............................
........................................................................
   1   -132.8467198 -0.132847E+03  0.220E-01    1.11       0.0  T
   2   -132.8467690 -0.492039E-04  0.114E-01    1.11       1.0  T
   3   -132.8467191  0.499720E-04  0.353E-02    1.10       1.0  T
   4   -132.8467697 -0.506400E-04  0.196E-02    1.11       1.0  T
   5   -132.8467794 -0.964907E-05  0.109E-02    1.11       1.1  T
   6   -132.8467896 -0.102744E-04  0.220E-03    1.11       5.6  T
   7   -132.8467898 -0.124894E-06  0.136E-03    1.11       9.0  T
   8   -132.8467898 -0.339686E-07  0.645E-04    1.11      19.0  T
     SCC iter.                  ...        0 min,  0.068 sec
     gradient                   ...        0 min,  0.019 sec
 * total energy  :  -131.0924369 Eh     change       -0.5431492E-03 Eh
   gradient norm :     0.0121246 Eh/α   predicted    -0.3882092E-03 ( -28.53%)
   displ. norm   :     0.6147594 α      lambda       -0.7239130E-03
   maximum displ.:     0.3478542 α      in ANC's #5, #4, #8, ...

........................................................................
.............................. CYCLE   26 ..............................
........................................................................
   1   -132.8416822 -0.132842E+03  0.249E-01    1.10       0.0  T
   2   -132.8417440 -0.618009E-04  0.129E-01    1.09       1.0  T
   3   -132.8416552  0.887996E-04  0.434E-02    1.09       1.0  T
   4   -132.8417442 -0.889958E-04  0.230E-02    1.09       1.0  T
   5   -132.8417606 -0.163633E-04  0.121E-02    1.09       1.0  T
   6   -132.8417719 -0.113246E-04  0.239E-03    1.09       5.1  T
   7   -132.8417721 -0.180388E-06  0.143E-03    1.09       8.5  T
   8   -132.8417721 -0.239131E-07  0.724E-04    1.09      16.9  T
     SCC iter.                  ...        0 min,  0.116 sec
     gradient                   ...        0 min,  0.020 sec
 * total energy  :  -131.0930620 Eh     change       -0.6251011E-03 Eh
   gradient norm :     0.0126974 Eh/α   predicted    -0.4987651E-03 ( -20.21%)
   displ. norm   :     0.6323978 α      lambda       -0.7794956E-03
   maximum displ.:     0.3627415 α      in ANC's #5, #4, #8, ...

........................................................................
.............................. CYCLE   27 ..............................
........................................................................
   1   -132.8375137 -0.132838E+03  0.258E-01    1.08       0.0  T
   2   -132.8375814 -0.676911E-04  0.133E-01    1.08       1.0  T
   3   -132.8374858  0.956018E-04  0.447E-02    1.08       1.0  T
   4   -132.8375744 -0.885561E-04  0.251E-02    1.08       1.0  T
   5   -132.8376013 -0.269141E-04  0.115E-02    1.08       1.1  T
   6   -132.8376106 -0.927577E-05  0.262E-03    1.08       4.7  T
   7   -132.8376109 -0.305190E-06  0.138E-03    1.08       8.9  T
   8   -132.8376109 -0.192008E-07  0.783E-04    1.08      15.6  T
     SCC iter.                  ...        0 min,  0.114 sec
     gradient                   ...        0 min,  0.013 sec
 * total energy  :  -131.0936919 Eh     change       -0.6298576E-03 Eh
   gradient norm :     0.0129612 Eh/α   predicted    -0.5456188E-03 ( -13.37%)
   displ. norm   :     0.5159310 α      lambda       -0.7506848E-03
   maximum displ.:     0.3023218 α      in ANC's #5, #4, #8, ...

........................................................................
.............................. CYCLE   28 ..............................
........................................................................
   1   -132.8390337 -0.132839E+03  0.215E-01    1.06       0.0  T
   2   -132.8390853 -0.515878E-04  0.110E-01    1.06       1.0  T
   3   -132.8390264  0.588746E-04  0.360E-02    1.06       1.0  T
   4   -132.8390672 -0.407589E-04  0.234E-02    1.06       1.0  T
   5   -132.8391003 -0.331778E-04  0.883E-03    1.06       1.4  T
   6   -132.8391048 -0.449007E-05  0.236E-03    1.06       5.2  T
   7   -132.8391051 -0.244603E-06  0.110E-03    1.06      11.1  T
   8   -132.8391051 -0.226127E-07  0.667E-04    1.06      18.3  T
     SCC iter.                  ...        0 min,  0.070 sec
     gradient                   ...        0 min,  0.013 sec
 * total energy  :  -131.0942740 Eh     change       -0.5821190E-03 Eh
   gradient norm :     0.0115917 Eh/α   predicted    -0.4752553E-03 ( -18.36%)
   displ. norm   :     0.5444440 α      lambda       -0.6267845E-03
   maximum displ.:     0.3240241 α      in ANC's #5, #4, #8, ...

........................................................................
.............................. CYCLE   29 ..............................
........................................................................
   1   -132.8391841 -0.132839E+03  0.232E-01    1.04       0.0  T
   2   -132.8392432 -0.590346E-04  0.117E-01    1.04       1.0  T
   3   -132.8392182  0.249420E-04  0.315E-02    1.05       1.0  T
   4   -132.8392261 -0.785029E-05  0.228E-02    1.04       1.0  T
   5   -132.8392538 -0.277215E-04  0.102E-02    1.04       1.2  T
   6   -132.8392623 -0.848881E-05  0.201E-03    1.04       6.1  T
   7   -132.8392625 -0.159566E-06  0.984E-04    1.04      12.4  T
   8   -132.8392625 -0.155715E-07  0.587E-04    1.04      20.8  T
     SCC iter.                  ...        0 min,  0.068 sec
     gradient                   ...        0 min,  0.013 sec
 * total energy  :  -131.0947922 Eh     change       -0.5181943E-03 Eh
   gradient norm :     0.0109587 Eh/α   predicted    -0.4062886E-03 ( -21.60%)
   displ. norm   :     0.5197428 α      lambda       -0.7295426E-03
   maximum displ.:     0.3083370 α      in ANC's #5, #4, #8, ...

........................................................................
.............................. CYCLE   30 ..............................
........................................................................
   1   -132.8468397 -0.132847E+03  0.218E-01    1.04       0.0  T
   2   -132.8468936 -0.539502E-04  0.111E-01    1.04       1.0  T
   3   -132.8468920  0.167726E-05  0.251E-02    1.04       1.0  T
   4   -132.8468919  0.450483E-07  0.165E-02    1.04       1.0  T
   5   -132.8469008 -0.883117E-05  0.908E-03    1.04       1.3  T
   6   -132.8469082 -0.744760E-05  0.223E-03    1.04       5.5  T
   7   -132.8469085 -0.283600E-06  0.890E-04    1.04      13.7  T
   8   -132.8469085 -0.146628E-07  0.553E-04    1.04      22.1  T
     SCC iter.                  ...        0 min,  0.067 sec
     gradient                   ...        0 min,  0.012 sec
 * total energy  :  -131.0953275 Eh     change       -0.5353476E-03 Eh
   gradient norm :     0.0099659 Eh/α   predicted    -0.4633102E-03 ( -13.46%)
   displ. norm   :     0.7616328 α      lambda       -0.7238035E-03
   maximum displ.:     0.4584580 α      in ANC's #5, #4, #8, ...

........................................................................
.............................. CYCLE   31 ..............................
........................................................................
   1   -132.8373179 -0.132837E+03  0.326E-01    1.02       0.0  T
   2   -132.8374345 -0.116608E-03  0.166E-01    1.02       1.0  T
   3   -132.8374008  0.336896E-04  0.420E-02    1.02       1.0  T
   4   -132.8374340 -0.331314E-04  0.263E-02    1.02       1.0  T
   5   -132.8374514 -0.174173E-04  0.149E-02    1.02       1.0  T
   6   -132.8374724 -0.210019E-04  0.245E-03    1.02       5.0  T
   7   -132.8374726 -0.217964E-06  0.126E-03    1.02       9.7  T
   8   -132.8374726 -0.477118E-08  0.797E-04    1.02      15.3  T
     SCC iter.                  ...        0 min,  0.073 sec
     gradient                   ...        0 min,  0.013 sec
 * total energy  :  -131.0957864 Eh     change       -0.4588797E-03 Eh
   gradient norm :     0.0128165 Eh/α   predicted    -0.5718370E-03 (  24.62%)
   displ. norm   :     0.3533508 α      lambda       -0.5657354E-03
   maximum displ.:     0.1957365 α      in ANC's #5, #8, #4, ...

........................................................................
.............................. CYCLE   32 ..............................
........................................................................
   1   -132.8433842 -0.132843E+03  0.148E-01    1.03       0.0  T
   2   -132.8434081 -0.238919E-04  0.761E-02    1.03       1.0  T
   3   -132.8433847  0.233833E-04  0.235E-02    1.03       1.0  T
   4   -132.8433990 -0.142613E-04  0.166E-02    1.03       1.0  T
   5   -132.8434156 -0.166139E-04  0.497E-03    1.03       2.5  T
   6   -132.8434168 -0.112807E-05  0.153E-03    1.03       8.0  T
   7   -132.8434168 -0.679009E-07  0.876E-04    1.03      13.9  T
     SCC iter.                  ...        0 min,  0.060 sec
     gradient                   ...        0 min,  0.013 sec
 * total energy  :  -131.0962057 Eh     change       -0.4193097E-03 Eh
   gradient norm :     0.0098902 Eh/α   predicted    -0.3181891E-03 ( -24.12%)
   displ. norm   :     0.4948899 α      lambda       -0.4602614E-03
   maximum displ.:     0.2884904 α      in ANC's #5, #4, #8, ...

........................................................................
.............................. CYCLE   33 ..............................
........................................................................
   1   -132.8450822 -0.132845E+03  0.218E-01    1.03       0.0  T
   2   -132.8451317 -0.495077E-04  0.110E-01    1.03       1.0  T
   3   -132.8451294  0.223427E-05  0.247E-02    1.02       1.0  T
   4   -132.8451199  0.954114E-05  0.190E-02    1.03       1.0  T
   5   -132.8451398 -0.198794E-04  0.854E-03    1.03       1.4  T
   6   -132.8451462 -0.642728E-05  0.162E-03    1.02       7.6  T
   7   -132.8451462 -0.342566E-07  0.991E-04    1.02      12.3  T
   8   -132.8451462 -0.140974E-07  0.414E-04    1.02      29.5  T
     SCC iter.                  ...        0 min,  0.067 sec
     gradient                   ...        0 min,  0.014 sec
 * total energy  :  -131.0965574 Eh     change       -0.3516344E-03 Eh
   gradient norm :     0.0087538 Eh/α   predicted    -0.2864956E-03 ( -18.52%)
   displ. norm   :     0.5125229 α      lambda       -0.4655307E-03
   maximum displ.:     0.2951009 α      in ANC's #5, #8, #4, ...

........................................................................
.............................. CYCLE   34 ..............................
........................................................................
   1   -132.8464605 -0.132846E+03  0.219E-01    1.02       0.0  T
   2   -132.8465098 -0.493359E-04  0.111E-01    1.02       1.0  T
   3   -132.8465038  0.608673E-05  0.262E-02    1.02       1.0  T
   4   -132.8464940  0.977173E-05  0.216E-02    1.02       1.0  T
   5   -132.8465195 -0.255098E-04  0.805E-03    1.02       1.5  T
   6   -132.8465242 -0.470824E-05  0.189E-03    1.02       6.5  T
   7   -132.8465243 -0.722374E-07  0.112E-03    1.02      10.9  T
   8   -132.8465243 -0.121253E-07  0.574E-04    1.02      21.3  T
     SCC iter.                  ...        0 min,  0.066 sec
     gradient                   ...        0 min,  0.012 sec
 * total energy  :  -131.0968720 Eh     change       -0.3145945E-03 Eh
   gradient norm :     0.0063557 Eh/α   predicted    -0.2939097E-03 (  -6.58%)
   displ. norm   :     0.5509216 α      lambda       -0.3331820E-03
   maximum displ.:     0.3303133 α      in ANC's #5, #4, #8, ...

........................................................................
.............................. CYCLE   35 ..............................
........................................................................
   1   -132.8422633 -0.132842E+03  0.249E-01    1.01       0.0  T
   2   -132.8423287 -0.653821E-04  0.125E-01    1.01       1.0  T
   3   -132.8422418  0.869097E-04  0.428E-02    1.01       1.0  T
   4   -132.8423201 -0.782341E-04  0.253E-02    1.01       1.0  T
   5   -132.8423487 -0.286671E-04  0.981E-03    1.01       1.2  T
   6   -132.8423556 -0.685937E-05  0.205E-03    1.01       5.9  T
   7   -132.8423557 -0.103254E-06  0.119E-03    1.01      10.2  T
   8   -132.8423557 -0.419899E-08  0.752E-04    1.01      16.3  T
     SCC iter.                  ...        0 min,  0.087 sec
     gradient                   ...        0 min,  0.022 sec
 * total energy  :  -131.0970724 Eh     change       -0.2004516E-03 Eh
   gradient norm :     0.0076239 Eh/α   predicted    -0.2171542E-03 (   8.33%)
   displ. norm   :     0.2376184 α      lambda       -0.2624738E-03
   maximum displ.:     0.1097374 α      in ANC's #5, #9, #6, ...

........................................................................
.............................. CYCLE   36 ..............................
........................................................................
   1   -132.8511723 -0.132851E+03  0.115E-01    1.01       0.0  T
   2   -132.8511856 -0.132085E-04  0.571E-02    1.01       1.0  T
   3   -132.8511148  0.707736E-04  0.321E-02    1.01       1.0  T
   4   -132.8511908 -0.759953E-04  0.120E-02    1.01       1.0  T
   5   -132.8511957 -0.492008E-05  0.566E-03    1.01       2.2  T
   6   -132.8511971 -0.139358E-05  0.183E-03    1.01       6.7  T
   7   -132.8511973 -0.165528E-06  0.833E-04    1.01      14.7  T
     SCC iter.                  ...        0 min,  0.064 sec
     gradient                   ...        0 min,  0.012 sec
 * total energy  :  -131.0971321 Eh     change       -0.5972574E-04 Eh
   gradient norm :     0.0103996 Eh/α   predicted    -0.1386469E-03 ( 132.14%)
   displ. norm   :     0.3408177 α      lambda       -0.2795396E-03
   maximum displ.:     0.2089418 α      in ANC's #5, #4, #8, ...

........................................................................
.............................. CYCLE   37 ..............................
........................................................................
   1   -132.8444863 -0.132844E+03  0.143E-01    1.00       0.0  T
   2   -132.8445035 -0.171499E-04  0.745E-02    1.00       1.0  T
   3   -132.8444644  0.390247E-04  0.265E-02    1.00       1.0  T
   4   -132.8445013 -0.368265E-04  0.135E-02    1.00       1.0  T
   5   -132.8445088 -0.747925E-05  0.630E-03    1.00       1.9  T
   6   -132.8445120 -0.327939E-05  0.110E-03    1.00      11.1  T
   7   -132.8445121 -0.263757E-07  0.636E-04    1.00      19.2  T
   8   -132.8445121 -0.522130E-08  0.424E-04    1.00      28.8  T
     SCC iter.                  ...        0 min,  0.068 sec
     gradient                   ...        0 min,  0.013 sec
 * total energy  :  -131.0972655 Eh     change       -0.1333831E-03 Eh
   gradient norm :     0.0084603 Eh/α   predicted    -0.1560215E-03 (  16.97%)
   displ. norm   :     0.0832739 α      lambda       -0.1956577E-03
   maximum displ.:     0.0338863 α      in ANC's #5, #1, #4, ...

........................................................................
.............................. CYCLE   38 ..............................
........................................................................
   1   -132.8446850 -0.132845E+03  0.534E-02    1.00       0.0  T
   2   -132.8446947 -0.973177E-05  0.271E-02    1.00       1.0  T
   3   -132.8446855  0.922854E-05  0.142E-02    1.00       1.0  T
   4   -132.8446940 -0.851695E-05  0.778E-03    1.00       1.6  T
   5   -132.8446979 -0.384983E-05  0.365E-03    1.00       3.3  T
   6   -132.8446986 -0.736017E-06  0.112E-03    1.00      10.9  T
   7   -132.8446987 -0.559336E-07  0.363E-04    1.00      33.7  T
     SCC iter.                  ...        0 min,  0.060 sec
     gradient                   ...        0 min,  0.013 sec
 * total energy  :  -131.0973177 Eh     change       -0.5220782E-04 Eh
   gradient norm :     0.0077246 Eh/α   predicted    -0.9850740E-04 (  88.68%)
   displ. norm   :     0.1347509 α      lambda       -0.1557811E-03
   maximum displ.:     0.0757261 α      in ANC's #5, #6, #8, ...

........................................................................
.............................. CYCLE   39 ..............................
........................................................................
   1   -132.8455843 -0.132846E+03  0.833E-02    1.00       0.0  T
   2   -132.8455939 -0.962161E-05  0.402E-02    1.00       1.0  T
   3   -132.8455912  0.276261E-05  0.111E-02    1.00       1.1  T
   4   -132.8455934 -0.224424E-05  0.758E-03    1.00       1.6  T
   5   -132.8455955 -0.205554E-05  0.435E-03    1.00       2.8  T
   6   -132.8455967 -0.127934E-05  0.724E-04    1.00      16.9  T
   7   -132.8455968 -0.243983E-07  0.316E-04    1.00      38.7  T
     SCC iter.                  ...        0 min,  0.067 sec
     gradient                   ...        0 min,  0.013 sec
 * total energy  :  -131.0974054 Eh     change       -0.8769271E-04 Eh
   gradient norm :     0.0062709 Eh/α   predicted    -0.7930585E-04 (  -9.56%)
   displ. norm   :     0.2096223 α      lambda       -0.2018885E-03
   maximum displ.:     0.1174782 α      in ANC's #6, #5, #7, ...

........................................................................
.............................. CYCLE   40 ..............................
........................................................................
   1   -132.8489582 -0.132849E+03  0.988E-02    1.00       0.0  T
   2   -132.8489711 -0.129400E-04  0.512E-02    1.00       1.0  T
   3   -132.8489584  0.127204E-04  0.179E-02    0.99       1.0  T
   4   -132.8489710 -0.126302E-04  0.956E-03    1.00       1.3  T
   5   -132.8489733 -0.229662E-05  0.546E-03    1.00       2.2  T
   6   -132.8489755 -0.219044E-05  0.147E-03    0.99       8.3  T
   7   -132.8489756 -0.119158E-06  0.514E-04    1.00      23.8  T
     SCC iter.                  ...        0 min,  0.061 sec
     gradient                   ...        0 min,  0.013 sec
 * total energy  :  -131.0974583 Eh     change       -0.5286066E-04 Eh
   gradient norm :     0.0082979 Eh/α   predicted    -0.1053801E-03 (  99.35%)
   displ. norm   :     0.1626478 α      lambda       -0.1263155E-03
   maximum displ.:     0.1003515 α      in ANC's #5, #4, #8, ...

........................................................................
.............................. CYCLE   41 ..............................
........................................................................
   1   -132.8475982 -0.132848E+03  0.829E-02    0.99       0.0  T
   2   -132.8476065 -0.830234E-05  0.413E-02    0.99       1.0  T
   3   -132.8476015  0.492094E-05  0.119E-02    0.99       1.0  T
   4   -132.8476050 -0.340697E-05  0.807E-03    0.99       1.5  T
   5   -132.8476081 -0.310813E-05  0.389E-03    0.99       3.1  T
   6   -132.8476093 -0.120479E-05  0.735E-04    0.99      16.6  T
   7   -132.8476093 -0.216877E-07  0.378E-04    0.99      32.3  T
     SCC iter.                  ...        0 min,  0.234 sec
     gradient                   ...        0 min,  0.013 sec
 * total energy  :  -131.0975354 Eh     change       -0.7716594E-04 Eh
   gradient norm :     0.0048271 Eh/α   predicted    -0.6483002E-04 ( -15.99%)
   displ. norm   :     0.1910151 α      lambda       -0.1251583E-03
   maximum displ.:     0.1073725 α      in ANC's #5, #3, #4, ...

........................................................................
.............................. CYCLE   42 ..............................
........................................................................
   1   -132.8467652 -0.132847E+03  0.998E-02    0.99       0.0  T
   2   -132.8467778 -0.125770E-04  0.489E-02    0.99       1.0  T
   3   -132.8467626  0.151793E-04  0.177E-02    0.99       1.0  T
   4   -132.8467756 -0.130178E-04  0.106E-02    0.99       1.1  T
   5   -132.8467815 -0.593970E-05  0.472E-03    0.99       2.6  T
   6   -132.8467828 -0.126728E-05  0.984E-04    0.99      12.4  T
   7   -132.8467828 -0.431800E-07  0.457E-04    0.99      26.8  T
     SCC iter.                  ...        0 min,  0.059 sec
     gradient                   ...        0 min,  0.012 sec
 * total energy  :  -131.0975765 Eh     change       -0.4102226E-04 Eh
   gradient norm :     0.0065217 Eh/α   predicted    -0.6486649E-04 (  58.13%)
   displ. norm   :     0.1316057 α      lambda       -0.8567263E-04
   maximum displ.:     0.0631992 α      in ANC's #5, #6, #3, ...
 * RMSD in coord.:     0.9483202 α      energy gain  -0.7539950E-02 Eh

generating ANC from model Hessian ...
Using Lindh-Hessian (1995)
 Shifting diagonal of input Hessian by   9.904762406677528E-003
 Lowest  eigenvalues of input Hessian
   -0.000000   -0.000000   -0.000000    0.000000    0.000000    0.000000
    0.010000    0.010089    0.010113    0.010506    0.010642    0.010816
    0.010971    0.011282    0.011858    0.012297    0.012507    0.012762
 Highest eigenvalues
    2.225929    2.271880    2.403390    2.404354    2.433750    2.434978
 

........................................................................
.............................. CYCLE   43 ..............................
........................................................................
   1   -132.8474262 -0.132847E+03  0.544E-02    0.99       0.0  T
   2   -132.8474294 -0.315058E-05  0.294E-02    0.99       1.0  T
   3   -132.8474283  0.101746E-05  0.775E-03    0.99       1.6  T
   4   -132.8474301 -0.175658E-05  0.328E-03    0.99       3.7  T
   5   -132.8474300  0.142772E-06  0.244E-03    0.99       5.0  T
   6   -132.8474304 -0.437604E-06  0.621E-04    0.99      19.7  T
   7   -132.8474304 -0.213728E-07  0.263E-04    0.99      46.5  T
     SCC iter.                  ...        0 min,  0.060 sec
     gradient                   ...        0 min,  0.013 sec
 * total energy  :  -131.0976317 Eh     change       -0.5524813E-04 Eh
   gradient norm :     0.0039143 Eh/α   predicted     0.0000000E+00 (-100.00%)
   displ. norm   :     0.0417687 α      lambda       -0.4168203E-04
   maximum displ.:     0.0230423 α      in ANC's #7, #3, #5, ...

........................................................................
.............................. CYCLE   44 ..............................
........................................................................
   1   -132.8472858 -0.132847E+03  0.307E-02    0.99       0.0  T
   2   -132.8472872 -0.145525E-05  0.137E-02    0.99       1.0  T
   3   -132.8472872  0.264995E-07  0.358E-03    0.99       3.4  T
   4   -132.8472874 -0.219132E-06  0.224E-03    0.99       5.5  T
   5   -132.8472875 -0.411216E-07  0.139E-03    0.99       8.8  T
   6   -132.8472876 -0.138305E-06  0.348E-04    0.99      35.1  T
   7   -132.8472876 -0.777609E-08  0.128E-04    0.99      95.7  T
     SCC iter.                  ...        0 min,  0.069 sec
     gradient                   ...        0 min,  0.021 sec
 * total energy  :  -131.0976652 Eh     change       -0.3348977E-04 Eh
   gradient norm :     0.0017924 Eh/α   predicted    -0.2088558E-04 ( -37.64%)
   displ. norm   :     0.1719648 α      lambda       -0.6510633E-04
   maximum displ.:     0.0955694 α      in ANC's #7, #3, #5, ...

........................................................................
.............................. CYCLE   45 ..............................
........................................................................
   1   -132.8465695 -0.132847E+03  0.102E-01    0.99       0.0  T
   2   -132.8465833 -0.138508E-04  0.480E-02    0.99       1.0  T
   3   -132.8465848 -0.144527E-05  0.110E-02    0.99       1.1  T
   4   -132.8465860 -0.125023E-05  0.615E-03    0.99       2.0  T
   5   -132.8465865 -0.526466E-06  0.233E-03    0.99       5.3  T
   6   -132.8465869 -0.374374E-06  0.806E-04    0.99      15.1  T
   7   -132.8465869 -0.289281E-07  0.458E-04    0.99      26.7  T
     SCC iter.                  ...        0 min,  0.061 sec
     gradient                   ...        0 min,  0.021 sec
 * total energy  :  -131.0977178 Eh     change       -0.5256823E-04 Eh
   gradient norm :     0.0040127 Eh/α   predicted    -0.3300266E-04 ( -37.22%)
   displ. norm   :     0.0640735 α      lambda       -0.2709650E-04
   maximum displ.:     0.0352743 α      in ANC's #7, #3, #5, ...

........................................................................
.............................. CYCLE   46 ..............................
........................................................................
   1   -132.8465769 -0.132847E+03  0.277E-02    0.99       0.0  T
   2   -132.8465776 -0.716515E-06  0.142E-02    0.99       1.0  T
   3   -132.8465765  0.109434E-05  0.461E-03    0.99       2.7  T
   4   -132.8465775 -0.976646E-06  0.271E-03    0.99       4.5  T
   5   -132.8465779 -0.377307E-06  0.909E-04    0.99      13.4  T
     SCC iter.                  ...        0 min,  0.043 sec
     gradient                   ...        0 min,  0.013 sec
 * total energy  :  -131.0977429 Eh     change       -0.2514350E-04 Eh
   gradient norm :     0.0032331 Eh/α   predicted    -0.1360840E-04 ( -45.88%)
   displ. norm   :     0.2138612 α      lambda       -0.8610026E-04
   maximum displ.:     0.1130623 α      in ANC's #7, #3, #5, ...

........................................................................
.............................. CYCLE   47 ..............................
........................................................................
   1   -132.8465751 -0.132847E+03  0.836E-02    0.99       0.0  T
   2   -132.8465804 -0.531594E-05  0.445E-02    0.99       1.0  T
   3   -132.8465630  0.174297E-04  0.163E-02    0.99       1.0  T
   4   -132.8465809 -0.179152E-04  0.717E-03    0.99       1.7  T
   5   -132.8465830 -0.210165E-05  0.291E-03    0.99       4.2  T
   6   -132.8465835 -0.512457E-06  0.811E-04    0.99      15.1  T
   7   -132.8465836 -0.187977E-07  0.465E-04    0.99      26.3  T
     SCC iter.                  ...        0 min,  0.060 sec
     gradient                   ...        0 min,  0.013 sec
 * total energy  :  -131.0978085 Eh     change       -0.6560812E-04 Eh
   gradient norm :     0.0016157 Eh/α   predicted    -0.4501922E-04 ( -31.38%)
   displ. norm   :     0.3653537 α      lambda       -0.5801679E-04
   maximum displ.:     0.1902673 α      in ANC's #7, #3, #5, ...

........................................................................
.............................. CYCLE   48 ..............................
........................................................................
   1   -132.8459101 -0.132846E+03  0.140E-01    0.99       0.0  T
   2   -132.8459252 -0.150997E-04  0.746E-02    0.99       1.0  T
   3   -132.8459037  0.214682E-04  0.208E-02    0.99       1.0  T
   4   -132.8459215 -0.178125E-04  0.128E-02    0.99       1.0  T
   5   -132.8459306 -0.909053E-05  0.422E-03    0.99       2.9  T
   6   -132.8459317 -0.110840E-05  0.114E-03    0.99      10.7  T
   7   -132.8459317 -0.198399E-07  0.744E-04    0.99      16.4  T
   8   -132.8459317 -0.898345E-08  0.322E-04    0.99      38.0  T
     SCC iter.                  ...        0 min,  0.082 sec
     gradient                   ...        0 min,  0.020 sec
 * total energy  :  -131.0978626 Eh     change       -0.5404707E-04 Eh
   gradient norm :     0.0037837 Eh/α   predicted    -0.3073291E-04 ( -43.14%)
   displ. norm   :     0.1190153 α      lambda       -0.2761917E-04
   maximum displ.:     0.0655807 α      in ANC's #3, #7, #2, ...

........................................................................
.............................. CYCLE   49 ..............................
........................................................................
   1   -132.8464852 -0.132846E+03  0.449E-02    0.99       0.0  T
   2   -132.8464868 -0.162187E-05  0.238E-02    0.99       1.0  T
   3   -132.8464866  0.181540E-06  0.493E-03    0.99       2.5  T
   4   -132.8464867 -0.630852E-07  0.335E-03    0.99       3.7  T
   5   -132.8464872 -0.475991E-06  0.139E-03    0.99       8.8  T
   6   -132.8464874 -0.176697E-06  0.423E-04    0.99      28.9  T
   7   -132.8464874 -0.683224E-08  0.225E-04    0.99      54.3  T
     SCC iter.                  ...        0 min,  0.065 sec
     gradient                   ...        0 min,  0.021 sec
 * total energy  :  -131.0978874 Eh     change       -0.2484442E-04 Eh
   gradient norm :     0.0030162 Eh/α   predicted    -0.1400544E-04 ( -43.63%)
   displ. norm   :     0.2276680 α      lambda       -0.5978060E-04
   maximum displ.:     0.1288763 α      in ANC's #3, #7, #2, ...

........................................................................
.............................. CYCLE   50 ..............................
........................................................................
   1   -132.8474759 -0.132847E+03  0.853E-02    0.99       0.0  T
   2   -132.8474818 -0.591122E-05  0.452E-02    0.99       1.0  T
   3   -132.8474777  0.403670E-05  0.118E-02    0.99       1.0  T
   4   -132.8474817 -0.390974E-05  0.698E-03    0.99       1.8  T
   5   -132.8474830 -0.139446E-05  0.340E-03    0.99       3.6  T
   6   -132.8474840 -0.974871E-06  0.902E-04    0.99      13.5  T
   7   -132.8474841 -0.333352E-07  0.437E-04    0.99      28.0  T
     SCC iter.                  ...        0 min,  0.063 sec
     gradient                   ...        0 min,  0.014 sec
 * total energy  :  -131.0979329 Eh     change       -0.4544969E-04 Eh
   gradient norm :     0.0010845 Eh/α   predicted    -0.3144286E-04 ( -30.82%)
   displ. norm   :     0.3225910 α      lambda       -0.3517402E-04
   maximum displ.:     0.1888798 α      in ANC's #3, #2, #7, ...

........................................................................
.............................. CYCLE   51 ..............................
........................................................................
   1   -132.8474355 -0.132847E+03  0.123E-01    0.99       0.0  T
   2   -132.8474477 -0.122211E-04  0.646E-02    0.99       1.0  T
   3   -132.8474409  0.686793E-05  0.163E-02    0.99       1.0  T
   4   -132.8474463 -0.540879E-05  0.106E-02    0.99       1.2  T
   5   -132.8474505 -0.421105E-05  0.461E-03    0.99       2.7  T
   6   -132.8474523 -0.177572E-05  0.114E-03    0.99      10.7  T
   7   -132.8474523 -0.381938E-07  0.607E-04    0.99      20.1  T
   8   -132.8474523 -0.515200E-08  0.277E-04    0.99      44.1  T
     SCC iter.                  ...        0 min,  0.072 sec
     gradient                   ...        0 min,  0.014 sec
 * total energy  :  -131.0979641 Eh     change       -0.3125988E-04 Eh
   gradient norm :     0.0022405 Eh/α   predicted    -0.1841399E-04 ( -41.09%)
   displ. norm   :     0.0576889 α      lambda       -0.1111965E-04
   maximum displ.:     0.0380477 α      in ANC's #3, #2, #9, ...

........................................................................
.............................. CYCLE   52 ..............................
........................................................................
   1   -132.8477825 -0.132848E+03  0.225E-02    0.99       0.0  T
   2   -132.8477830 -0.443001E-06  0.116E-02    0.99       1.1  T
   3   -132.8477830 -0.332147E-07  0.230E-03    0.99       5.3  T
   4   -132.8477828  0.139875E-06  0.182E-03    0.99       6.7  T
   5   -132.8477831 -0.209739E-06  0.648E-04    0.99      18.9  T
   6   -132.8477831 -0.363580E-07  0.183E-04    0.99      66.8  T
     SCC iter.                  ...        0 min,  0.058 sec
     gradient                   ...        0 min,  0.013 sec
 * total energy  :  -131.0979742 Eh     change       -0.1009674E-04 Eh
   gradient norm :     0.0018255 Eh/α   predicted    -0.5579191E-05 ( -44.74%)
   displ. norm   :     0.1604969 α      lambda       -0.2791757E-04
   maximum displ.:     0.1041367 α      in ANC's #3, #2, #9, ...

........................................................................
.............................. CYCLE   53 ..............................
........................................................................
   1   -132.8483930 -0.132848E+03  0.640E-02    0.99       0.0  T
   2   -132.8483969 -0.391961E-05  0.327E-02    0.99       1.0  T
   3   -132.8483940  0.287239E-05  0.941E-03    0.99       1.3  T
   4   -132.8483963 -0.225929E-05  0.617E-03    0.99       2.0  T
   5   -132.8483978 -0.158089E-05  0.263E-03    0.99       4.6  T
   6   -132.8483984 -0.549593E-06  0.690E-04    0.99      17.7  T
   7   -132.8483984 -0.204712E-07  0.355E-04    0.99      34.4  T
     SCC iter.                  ...        0 min,  0.072 sec
     gradient                   ...        0 min,  0.013 sec
 * total energy  :  -131.0980017 Eh     change       -0.2748972E-04 Eh
   gradient norm :     0.0012290 Eh/α   predicted    -0.1412126E-04 ( -48.63%)
   displ. norm   :     0.1197581 α      lambda       -0.1155458E-04
   maximum displ.:     0.0797165 α      in ANC's #3, #2, #6, ...

........................................................................
.............................. CYCLE   54 ..............................
........................................................................
   1   -132.8477762 -0.132848E+03  0.464E-02    0.99       0.0  T
   2   -132.8477782 -0.200074E-05  0.236E-02    0.99       1.0  T
   3   -132.8477766  0.165754E-05  0.685E-03    0.99       1.8  T
   4   -132.8477776 -0.105433E-05  0.473E-03    0.99       2.6  T
   5   -132.8477788 -0.119826E-05  0.164E-03    0.99       7.4  T
   6   -132.8477790 -0.183236E-06  0.410E-04    0.99      29.8  T
   7   -132.8477790 -0.444300E-08  0.242E-04    0.99      50.6  T
     SCC iter.                  ...        0 min,  0.129 sec
     gradient                   ...        0 min,  0.018 sec
 * total energy  :  -131.0980161 Eh     change       -0.1437504E-04 Eh
   gradient norm :     0.0013865 Eh/α   predicted    -0.5815632E-05 ( -59.54%)
   displ. norm   :     0.1256095 α      lambda       -0.1360356E-04
   maximum displ.:     0.0808383 α      in ANC's #3, #2, #6, ...

........................................................................
.............................. CYCLE   55 ..............................
........................................................................
   1   -132.8475897 -0.132848E+03  0.447E-02    0.99       0.0  T
   2   -132.8475915 -0.178865E-05  0.232E-02    0.99       1.0  T
   3   -132.8475885  0.300961E-05  0.767E-03    0.99       1.6  T
   4   -132.8475912 -0.273149E-05  0.437E-03    0.99       2.8  T
   5   -132.8475922 -0.993664E-06  0.141E-03    0.99       8.6  T
   6   -132.8475923 -0.126279E-06  0.382E-04    0.99      32.0  T
   7   -132.8475923 -0.221269E-08  0.235E-04    0.99      52.1  T
     SCC iter.                  ...        0 min,  0.132 sec
     gradient                   ...        0 min,  0.014 sec
 * total energy  :  -131.0980343 Eh     change       -0.1820868E-04 Eh
   gradient norm :     0.0012422 Eh/α   predicted    -0.6853839E-05 ( -62.36%)
   displ. norm   :     0.2131912 α      lambda       -0.2353610E-04
   maximum displ.:     0.1339419 α      in ANC's #3, #2, #6, ...

........................................................................
.............................. CYCLE   56 ..............................
........................................................................
   1   -132.8472613 -0.132847E+03  0.734E-02    0.99       0.0  T
   2   -132.8472660 -0.470077E-05  0.384E-02    1.00       1.0  T
   3   -132.8472556  0.104030E-04  0.133E-02    1.00       1.0  T
   4   -132.8472658 -0.102799E-04  0.683E-03    1.00       1.8  T
   5   -132.8472682 -0.234201E-05  0.172E-03    1.00       7.1  T
   6   -132.8472684 -0.170287E-06  0.617E-04    1.00      19.8  T
   7   -132.8472684 -0.436671E-08  0.371E-04    1.00      33.0  T
     SCC iter.                  ...        0 min,  0.061 sec
     gradient                   ...        0 min,  0.013 sec
 * total energy  :  -131.0980637 Eh     change       -0.2940145E-04 Eh
   gradient norm :     0.0013512 Eh/α   predicted    -0.1200748E-04 ( -59.16%)
   displ. norm   :     0.3236379 α      lambda       -0.3084720E-04
   maximum displ.:     0.2024933 α      in ANC's #3, #2, #6, ...

........................................................................
.............................. CYCLE   57 ..............................
........................................................................
   1   -132.8466315 -0.132847E+03  0.110E-01    1.00       0.0  T
   2   -132.8466419 -0.103183E-04  0.576E-02    1.00       1.0  T
   3   -132.8466147  0.271412E-04  0.205E-02    1.00       1.0  T
   4   -132.8466425 -0.277977E-04  0.971E-03    1.00       1.3  T
   5   -132.8466471 -0.457126E-05  0.238E-03    1.00       5.1  T
   6   -132.8466474 -0.350511E-06  0.913E-04    1.00      13.4  T
   7   -132.8466474 -0.857420E-08  0.584E-04    1.00      20.9  T
     SCC iter.                  ...        0 min,  0.061 sec
     gradient                   ...        0 min,  0.014 sec
 * total energy  :  -131.0980990 Eh     change       -0.3534754E-04 Eh
   gradient norm :     0.0016679 Eh/α   predicted    -0.1614231E-04 ( -54.33%)
   displ. norm   :     0.3495035 α      lambda       -0.2678526E-04
   maximum displ.:     0.2193243 α      in ANC's #3, #2, #6, ...

........................................................................
.............................. CYCLE   58 ..............................
........................................................................
   1   -132.8465368 -0.132847E+03  0.115E-01    1.00       0.0  T
   2   -132.8465481 -0.113421E-04  0.604E-02    1.00       1.0  T
   3   -132.8465251  0.230343E-04  0.197E-02    1.00       1.0  T
   4   -132.8465475 -0.224040E-04  0.105E-02    1.00       1.2  T
   5   -132.8465532 -0.575850E-05  0.261E-03    1.00       4.7  T
   6   -132.8465537 -0.414569E-06  0.918E-04    1.00      13.3  T
   7   -132.8465537 -0.787196E-09  0.639E-04    1.00      19.1  T
     SCC iter.                  ...        0 min,  0.068 sec
     gradient                   ...        0 min,  0.193 sec
 * total energy  :  -131.0981295 Eh     change       -0.3041197E-04 Eh
   gradient norm :     0.0015015 Eh/α   predicted    -0.1412182E-04 ( -53.56%)
   displ. norm   :     0.3150727 α      lambda       -0.2055934E-04
   maximum displ.:     0.2009730 α      in ANC's #3, #2, #6, ...

........................................................................
.............................. CYCLE   59 ..............................
........................................................................
   1   -132.8467792 -0.132847E+03  0.105E-01    1.00       0.0  T
   2   -132.8467884 -0.919521E-05  0.548E-02    1.00       1.0  T
   3   -132.8467661  0.222516E-04  0.187E-02    1.00       1.0  T
   4   -132.8467885 -0.223606E-04  0.931E-03    1.00       1.3  T
   5   -132.8467928 -0.433427E-05  0.239E-03    1.00       5.1  T
   6   -132.8467932 -0.329358E-06  0.837E-04    1.00      14.6  T
   7   -132.8467932  0.117532E-08  0.621E-04    1.00      19.7  T
     SCC iter.                  ...        0 min,  0.109 sec
     gradient                   ...        0 min,  0.025 sec
 * total energy  :  -131.0981531 Eh     change       -0.2359824E-04 Eh
   gradient norm :     0.0011375 Eh/α   predicted    -0.1073357E-04 ( -54.52%)
   displ. norm   :     0.3102202 α      lambda       -0.1694193E-04
   maximum displ.:     0.2004786 α      in ANC's #3, #2, #6, ...

........................................................................
.............................. CYCLE   60 ..............................
........................................................................
   1   -132.8471650 -0.132847E+03  0.101E-01    1.00       0.0  T
   2   -132.8471736 -0.857205E-05  0.529E-02    1.00       1.0  T
   3   -132.8471585  0.150608E-04  0.163E-02    1.00       1.0  T
   4   -132.8471725 -0.139867E-04  0.927E-03    1.00       1.3  T
   5   -132.8471772 -0.467902E-05  0.255E-03    1.00       4.8  T
   6   -132.8471776 -0.401928E-06  0.815E-04    1.00      15.0  T
   7   -132.8471776  0.165213E-08  0.603E-04    1.00      20.3  T
     SCC iter.                  ...        0 min,  0.095 sec
     gradient                   ...        0 min,  0.014 sec
 * total energy  :  -131.0981714 Eh     change       -0.1830031E-04 Eh
   gradient norm :     0.0010616 Eh/α   predicted    -0.8836680E-05 ( -51.71%)
[...]
       120                         -0.3160747              -8.6008
       121                         -0.3100071              -8.4357
       122                         -0.2748024              -7.4778
       ...                                ...                  ...
       221                          0.7598416              20.6763
      -------------------------------------------------------------
                  HL-Gap            0.0368565 Eh            1.0029 eV
             Fermi-level           -0.3524405 Eh           -9.5904 eV

 SCC (total)                   0 d,  0 h,  0 min,  0.064 sec
 SCC setup                      ...        0 min,  0.001 sec (  2.109%)
 Dispersion                     ...        0 min,  0.002 sec (  3.805%)
 integral evaluation            ...        0 min,  0.014 sec ( 22.438%)
 zeroth order Hamiltonian       ...        0 min,  0.001 sec (  1.522%)
 iterations                     ...        0 min,  0.026 sec ( 41.347%)
 molecular gradient             ...        0 min,  0.014 sec ( 21.249%)
 printout                       ...        0 min,  0.005 sec (  7.352%)

         :::::::::::::::::::::::::::::::::::::::::::::::::::::
         ::                     SUMMARY                     ::
         :::::::::::::::::::::::::::::::::::::::::::::::::::::
         :: total energy            -131.098197398723 Eh    ::
         :: gradient norm              0.000663447506 Eh/a0 ::
         :: HOMO-LUMO gap              1.002915380075 eV    ::
         ::.................................................::
         :: SCC energy              -132.847621365838 Eh    ::
         :: -> isotropic ES            0.186537294934 Eh    ::
         :: -> anisotropic ES          0.006486922578 Eh    ::
         :: -> anisotropic XC          0.062888742554 Eh    ::
         :: -> dispersion             -0.099919369151 Eh    ::
         :: repulsion energy           1.749809657244 Eh    ::
         :: add. restraining           0.000000000000 Eh    ::
         :::::::::::::::::::::::::::::::::::::::::::::::::::::

           -------------------------------------------------
          |                Property Printout                |
           -------------------------------------------------

    * Orbital Energies and Occupations

         #    Occupation            Energy/Eh            Energy/eV
      -------------------------------------------------------------
         1        2.0000           -0.7775336             -21.1578
       ...           ...                  ...                  ...
       105        2.0000           -0.4219347             -11.4814
       106        2.0000           -0.4209840             -11.4556
       107        2.0000           -0.4176995             -11.3662
       108        2.0000           -0.4134695             -11.2511
       109        2.0000           -0.4119621             -11.2101
       110        2.0000           -0.4090797             -11.1316
       111        2.0000           -0.4078289             -11.0976
       112        2.0000           -0.4010143             -10.9122
       113        2.0000           -0.3988923             -10.8544
       114        2.0000           -0.3876074             -10.5473
       115        2.0000           -0.3826704             -10.4130
       116        2.0000           -0.3788687             -10.3095
       117        2.0000           -0.3708685             -10.0918 (HOMO)
       118                         -0.3340120              -9.0889 (LUMO)
       119                         -0.3271093              -8.9011
       120                         -0.3160747              -8.6008
       121                         -0.3100071              -8.4357
       122                         -0.2748024              -7.4778
       123                         -0.2699595              -7.3460
       124                         -0.2415110              -6.5718
       125                         -0.2366597              -6.4398
       126                         -0.2327998              -6.3348
       127                         -0.2321521              -6.3172
       128                         -0.2288045              -6.2261
       ...                                ...                  ...
       221                          0.7598416              20.6763
      -------------------------------------------------------------
                  HL-Gap            0.0368565 Eh            1.0029 eV
             Fermi-level           -0.3524405 Eh           -9.5904 eV

     #   Z        covCN         q      C6AA      α(0)
     1   6 C      3.690    -0.065    21.947     6.704
     2   7 N      2.828    -0.043    22.075     6.978
     3   6 C      2.848     0.264    22.557     7.784
     4   8 O      0.857    -0.416    22.003     6.289
     5   6 C      3.164    -0.080    29.637     8.897
     6   6 C      3.001     0.084    26.110     8.382
     7   6 C      2.960     0.000    28.021     8.682
     8   6 C      2.928    -0.022    28.556     8.763
     9   6 C      2.919    -0.023    28.579     8.767
    10   6 C      2.907    -0.035    28.878     8.812
    11   6 C      3.354     0.076    23.618     7.648
    12   7 N      1.852    -0.264    27.710     7.802
    13  16 S      2.676     0.356   127.393    18.997
    14   7 N      1.853    -0.273    27.935     7.834
    15   6 C      3.339     0.076    23.918     7.736
    16   7 N      2.827    -0.055    22.300     7.014
    17   6 C      3.690    -0.057    21.789     6.680
    18   6 C      2.842     0.272    22.416     7.759
    19   8 O      0.857    -0.374    21.172     6.169
    20   6 C      3.145    -0.061    29.238     8.847
    21   6 C      3.022     0.063    26.554     8.453
    22   6 C      2.991     0.202    23.707     7.987
    23   7 N      1.842    -0.244    27.219     7.732
    24   6 C      2.944     0.175    24.238     8.075
    25   7 N      1.837    -0.270    27.864     7.823
    26   6 C      2.990     0.199    23.761     7.996
    27   6 C      3.016     0.064    26.557     8.453
    28   6 C      3.147    -0.064    29.308     8.857
    29   6 C      2.847     0.270    22.443     7.764
    30   8 O      0.857    -0.395    21.590     6.230
    31   7 N      2.828    -0.053    22.256     7.007
    32   6 C      3.690    -0.057    21.790     6.680
    33   6 C      3.004     0.083    26.127     8.385
    34   6 C      2.960    -0.000    28.028     8.684
    35   6 C      2.928    -0.022    28.557     8.764
    36   6 C      2.919    -0.023    28.581     8.767
    37   6 C      2.907    -0.035    28.859     8.809
    38   6 C      3.353     0.076    23.628     7.652
    39   7 N      1.852    -0.263    27.698     7.800
    40  16 S      2.675     0.361   127.203    18.982
    41   7 N      1.853    -0.274    27.954     7.836
    42   6 C      3.340     0.075    23.922     7.736
    43   6 C      3.164    -0.081    29.650     8.900
    44   6 C      2.845     0.264    22.556     7.784
    45   8 O      0.857    -0.415    21.982     6.286
    46   7 N      2.829    -0.051    22.213     7.000
    47   6 C      3.690    -0.055    21.765     6.676
    48   7 N      1.845    -0.259    27.579     7.783
    49   1 H      0.925     0.087     1.908     2.160
    50   1 H      0.924     0.057     2.231     2.336
    51   1 H      0.924     0.108     1.716     2.049
    52   1 H      0.926     0.073     2.050     2.239
    53   1 H      0.926     0.057     2.239     2.340
    54   1 H      0.926     0.059     2.215     2.327
    55   1 H      0.924     0.080     1.978     2.200
    56   1 H      0.924     0.052     2.298     2.371
    57   1 H      0.924     0.090     1.876     2.142
    58   1 H      0.925     0.058     2.225     2.333
    59   1 H      0.924     0.090     1.876     2.142
    60   1 H      0.924     0.081     1.970     2.195
    61   1 H      0.924     0.053     2.283     2.363
    62   1 H      0.926     0.072     2.061     2.245
    63   1 H      0.926     0.057     2.232     2.336
    64   1 H      0.926     0.060     2.200     2.320
    65   1 H      0.924     0.091     1.873     2.140
    66   1 H      0.925     0.063     2.160     2.299
    67   1 H      0.925     0.078     1.998     2.210

 Mol. C6AA /au·bohr⁶  :      78657.220334
 Mol. C8AA /au·bohr⁸  :    2069713.725311
 Mol. α(0) /au        :        440.187827


Wiberg/Mayer (AO) data.
largest (>0.10) Wiberg bond orders for each atom
          total WBO             WBO to atom ...
     1  C   3.945        N    2 0.996    H   49 0.973    H   50 0.972    H   51 0.948
     2  N   3.602        C   21 1.214    C    3 1.070    C    1 0.996    O    4 0.118
     3  C   3.946        O    4 1.662    C    5 1.087    N    2 1.070
     4  O   2.008        C    3 1.662    N    2 0.118
     5  C   3.954        C    6 1.372    C   20 1.197    C    3 1.087
     6  C   3.953        C    5 1.372    N   16 1.231    C    7 1.091
     7  C   3.987        C    8 1.466    C   15 1.205    C    6 1.091    C   10 0.103
     8  C   3.979        C    7 1.466    C    9 1.330    H   52 0.964
     9  C   3.989        C   10 1.546    C    8 1.330    H   53 0.967
    10  C   3.974        C    9 1.546    C   11 1.255    H   54 0.966    C    7 0.103
    11  C   3.975        N   12 1.372    C   10 1.255    C   15 1.163
    12  N   3.081        S   13 1.449    C   11 1.372    N   14 0.167
    13  S   3.206        N   12 1.449    N   14 1.425
    14  N   3.088        S   13 1.425    C   15 1.385    N   12 0.167
    15  C   3.971        N   14 1.385    C    7 1.205    C   11 1.163
    16  N   3.587        C    6 1.231    C   18 1.038    C   17 0.999    O   19 0.111
    17  C   3.956        N   16 0.999    H   56 0.976    H   57 0.971    H   55 0.959
    18  C   3.946        O   19 1.713    C   20 1.073    N   16 1.038
    19  O   2.056        C   18 1.713    N   16 0.111
    20  C   3.971        C   21 1.387    C    5 1.197    C   18 1.073
    21  C   3.958        C   20 1.387    N    2 1.214    C   22 1.089
    22  C   3.964        N   48 1.370    N   23 1.327    C   21 1.089
    23  N   3.042        C   24 1.456    C   22 1.327
    24  C   3.953        N   23 1.456    N   25 1.414    H   58 0.954
    25  N   3.024        C   24 1.414    C   26 1.343
    26  C   3.965        N   48 1.372    N   25 1.343    C   27 1.077
    27  C   3.956        C   28 1.401    N   46 1.211    C   26 1.077
    28  C   3.971        C   27 1.401    C   43 1.185    C   29 1.079
    29  C   3.946        O   30 1.679    C   28 1.079    N   31 1.057
    30  O   2.032        C   29 1.679    N   31 0.112
    31  N   3.589        C   33 1.220    C   29 1.057    C   32 0.998    O   30 0.112
    32  C   3.955        N   31 0.998    H   61 0.976    H   59 0.971    H   60 0.959
    33  C   3.953        C   43 1.383    N   31 1.220    C   34 1.091
    34  C   3.987        C   35 1.466    C   42 1.205    C   33 1.091    C   37 0.103
    35  C   3.980        C   34 1.466    C   36 1.330    H   62 0.964
    36  C   3.989        C   37 1.546    C   35 1.330    H   63 0.967
    37  C   3.967        C   36 1.546    C   38 1.255    H   64 0.966    C   34 0.103
    38  C   3.975        N   39 1.371    C   37 1.255    C   42 1.164
    39  N   3.082        S   40 1.450    C   38 1.371    N   41 0.167
    40  S   3.208        N   39 1.450    N   41 1.426
    41  N   3.087        S   40 1.426    C   42 1.384    N   39 0.167
    42  C   3.971        N   41 1.384    C   34 1.205    C   38 1.164
    43  C   3.956        C   33 1.383    C   28 1.185    C   44 1.091
    44  C   3.946        O   45 1.665    C   43 1.091    N   46 1.064
    45  O   2.004        C   44 1.665    N   46 0.118
    46  N   3.593        C   27 1.211    C   44 1.064    C   47 0.999    O   45 0.118
    47  C   3.954        N   46 0.999    H   66 0.972    H   65 0.971    H   67 0.969
    48  N   3.047        C   26 1.372    C   22 1.370
    49  H   0.992        C    1 0.973
    50  H   0.993        C    1 0.972
    51  H   0.985        C    1 0.948
    52  H   0.993        C    8 0.964
    53  H   0.995        C    9 0.967
    54  H   0.996        C   10 0.966
    55  H   0.991        C   17 0.959
    56  H   0.995        C   17 0.976
    57  H   0.991        C   17 0.971
    58  H   0.995        C   24 0.954
    59  H   0.991        C   32 0.971
    60  H   0.991        C   32 0.959
    61  H   0.995        C   32 0.976
    62  H   0.993        C   35 0.964
    63  H   0.995        C   36 0.967
    64  H   0.996        C   37 0.966
    65  H   0.991        C   47 0.971
    66  H   0.993        C   47 0.972
    67  H   0.991        C   47 0.969

molecular dipole:
                 x           y           z       tot (Debye)
 q only:        0.363      -0.601      -0.864
   full:        0.171      -0.339      -0.990       2.696
molecular quadrupole (traceless):
                xx          xy          yy          xz          yz          zz
 q only:      -18.281       6.916     -10.738     -21.623     -29.487      29.019
  q+dip:      -20.909       7.131      -5.561     -13.816     -27.952      26.470
   full:      -15.570      10.589      -9.809      -7.796     -25.285      25.379

           -------------------------------------------------
          |                Geometry Summary                 |
           -------------------------------------------------

      molecular mass/u    :      673.6824000
   center of mass at/Å    :        3.8476182       2.2171157      -2.1532502
  moments of inertia/u·Å² :        0.3604161E+04   0.2334964E+05   0.2633797E+05
rotational constants/cm⁻¹ :        0.4677270E-02   0.7219655E-03   0.6400506E-03

 * 72 selected distances

     #   Z        #   Z                                     value/Å
     1   6 C      2   7 N                                 1.4365264
     2   7 N      3   6 C                                 1.4096952
     3   6 C      4   8 O                                 1.2141968
     3   6 C      5   6 C                                 1.4457345
     5   6 C      6   6 C                                 1.3865822
     7   6 C      8   6 C                                 1.3835148
     8   6 C      9   6 C                                 1.4029732
     9   6 C     10   6 C                                 1.3692572
    10   6 C     11   6 C                                 1.4033141
    11   6 C     12   7 N                                 1.3345979
    12   7 N     13  16 S                                 1.6014550
    13  16 S     14   7 N                                 1.6086941 (max)
     7   6 C     15   6 C                                 1.4173234
    11   6 C     15   6 C                                 1.4419723
    14   7 N     15   6 C                                 1.3336982
     6   6 C     16   7 N                                 1.3628675
    16   7 N     17   6 C                                 1.4368889
    16   7 N     18   6 C                                 1.4241779
    18   6 C     19   8 O                                 1.2068804
     5   6 C     20   6 C                                 1.4245593
     2   7 N     21   6 C                                 1.3659374
    20   6 C     21   6 C                                 1.3846571
    21   6 C     22   6 C                                 1.4448494
    22   6 C     23   7 N                                 1.3386545
    23   7 N     24   6 C                                 1.3123935
    24   6 C     25   7 N                                 1.3225029
    25   7 N     26   6 C                                 1.3363822
    26   6 C     27   6 C                                 1.4495372
    27   6 C     28   6 C                                 1.3822156
    28   6 C     29   6 C                                 1.4464735
    29   6 C     30   8 O                                 1.2111038
    29   6 C     31   7 N                                 1.4157873
    31   7 N     32   6 C                                 1.4373627
    31   7 N     33   6 C                                 1.3655170
    34   6 C     35   6 C                                 1.3833038
    35   6 C     36   6 C                                 1.4030642
    36   6 C     37   6 C                                 1.3692077
    37   6 C     38   6 C                                 1.4033966
    38   6 C     39   7 N                                 1.3345142
    39   7 N     40  16 S                                 1.6016475
    40  16 S     41   7 N                                 1.6084268
    34   6 C     42   6 C                                 1.4172805
    38   6 C     42   6 C                                 1.4416893
    41   7 N     42   6 C                                 1.3338818
    28   6 C     43   6 C                                 1.4274228
    33   6 C     43   6 C                                 1.3850574
    43   6 C     44   6 C                                 1.4437301
    44   6 C     45   8 O                                 1.2137093
    27   6 C     46   7 N                                 1.3680133
    44   6 C     46   7 N                                 1.4124309
    46   7 N     47   6 C                                 1.4368421
    22   6 C     48   7 N                                 1.3300177
    26   6 C     48   7 N                                 1.3289871
     1   6 C     49   1 H                                 1.0899611
     1   6 C     50   1 H                                 1.0903840
     1   6 C     51   1 H                                 1.0905084
     8   6 C     52   1 H                                 1.0781354
     9   6 C     53   1 H                                 1.0790623
    10   6 C     54   1 H                                 1.0776651
    17   6 C     55   1 H                                 1.0905817
    17   6 C     56   1 H                                 1.0915205
    17   6 C     57   1 H                                 1.0903668
    24   6 C     58   1 H                                 1.0827852
    32   6 C     59   1 H                                 1.0902357
    32   6 C     60   1 H                                 1.0905572
    32   6 C     61   1 H                                 1.0911925
    35   6 C     62   1 H                                 1.0782719
    36   6 C     63   1 H                                 1.0791299
    37   6 C     64   1 H                                 1.0776645 (min)
    47   6 C     65   1 H                                 1.0905310
    47   6 C     66   1 H                                 1.0901757
    47   6 C     67   1 H                                 1.0895484

 * 5 distinct bonds (by element types)

   Z      Z             #   av. dist./Å        max./Å        min./Å
   1 H    6 C          19     1.0862251     1.0915205     1.0776645
   6 C    6 C          23     1.4111790     1.4495372     1.3692077
   6 C    7 N          22     1.3717126     1.4373627     1.3123935
   6 C    8 O           4     1.2114726     1.2141968     1.2068804
   7 N   16 S           4     1.6050558     1.6086941     1.6014550


optimized geometry written to: xtbopt.xyz


           -------------------------------------------------
          | TOTAL ENERGY             -131.098197398723 Eh   |
          | GRADIENT NORM               0.000663447506 Eh/α |
          | HOMO-LUMO GAP               1.002915380075 eV   |
           -------------------------------------------------

------------------------------------------------------------------------
 * finished run on 2021/05/04 at 16:00:42.338     
------------------------------------------------------------------------
 total:
 * wall-time:     0 d,  0 h,  0 min,  8.233 sec
 *  cpu-time:     0 d,  0 h,  1 min, 29.681 sec
 * ratio c/w:    10.893 speedup
 SCF:
 * wall-time:     0 d,  0 h,  0 min,  0.228 sec
 *  cpu-time:     0 d,  0 h,  0 min,  2.096 sec
 * ratio c/w:     9.208 speedup
 ANC optimizer:
 * wall-time:     0 d,  0 h,  0 min,  7.942 sec
 *  cpu-time:     0 d,  0 h,  1 min, 27.044 sec
 * ratio c/w:    10.961 speedup

