      -----------------------------------------------------------      
     |                   =====================                   |     
     |                           x T B                           |     
     |                   =====================                   |     
     |                         S. Grimme                         |     
     |          Mulliken Center for Theoretical Chemistry        |     
     |                    University of Bonn                     |     
     |                Version 6.2 RC2 (SAW190805)                |     
      -----------------------------------------------------------      

   This program is distributed in the hope that it will be useful,
   but WITHOUT ANY WARRANTY; without even the implied warranty of
   MERCHANTABILITY or FITNESS FOR A PARTICULAR PURPOSE.
   
   FOR NON-COMMERCIAL, ACADEMIA USE ONLY.
   
   Cite this work as:
   * S. Grimme, C. Bannwarth, P. Shushkov, J. Chem. Theory Comput., 2017,
     13, 1989-2009. DOI: 10.1021/acs.jctc.7b00118
   * C. Bannwarth, S. Ehlert and S. Grimme., J. Chem. Theory Comput., 2019,
     15, 1652-1671. DOI: 10.1021/acs.jctc.8b01176
   * P. Pracht, E. Caldeweyher, S. Ehlert, S. Grimme, ChemRxiv, 2019, preprint.
     DOI: 10.26434/chemrxiv.8326202.v1
   
   for DFT-D4:
   * E. Caldeweyher, C. Bannwarth and S. Grimme, J. Chem. Phys., 2017,
     147, 034112. DOI: 10.1063/1.4993215
   * E. Caldeweyher, S. Ehlert, A. Hansen, H. Neugebauer, S. Spicher,
     C. Bannwarth and S. Grimme, J. Chem. Phys., 2019, 150, 154122.
     DOI: 10.1063/1.5090222
   
   for sTDA-xTB:
   * S. Grimme and C. Bannwarth, J. Chem. Phys., 2016, 145, 054103.
     DOI: 10.1063/1.4959605
   
   in the mass-spec context:
   * V. Asgeirsson, C. Bauer and S. Grimme, Chem. Sci., 2017, 8, 4879.
     DOI: 10.1039/c7sc00601b
   
   for metadynamics refer to:
   * S. Grimme, J. Chem. Theory Comput., 2019, 155, 2847-2862
     DOI: 10.1021/acs.jctc.9b00143
   
   with help from (in alphabetical order)
   C. Bannwarth, F. Bohle, G. Brandenburg, E. Caldeweyher, M. Checinski,
   S. Dohm, S. Ehlert, S. Ehrlich, F. März, H. Neugebauer, J. Pisarek,
   P. Pracht, P. Shushkov, and S. Spicher.
   
 * started run on 2021/05/14 at 03:52:43.480     

           -------------------------------------------------
          |                Calculation Setup                |
           -------------------------------------------------

          program call               : /ihome/ghutchison/geoffh/xtb/xtb /ihome/ghutchison/blp62/GA/running_GA/generations/37/43_48_19_48_43.xyz -opt
          hostname                   : smp-n73
          coordinate file            : /ihome/ghutchison/blp62/GA/running_GA/generations/37/43_48_19_48_43.xyz
          omp threads                :                    12
          number of atoms            :                    85
          number of electrons        :                   332
          charge                     :                     0
          spin                       :                   0.0
          first test random number   :      0.91348485632157


########################################################################
# WARNING! Please study the warnings concerning your input carefully
#  - XTBPATH is not set, using XTBHOME instead
#  - the use of '-opt' is discouraged, please use '--opt' next time
########################################################################

           ------------------------------------------------- 
          |                 G F N 2 - x T B                 |
          | Geometry, Frequencies, Noncovalent interactions |
          |            JCTC 2019 parametrisation            |
           ------------------------------------------------- 
             KAB for C  - Si     :                1.0500
             KAB for H  - Pd     :                0.9500
             k(s)              :                1.8500
             k(p)              :                2.2300
             k(d)              :                2.2300
             k(f)              :                2.0000
             kEN (H0ij)        :               -2.0000
             D4 a1             :                0.5200
             D4 a2             :                5.0000
             D4 s6             :                1.0000
             D4 s8             :                2.7000
             D4 s9             :                5.0000
             alphaj            :                2.0000

  Z AO/shell   Hii/eV     exponent
  1     Wed Apr 25 08:07:45 CEST 2018   EN: 2.200 GM2: 0.406  GM3: 0.0800  RAES: 1.40
     1s    -10.707211    1.230000
  6     Wed Apr 25 08:07:45 CEST 2018   EN: 2.550 GM2: 0.538  GM3: 0.1500  RAES: 3.00
     2s    -13.970922    2.096432
     2p    -10.063292    1.800000
  7     Wed Apr 25 08:07:45 CEST 2018   EN: 3.040 GM2: 0.461  GM3:-0.0640  RAES: 1.90
     2s    -16.686243    2.339881
     2p    -12.523956    2.014332
  8     Wed Apr 25 08:07:45 CEST 2018   EN: 3.440 GM2: 0.452  GM3:-0.0517  RAES: 1.80
     2s    -20.229985    2.439742
     2p    -15.503117    2.137023
 16     Tue Apr 24 11:44:34 CEST 2018   EN: 2.580 GM2: 0.340  GM3:-0.0502  RAES: 3.10
     3s    -20.029654    1.981333
     3p    -11.377694    2.025643
     3d     -0.420282    1.702555

           ------------------------------------------------- 
          |        Self-Consistent Charge Iterations        |
           ------------------------------------------------- 

          ...................................................
          :                      SETUP                      :
          :.................................................:
          :  # basis functions                 340          :
          :  # atomic orbitals                 334          :
          :  # shells                          164          :
          :  # electrons                       332          :
          :  max. iterations                   250          :
          :  Hamiltonian                  GFN2-xTB          :
          :  restarted?                      false          :
          :  GBSA solvation                  false          :
          :  PC potential                    false          :
          :  electronic temp.          300.0000000     K    :
          :  accuracy                    1.0000000          :
          :  -> integral cutoff          0.2500000E+02      :
          :  -> integral neglect         0.1000000E-07      :
          :  -> SCF convergence          0.1000000E-05 Eh   :
          :  -> wf. convergence          0.1000000E-03 e    :
          :  Broyden damping             0.4000000          :
          ...................................................

 iter      E             dE          RMSdq      gap      omega  full diag
   1   -184.7249660 -0.184725E+03  0.640E+00    1.41       0.0  T
   2   -184.6781528  0.468133E-01  0.455E+00    0.96       1.0  T
   3   -184.7435272 -0.653745E-01  0.293E+00    1.04       1.0  T
   4   -185.1642805 -0.420753E+00  0.686E-01    0.96       1.0  T
   5   -185.1956359 -0.313555E-01  0.256E-01    0.99       1.0  T
   6   -185.1975556 -0.191966E-02  0.125E-01    0.94       1.0  T
   7   -185.1982325 -0.676905E-03  0.627E-02    0.98       1.0  T
   8   -185.1984153 -0.182844E-03  0.291E-02    0.96       1.0  T
   9   -185.1984547 -0.393491E-04  0.125E-02    0.97       1.0  T
  10   -185.1984594 -0.466961E-05  0.620E-03    0.97       1.8  T
  11   -185.1984605 -0.119218E-05  0.302E-03    0.97       3.6  T
  12   -185.1984607 -0.192376E-06  0.169E-03    0.97       6.4  T
  13   -185.1984608 -0.622808E-07  0.923E-04    0.97      11.8  T
  14   -185.1984608 -0.379725E-07  0.333E-04    0.97      32.6  T

   *** convergence criteria satisfied after 14 iterations ***

         #    Occupation            Energy/Eh            Energy/eV
      -------------------------------------------------------------
         1        2.0000           -0.7844659             -21.3464
       ...           ...                  ...                  ...
       160        2.0000           -0.4295447             -11.6885
       161        2.0000           -0.4281116             -11.6495
       162        2.0000           -0.4243342             -11.5467
       163        2.0000           -0.4217314             -11.4759
       164        2.0000           -0.4130744             -11.2403
       165        2.0000           -0.4028296             -10.9616
       166        2.0000           -0.3936280             -10.7112 (HOMO)
       167                         -0.3580509              -9.7431 (LUMO)
       168                         -0.3556821              -9.6786
       169                         -0.3528912              -9.6027
       170                         -0.3462474              -9.4219
       171                         -0.3334115              -9.0726
       ...                                ...                  ...
       334                          1.0933441              29.7514
      -------------------------------------------------------------
                  HL-Gap            0.0355771 Eh            0.9681 eV
             Fermi-level           -0.3758790 Eh          -10.2282 eV

 SCC (total)                   0 d,  0 h,  0 min,  0.216 sec
 SCC setup                      ...        0 min,  0.002 sec (  0.870%)
 Dispersion                     ...        0 min,  0.005 sec (  2.138%)
 integral evaluation            ...        0 min,  0.026 sec ( 12.038%)
 zeroth order Hamiltonian       ...        0 min,  0.001 sec (  0.640%)
 iterations                     ...        0 min,  0.162 sec ( 74.721%)
 molecular gradient             ...        0 min,  0.020 sec (  9.108%)
 printout                       ...        0 min,  0.001 sec (  0.438%)

         :::::::::::::::::::::::::::::::::::::::::::::::::::::
         ::                     SUMMARY                     ::
         :::::::::::::::::::::::::::::::::::::::::::::::::::::
         :: total energy            -182.087448759884 Eh    ::
         :: gradient norm              0.208317128637 Eh/a0 ::
         :: HOMO-LUMO gap              0.968102202485 eV    ::
         ::.................................................::
         :: SCC energy              -185.198460840573 Eh    ::
         :: -> isotropic ES            0.146470435947 Eh    ::
         :: -> anisotropic ES          0.019896163388 Eh    ::
         :: -> anisotropic XC          0.199313559052 Eh    ::
         :: -> dispersion             -0.146890074609 Eh    ::
         :: repulsion energy           3.112017405850 Eh    ::
         :: add. restraining           0.000000000000 Eh    ::
         :::::::::::::::::::::::::::::::::::::::::::::::::::::

      ----------------------------------------------------------- 
     |                   =====================                   |
     |                        A N C O P T                        |
     |                   =====================                   |
     |               Approximate Normal Coordinate               |
     |                Rational Function Optimizer                |
      ----------------------------------------------------------- 

          ...................................................
          :                      SETUP                      :
          :.................................................:
          :   optimization level            normal          :
          :   max. optcycles                   255          :
          :   ANC micro-cycles                  20          :
          :   degrees of freedom               249          :
          :.................................................:
          :   RF solver                   davidson          :
          :   input Hessian                  false          :
          :   write xtbopt.log                true          :
          :   linear?                        false          :
          :   energy convergence         0.5000000E-05 Eh   :
          :   grad. convergence          0.1000000E-02 Eh/α :
          :   maximium RF displ.         2.0000000          :
          :   Hlow (freq-cutoff)         0.5000000E-02      :
          :   Hmax (freq-cutoff)         5.0000000          :
          :   S6 in model hess.         20.0000000          :
          ...................................................

generating ANC from model Hessian ...
Using Lindh-Hessian (1995)
 Shifting diagonal of input Hessian by   5.003557776828717E-003
 Lowest  eigenvalues of input Hessian
    0.005000   -0.000000    0.000000    0.000000    0.000000    0.000000
    0.000000    0.005010    0.005027    0.005035    0.005058    0.005094
    0.005116    0.005159    0.005246    0.005286    0.005357    0.005448
 Highest eigenvalues
    2.522135    2.567479    2.569985    2.575549    2.583410    2.599777
 

........................................................................
.............................. CYCLE    1 ..............................
........................................................................
   1   -185.1984608 -0.185198E+03  0.159E-04    0.97       0.0  T
   2   -185.1984608  0.284871E-09  0.140E-04    0.97      77.3  T
   3   -185.1984608 -0.141409E-08  0.619E-05    0.97     175.1  T
     SCC iter.                  ...        0 min,  0.035 sec
     gradient                   ...        0 min,  0.019 sec
 * total energy  :  -182.0874486 Eh     change        0.1868119E-06 Eh
   gradient norm :     0.2083184 Eh/α   predicted     0.0000000E+00 (-100.00%)
   displ. norm   :     0.3806695 α      lambda       -0.4303202E-01
   maximum displ.:     0.1093718 α      in ANC's #38, #71, #89, ...

........................................................................
.............................. CYCLE    2 ..............................
........................................................................
   1   -185.3296615 -0.185330E+03  0.330E-01    0.88       0.0  T
   2   -185.3297214 -0.598919E-04  0.206E-01    0.85       1.0  T
   3   -185.3294148  0.306579E-03  0.147E-01    0.89       1.0  T
   4   -185.3309354 -0.152062E-02  0.398E-02    0.87       1.0  T
   5   -185.3310066 -0.711379E-04  0.214E-02    0.87       1.0  T
   6   -185.3310258 -0.191937E-04  0.768E-03    0.87       1.4  T
   7   -185.3310284 -0.258319E-05  0.293E-03    0.87       3.7  T
   8   -185.3310288 -0.460878E-06  0.136E-03    0.87       8.0  T
     SCC iter.                  ...        0 min,  0.087 sec
     gradient                   ...        0 min,  0.018 sec
 * total energy  :  -182.1149371 Eh     change       -0.2748848E-01 Eh
   gradient norm :     0.0774218 Eh/α   predicted    -0.2463398E-01 ( -10.38%)
   displ. norm   :     0.4414246 α      lambda       -0.1293526E-01
   maximum displ.:     0.1266855 α      in ANC's #52, #34, #56, ...

........................................................................
.............................. CYCLE    3 ..............................
........................................................................
   1   -185.3382654 -0.185338E+03  0.324E-01    0.79       0.0  T
   2   -185.3382725 -0.713465E-05  0.196E-01    0.75       1.0  T
   3   -185.3373619  0.910599E-03  0.153E-01    0.81       1.0  T
   4   -185.3391424 -0.178046E-02  0.326E-02    0.77       1.0  T
   5   -185.3391906 -0.482714E-04  0.186E-02    0.78       1.0  T
   6   -185.3392086 -0.179988E-04  0.622E-03    0.78       1.7  T
   7   -185.3392099 -0.127864E-05  0.270E-03    0.78       4.0  T
   8   -185.3392103 -0.392543E-06  0.131E-03    0.78       8.3  T
     SCC iter.                  ...        0 min,  0.086 sec
     gradient                   ...        0 min,  0.018 sec
 * total energy  :  -182.1220526 Eh     change       -0.7115533E-02 Eh
   gradient norm :     0.0288190 Eh/α   predicted    -0.7727886E-02 (   8.61%)
   displ. norm   :     0.6015520 α      lambda       -0.8414384E-02
   maximum displ.:     0.3568582 α      in ANC's #38, #16, #40, ...

........................................................................
.............................. CYCLE    4 ..............................
........................................................................
   1   -185.3081262 -0.185308E+03  0.458E-01    0.70       0.0  T
   2   -185.3082438 -0.117638E-03  0.260E-01    0.68       1.0  T
   3   -185.3051439  0.309996E-02  0.194E-01    0.74       1.0  T
   4   -185.3087281 -0.358422E-02  0.264E-02    0.69       1.0  T
   5   -185.3087514 -0.233297E-04  0.164E-02    0.70       1.0  T
   6   -185.3087645 -0.131165E-04  0.658E-03    0.69       1.6  T
   7   -185.3087662 -0.166959E-05  0.315E-03    0.69       3.4  T
   8   -185.3087668 -0.582631E-06  0.155E-03    0.69       7.0  T
     SCC iter.                  ...        0 min,  0.085 sec
     gradient                   ...        0 min,  0.018 sec
 * total energy  :  -182.1202345 Eh     change        0.1818086E-02 Eh
   gradient norm :     0.0698654 Eh/α   predicted    -0.5729710E-02 (-415.15%)
   displ. norm   :     0.3215234 α      lambda       -0.1120245E-01
   maximum displ.:     0.1392296 α      in ANC's #17, #18, #14, ...

........................................................................
.............................. CYCLE    5 ..............................
........................................................................
   1   -185.3412963 -0.185341E+03  0.344E-01    0.74       0.0  T
   2   -185.3413921 -0.957901E-04  0.193E-01    0.73       1.0  T
   3   -185.3402523  0.113975E-02  0.116E-01    0.73       1.0  T
   4   -185.3415497 -0.129733E-02  0.154E-02    0.73       1.0  T
   5   -185.3415637 -0.139992E-04  0.701E-03    0.73       1.5  T
   6   -185.3415655 -0.182519E-05  0.325E-03    0.73       3.3  T
   7   -185.3415658 -0.360897E-06  0.154E-03    0.73       7.1  T
     SCC iter.                  ...        0 min,  0.075 sec
     gradient                   ...        0 min,  0.018 sec
 * total energy  :  -182.1255770 Eh     change       -0.5342532E-02 Eh
   gradient norm :     0.0290761 Eh/α   predicted    -0.6180262E-02 (  15.68%)
   displ. norm   :     0.3304365 α      lambda       -0.2062772E-02
   maximum displ.:     0.1086921 α      in ANC's #25, #22, #14, ...

........................................................................
.............................. CYCLE    6 ..............................
........................................................................
   1   -185.3318332 -0.185332E+03  0.231E-01    0.74       0.0  T
   2   -185.3318798 -0.466650E-04  0.129E-01    0.74       1.0  T
   3   -185.3314008  0.478997E-03  0.737E-02    0.74       1.0  T
   4   -185.3319440 -0.543198E-03  0.102E-02    0.74       1.1  T
   5   -185.3319489 -0.488561E-05  0.577E-03    0.74       1.9  T
   6   -185.3319504 -0.147210E-05  0.239E-03    0.74       4.5  T
     SCC iter.                  ...        0 min,  0.065 sec
     gradient                   ...        0 min,  0.018 sec
 * total energy  :  -182.1256414 Eh     change       -0.6431964E-04 Eh
   gradient norm :     0.0343623 Eh/α   predicted    -0.1144001E-02 (1678.62%)
   displ. norm   :     0.3498078 α      lambda       -0.3317915E-02
   maximum displ.:     0.1553178 α      in ANC's #18, #25, #38, ...

........................................................................
.............................. CYCLE    7 ..............................
........................................................................
   1   -185.3344611 -0.185334E+03  0.233E-01    0.76       0.0  T
   2   -185.3345183 -0.572770E-04  0.129E-01    0.75       1.0  T
   3   -185.3342835  0.234855E-03  0.511E-02    0.76       1.0  T
   4   -185.3345491 -0.265618E-03  0.123E-02    0.75       1.0  T
   5   -185.3345573 -0.822007E-05  0.647E-03    0.75       1.7  T
   6   -185.3345590 -0.167885E-05  0.250E-03    0.75       4.3  T
   7   -185.3345593 -0.310646E-06  0.123E-03    0.75       8.8  T
     SCC iter.                  ...        0 min,  0.077 sec
     gradient                   ...        0 min,  0.018 sec
 * total energy  :  -182.1263377 Eh     change       -0.6963116E-03 Eh
   gradient norm :     0.0515553 Eh/α   predicted    -0.1861958E-02 ( 167.40%)
   displ. norm   :     0.2129507 α      lambda       -0.2645021E-02
   maximum displ.:     0.1122503 α      in ANC's #16, #17, #25, ...

........................................................................
.............................. CYCLE    8 ..............................
........................................................................
   1   -185.3448399 -0.185345E+03  0.180E-01    0.73       0.0  T
   2   -185.3448821 -0.421523E-04  0.100E-01    0.73       1.0  T
   3   -185.3446650  0.217090E-03  0.500E-02    0.74       1.0  T
   4   -185.3449148 -0.249849E-03  0.722E-03    0.74       1.5  T
   5   -185.3449163 -0.146751E-05  0.461E-03    0.74       2.4  T
   6   -185.3449176 -0.129753E-05  0.187E-03    0.74       5.8  T
     SCC iter.                  ...        0 min,  0.067 sec
     gradient                   ...        0 min,  0.018 sec
 * total energy  :  -182.1270404 Eh     change       -0.7026965E-03 Eh
   gradient norm :     0.0246653 Eh/α   predicted    -0.1382485E-02 (  96.74%)
   displ. norm   :     0.2738644 α      lambda       -0.1634708E-02
   maximum displ.:     0.1108949 α      in ANC's #20, #22, #18, ...

........................................................................
.............................. CYCLE    9 ..............................
........................................................................
   1   -185.3430906 -0.185343E+03  0.190E-01    0.73       0.0  T
   2   -185.3431246 -0.340442E-04  0.104E-01    0.73       1.0  T
   3   -185.3430890  0.356841E-04  0.249E-02    0.73       1.0  T
   4   -185.3431412 -0.522041E-04  0.739E-03    0.73       1.5  T
   5   -185.3431417 -0.500288E-06  0.425E-03    0.73       2.6  T
   6   -185.3431429 -0.124161E-05  0.120E-03    0.73       9.0  T
     SCC iter.                  ...        0 min,  0.066 sec
     gradient                   ...        0 min,  0.019 sec
 * total energy  :  -182.1272600 Eh     change       -0.2196594E-03 Eh
   gradient norm :     0.0306288 Eh/α   predicted    -0.8786576E-03 ( 300.01%)
   displ. norm   :     0.3061746 α      lambda       -0.2122555E-02
   maximum displ.:     0.1095761 α      in ANC's #22, #25, #18, ...

........................................................................
.............................. CYCLE   10 ..............................
........................................................................
   1   -185.3370822 -0.185337E+03  0.193E-01    0.74       0.0  T
   2   -185.3371178 -0.355766E-04  0.106E-01    0.75       1.0  T
   3   -185.3369496  0.168181E-03  0.460E-02    0.74       1.0  T
   4   -185.3371439 -0.194323E-03  0.844E-03    0.75       1.3  T
   5   -185.3371453 -0.143813E-05  0.550E-03    0.75       2.0  T
   6   -185.3371472 -0.189092E-05  0.195E-03    0.75       5.6  T
     SCC iter.                  ...        0 min,  0.065 sec
     gradient                   ...        0 min,  0.018 sec
 * total energy  :  -182.1281249 Eh     change       -0.8649207E-03 Eh
   gradient norm :     0.0245806 Eh/α   predicted    -0.1160770E-02 (  34.21%)
   displ. norm   :     0.2537920 α      lambda       -0.9294741E-03
   maximum displ.:     0.0992394 α      in ANC's #18, #25, #16, ...

........................................................................
.............................. CYCLE   11 ..............................
........................................................................
   1   -185.3387789 -0.185339E+03  0.124E-01    0.74       0.0  T
   2   -185.3387935 -0.145961E-04  0.673E-02    0.74       1.0  T
   3   -185.3387259  0.676156E-04  0.305E-02    0.75       1.0  T
   4   -185.3388039 -0.780531E-04  0.738E-03    0.74       1.5  T
   5   -185.3388040 -0.241927E-07  0.492E-03    0.74       2.2  T
   6   -185.3388058 -0.185300E-05  0.145E-03    0.74       7.5  T
     SCC iter.                  ...        0 min,  0.065 sec
     gradient                   ...        0 min,  0.018 sec
 * total energy  :  -182.1286468 Eh     change       -0.5218074E-03 Eh
   gradient norm :     0.0138245 Eh/α   predicted    -0.4946739E-03 (  -5.20%)
   displ. norm   :     0.4957577 α      lambda       -0.1423340E-02
   maximum displ.:     0.1810133 α      in ANC's #25, #16, #18, ...

........................................................................
.............................. CYCLE   12 ..............................
........................................................................
   1   -185.3370670 -0.185337E+03  0.244E-01    0.74       0.0  T
   2   -185.3371197 -0.526393E-04  0.132E-01    0.74       1.0  T
   3   -185.3369074  0.212255E-03  0.542E-02    0.74       1.0  T
   4   -185.3371541 -0.246665E-03  0.144E-02    0.74       1.0  T
   5   -185.3371555 -0.142032E-05  0.833E-03    0.74       1.3  T
   6   -185.3371601 -0.463450E-05  0.270E-03    0.74       4.0  T
   7   -185.3371606 -0.461208E-06  0.124E-03    0.74       8.8  T
   8   -185.3371606 -0.411042E-07  0.779E-04    0.74      13.9  T
     SCC iter.                  ...        0 min,  0.089 sec
     gradient                   ...        0 min,  0.018 sec
 * total energy  :  -182.1286046 Eh     change        0.4216766E-04 Eh
   gradient norm :     0.0275809 Eh/α   predicted    -0.8865819E-03 (*******%)
   displ. norm   :     0.2746128 α      lambda       -0.1793583E-02
   maximum displ.:     0.0989010 α      in ANC's #16, #18, #22, ...

........................................................................
.............................. CYCLE   13 ..............................
........................................................................
   1   -185.3353665 -0.185335E+03  0.162E-01    0.74       0.0  T
   2   -185.3353901 -0.235795E-04  0.889E-02    0.74       1.0  T
   3   -185.3352587  0.131365E-03  0.429E-02    0.75       1.0  T
   4   -185.3354122 -0.153522E-03  0.703E-03    0.74       1.5  T
   5   -185.3354118  0.428370E-06  0.469E-03    0.74       2.3  T
   6   -185.3354133 -0.152912E-05  0.135E-03    0.74       8.1  T
     SCC iter.                  ...        0 min,  0.065 sec
     gradient                   ...        0 min,  0.018 sec
 * total energy  :  -182.1295789 Eh     change       -0.9743529E-03 Eh
   gradient norm :     0.0167311 Eh/α   predicted    -0.9644212E-03 (  -1.02%)
   displ. norm   :     0.3831262 α      lambda       -0.1333360E-02
   maximum displ.:     0.1480795 α      in ANC's #18, #25, #2, ...

........................................................................
.............................. CYCLE   14 ..............................
........................................................................
   1   -185.3320933 -0.185332E+03  0.229E-01    0.74       0.0  T
   2   -185.3321434 -0.501757E-04  0.126E-01    0.74       1.0  T
   3   -185.3319396  0.203795E-03  0.543E-02    0.75       1.0  T
   4   -185.3321796 -0.239922E-03  0.107E-02    0.74       1.0  T
   5   -185.3321808 -0.125378E-05  0.706E-03    0.75       1.5  T
   6   -185.3321840 -0.320905E-05  0.228E-03    0.74       4.8  T
   7   -185.3321843 -0.257292E-06  0.106E-03    0.75      10.2  T
   8   -185.3321843 -0.257411E-07  0.663E-04    0.74      16.3  T
     SCC iter.                  ...        0 min,  0.088 sec
     gradient                   ...        0 min,  0.019 sec
 * total energy  :  -182.1290856 Eh     change        0.4933044E-03 Eh
   gradient norm :     0.0246159 Eh/α   predicted    -0.7645415E-03 (-254.98%)
   displ. norm   :     0.2477464 α      lambda       -0.2190478E-02
   maximum displ.:     0.0961202 α      in ANC's #37, #16, #6, ...

........................................................................
.............................. CYCLE   15 ..............................
........................................................................
   1   -185.3356678 -0.185336E+03  0.183E-01    0.75       0.0  T
   2   -185.3357016 -0.337625E-04  0.101E-01    0.75       1.0  T
   3   -185.3356033  0.982566E-04  0.372E-02    0.74       1.0  T
   4   -185.3357245 -0.121161E-03  0.601E-03    0.75       1.8  T
   5   -185.3357246 -0.161368E-06  0.395E-03    0.75       2.7  T
   6   -185.3357256 -0.980056E-06  0.131E-03    0.75       8.3  T
     SCC iter.                  ...        0 min,  0.065 sec
     gradient                   ...        0 min,  0.018 sec
 * total energy  :  -182.1301495 Eh     change       -0.1063820E-02 Eh
   gradient norm :     0.0181383 Eh/α   predicted    -0.1162465E-02 (   9.27%)
   displ. norm   :     0.3166076 α      lambda       -0.1115437E-02
   maximum displ.:     0.1151419 α      in ANC's #16, #28, #18, ...

........................................................................
.............................. CYCLE   16 ..............................
........................................................................
   1   -185.3363508 -0.185336E+03  0.191E-01    0.75       0.0  T
   2   -185.3363853 -0.344280E-04  0.106E-01    0.75       1.0  T
   3   -185.3360904  0.294844E-03  0.631E-02    0.75       1.0  T
   4   -185.3364303 -0.339863E-03  0.880E-03    0.75       1.2  T
   5   -185.3364304 -0.647886E-07  0.643E-03    0.75       1.7  T
   6   -185.3364329 -0.259089E-05  0.192E-03    0.75       5.6  T
   7   -185.3364331 -0.136100E-06  0.895E-04    0.75      12.1  T
     SCC iter.                  ...        0 min,  0.076 sec
     gradient                   ...        0 min,  0.018 sec
 * total energy  :  -182.1296945 Eh     change        0.4549136E-03 Eh
   gradient norm :     0.0304163 Eh/α   predicted    -0.6136267E-03 (-234.89%)
   displ. norm   :     0.2359986 α      lambda       -0.1956220E-02
   maximum displ.:     0.0961388 α      in ANC's #30, #2, #6, ...

........................................................................
.............................. CYCLE   17 ..............................
........................................................................
   1   -185.3348076 -0.185335E+03  0.181E-01    0.75       0.0  T
   2   -185.3348438 -0.362108E-04  0.100E-01    0.75       1.0  T
   3   -185.3347334  0.110446E-03  0.411E-02    0.75       1.0  T
   4   -185.3348696 -0.136225E-03  0.554E-03    0.75       2.0  T
   5   -185.3348696 -0.262387E-07  0.392E-03    0.75       2.8  T
   6   -185.3348706 -0.994986E-06  0.134E-03    0.75       8.1  T
     SCC iter.                  ...        0 min,  0.066 sec
     gradient                   ...        0 min,  0.018 sec
 * total energy  :  -182.1303732 Eh     change       -0.6786328E-03 Eh
   gradient norm :     0.0238963 Eh/α   predicted    -0.1032593E-02 (  52.16%)
   displ. norm   :     0.2825562 α      lambda       -0.1835308E-02
   maximum displ.:     0.1216415 α      in ANC's #41, #40, #25, ...

........................................................................
.............................. CYCLE   18 ..............................
........................................................................
   1   -185.3355218 -0.185336E+03  0.224E-01    0.75       0.0  T
   2   -185.3355869 -0.651156E-04  0.124E-01    0.75       1.0  T
   3   -185.3353144  0.272592E-03  0.623E-02    0.76       1.0  T
   4   -185.3356374 -0.323067E-03  0.809E-03    0.75       1.3  T
   5   -185.3356404 -0.294061E-05  0.478E-03    0.75       2.3  T
   6   -185.3356414 -0.107991E-05  0.209E-03    0.75       5.2  T
     SCC iter.                  ...        0 min,  0.066 sec
     gradient                   ...        0 min,  0.018 sec
 * total energy  :  -182.1299381 Eh     change        0.4350390E-03 Eh
   gradient norm :     0.0436957 Eh/α   predicted    -0.9909265E-03 (-327.78%)
   displ. norm   :     0.1812812 α      lambda       -0.1800929E-02
   maximum displ.:     0.0603796 α      in ANC's #6, #28, #14, ...

........................................................................
.............................. CYCLE   19 ..............................
........................................................................
   1   -185.3406416 -0.185341E+03  0.130E-01    0.75       0.0  T
   2   -185.3406602 -0.185848E-04  0.727E-02    0.75       1.0  T
   3   -185.3405187  0.141550E-03  0.432E-02    0.75       1.0  T
   4   -185.3406825 -0.163779E-03  0.512E-03    0.75       2.1  T
   5   -185.3406829 -0.410678E-06  0.348E-03    0.75       3.1  T
   6   -185.3406835 -0.639661E-06  0.134E-03    0.75       8.1  T
     SCC iter.                  ...        0 min,  0.066 sec
     gradient                   ...        0 min,  0.018 sec
 * total energy  :  -182.1309070 Eh     change       -0.9688804E-03 Eh
   gradient norm :     0.0105805 Eh/α   predicted    -0.9300563E-03 (  -4.01%)
   displ. norm   :     0.3361954 α      lambda       -0.1054590E-02
   maximum displ.:     0.1360841 α      in ANC's #2, #16, #42, ...

........................................................................
.............................. CYCLE   20 ..............................
........................................................................
   1   -185.3323008 -0.185332E+03  0.238E-01    0.75       0.0  T
   2   -185.3323581 -0.572801E-04  0.132E-01    0.75       1.0  T
   3   -185.3320089  0.349204E-03  0.666E-02    0.76       1.0  T
   4   -185.3324134 -0.404505E-03  0.816E-03    0.75       1.3  T
   5   -185.3324133  0.104217E-06  0.613E-03    0.76       1.8  T
   6   -185.3324157 -0.240427E-05  0.197E-03    0.75       5.5  T
   7   -185.3324158 -0.118804E-06  0.105E-03    0.75      10.3  T
     SCC iter.                  ...        0 min,  0.075 sec
     gradient                   ...        0 min,  0.018 sec
 * total energy  :  -182.1295149 Eh     change        0.1392065E-02 Eh
   gradient norm :     0.0443957 Eh/α   predicted    -0.5868920E-03 (-142.16%)
   displ. norm   :     0.1886003 α      lambda       -0.3345491E-02
   maximum displ.:     0.0764219 α      in ANC's #6, #15, #42, ...
 * RMSD in coord.:     0.4262146 α      energy gain  -0.4206619E-01 Eh

generating ANC from model Hessian ...
Using Lindh-Hessian (1995)
 Shifting diagonal of input Hessian by   5.009869067221548E-003
 Lowest  eigenvalues of input Hessian
    0.005000   -0.000000   -0.000000   -0.000000    0.000000    0.000000
    0.000000    0.005013    0.005035    0.005066    0.005125    0.005155
    0.005233    0.005283    0.005343    0.005390    0.005491    0.005582
 Highest eigenvalues
    2.596527    2.654659    2.662293    2.664078    2.665965    2.673221
 

........................................................................
.............................. CYCLE   21 ..............................
........................................................................
   1   -185.3389447 -0.185339E+03  0.173E-01    0.76       0.0  T
   2   -185.3389830 -0.383417E-04  0.957E-02    0.75       1.0  T
   3   -185.3389369  0.461610E-04  0.285E-02    0.76       1.0  T
   4   -185.3390015 -0.646148E-04  0.459E-03    0.76       2.4  T
   5   -185.3390022 -0.706213E-06  0.282E-03    0.75       3.8  T
   6   -185.3390025 -0.304031E-06  0.139E-03    0.76       7.8  T
   7   -185.3390026 -0.904048E-07  0.513E-04    0.75      21.1  T
   8   -185.3390026 -0.931905E-08  0.264E-04    0.76      41.1  T
     SCC iter.                  ...        0 min,  0.087 sec
     gradient                   ...        0 min,  0.020 sec
 * total energy  :  -182.1312444 Eh     change       -0.1729450E-02 Eh
   gradient norm :     0.0061822 Eh/α   predicted     0.0000000E+00 (-100.00%)
   displ. norm   :     0.1635172 α      lambda       -0.2215962E-03
   maximum displ.:     0.0647476 α      in ANC's #2, #6, #20, ...

........................................................................
.............................. CYCLE   22 ..............................
........................................................................
   1   -185.3411119 -0.185341E+03  0.604E-02    0.76       0.0  T
   2   -185.3411150 -0.304226E-05  0.333E-02    0.76       1.0  T
   3   -185.3410965  0.184515E-04  0.155E-02    0.76       1.0  T
   4   -185.3411176 -0.210783E-04  0.314E-03    0.76       3.5  T
   5   -185.3411177 -0.119810E-06  0.175E-03    0.76       6.2  T
   6   -185.3411179 -0.159043E-06  0.754E-04    0.76      14.4  T
     SCC iter.                  ...        0 min,  0.065 sec
     gradient                   ...        0 min,  0.019 sec
 * total energy  :  -182.1314100 Eh     change       -0.1656467E-03 Eh
   gradient norm :     0.0035141 Eh/α   predicted    -0.1137991E-03 ( -31.30%)
   displ. norm   :     0.2188528 α      lambda       -0.3167615E-03
   maximum displ.:     0.0909569 α      in ANC's #20, #2, #8, ...

........................................................................
.............................. CYCLE   23 ..............................
........................................................................
   1   -185.3444041 -0.185344E+03  0.880E-02    0.76       0.0  T
   2   -185.3444117 -0.758391E-05  0.483E-02    0.76       1.0  T
   3   -185.3443815  0.301934E-04  0.202E-02    0.76       1.0  T
   4   -185.3444163 -0.348198E-04  0.511E-03    0.76       2.1  T
   5   -185.3444169 -0.580413E-06  0.273E-03    0.76       4.0  T
   6   -185.3444173 -0.341781E-06  0.109E-03    0.76      10.0  T
   7   -185.3444173 -0.676507E-07  0.475E-04    0.76      22.8  T
   8   -185.3444173 -0.570793E-08  0.272E-04    0.76      39.9  T
     SCC iter.                  ...        0 min,  0.086 sec
     gradient                   ...        0 min,  0.019 sec
 * total energy  :  -182.1315283 Eh     change       -0.1182414E-03 Eh
   gradient norm :     0.0109040 Eh/α   predicted    -0.1659676E-03 (  40.36%)
   displ. norm   :     0.3021693 α      lambda       -0.4223212E-03
   maximum displ.:     0.1276097 α      in ANC's #6, #20, #8, ...

........................................................................
.............................. CYCLE   24 ..............................
........................................................................
   1   -185.3445337 -0.185345E+03  0.121E-01    0.76       0.0  T
   2   -185.3445477 -0.140419E-04  0.664E-02    0.76       1.0  T
   3   -185.3444617  0.859669E-04  0.338E-02    0.76       1.0  T
   4   -185.3445597 -0.980092E-04  0.717E-03    0.76       1.5  T
   5   -185.3445610 -0.129048E-05  0.406E-03    0.76       2.7  T
   6   -185.3445618 -0.804648E-06  0.162E-03    0.76       6.7  T
   7   -185.3445620 -0.129656E-06  0.689E-04    0.76      15.7  T
     SCC iter.                  ...        0 min,  0.075 sec
     gradient                   ...        0 min,  0.019 sec
 * total energy  :  -182.1317038 Eh     change       -0.1754657E-03 Eh
   gradient norm :     0.0099889 Eh/α   predicted    -0.2304404E-03 (  31.33%)
   displ. norm   :     0.4666358 α      lambda       -0.8242627E-03
   maximum displ.:     0.1994862 α      in ANC's #2, #20, #8, ...

........................................................................
.............................. CYCLE   25 ..............................
........................................................................
   1   -185.3421510 -0.185342E+03  0.176E-01    0.76       0.0  T
   2   -185.3421798 -0.287980E-04  0.964E-02    0.77       1.0  T
   3   -185.3419720  0.207758E-03  0.530E-02    0.76       1.0  T
   4   -185.3422075 -0.235450E-03  0.123E-02    0.77       1.0  T
   5   -185.3422111 -0.358918E-05  0.687E-03    0.77       1.6  T
   6   -185.3422133 -0.225259E-05  0.279E-03    0.76       3.9  T
   7   -185.3422137 -0.398200E-06  0.111E-03    0.76       9.8  T
     SCC iter.                  ...        0 min,  0.075 sec
     gradient                   ...        0 min,  0.019 sec
 * total energy  :  -182.1320825 Eh     change       -0.3787767E-03 Eh
   gradient norm :     0.0100151 Eh/α   predicted    -0.5018767E-03 (  32.50%)
   displ. norm   :     0.3881639 α      lambda       -0.5171588E-03
   maximum displ.:     0.1688575 α      in ANC's #2, #8, #6, ...

........................................................................
.............................. CYCLE   26 ..............................
........................................................................
   1   -185.3392709 -0.185339E+03  0.148E-01    0.76       0.0  T
   2   -185.3392912 -0.203204E-04  0.804E-02    0.76       1.0  T
   3   -185.3391549  0.136328E-03  0.426E-02    0.76       1.0  T
   4   -185.3393097 -0.154801E-03  0.100E-02    0.76       1.1  T
   5   -185.3393124 -0.266934E-05  0.537E-03    0.76       2.0  T
   6   -185.3393137 -0.129886E-05  0.242E-03    0.76       4.5  T
   7   -185.3393140 -0.365682E-06  0.985E-04    0.76      11.0  T
     SCC iter.                  ...        0 min,  0.075 sec
     gradient                   ...        0 min,  0.018 sec
 * total energy  :  -182.1324204 Eh     change       -0.3379071E-03 Eh
   gradient norm :     0.0105016 Eh/α   predicted    -0.2975408E-03 ( -11.95%)
   displ. norm   :     0.5061842 α      lambda       -0.5972268E-03
   maximum displ.:     0.2407909 α      in ANC's #2, #8, #6, ...

........................................................................
.............................. CYCLE   27 ..............................
........................................................................
   1   -185.3401644 -0.185340E+03  0.179E-01    0.76       0.0  T
   2   -185.3401937 -0.293467E-04  0.962E-02    0.77       1.0  T
   3   -185.3400312  0.162524E-03  0.477E-02    0.76       1.0  T
   4   -185.3402130 -0.181778E-03  0.137E-02    0.77       1.0  T
   5   -185.3402192 -0.626498E-05  0.674E-03    0.77       1.6  T
   6   -185.3402211 -0.187087E-05  0.296E-03    0.77       3.7  T
   7   -185.3402216 -0.514435E-06  0.109E-03    0.77       9.9  T
     SCC iter.                  ...        0 min,  0.075 sec
     gradient                   ...        0 min,  0.019 sec
 * total energy  :  -182.1326560 Eh     change       -0.2355865E-03 Eh
   gradient norm :     0.0116844 Eh/α   predicted    -0.3751257E-03 (  59.23%)
   displ. norm   :     0.4305370 α      lambda       -0.7482754E-03
   maximum displ.:     0.2137871 α      in ANC's #2, #8, #6, ...

........................................................................
.............................. CYCLE   28 ..............................
........................................................................
   1   -185.3414799 -0.185341E+03  0.173E-01    0.77       0.0  T
   2   -185.3415113 -0.314217E-04  0.925E-02    0.77       1.0  T
   3   -185.3414250  0.862471E-04  0.359E-02    0.76       1.0  T
   4   -185.3415235 -0.984970E-04  0.118E-02    0.77       1.0  T
   5   -185.3415295 -0.599690E-05  0.535E-03    0.77       2.0  T
   6   -185.3415306 -0.103711E-05  0.259E-03    0.77       4.2  T
   7   -185.3415310 -0.460452E-06  0.938E-04    0.77      11.6  T
     SCC iter.                  ...        0 min,  0.081 sec
     gradient                   ...        0 min,  0.019 sec
 * total energy  :  -182.1329533 Eh     change       -0.2973272E-03 Eh
   gradient norm :     0.0197503 Eh/α   predicted    -0.4434887E-03 (  49.16%)
   displ. norm   :     0.3473224 α      lambda       -0.6047722E-03
   maximum displ.:     0.1743497 α      in ANC's #2, #8, #6, ...

........................................................................
.............................. CYCLE   29 ..............................
........................................................................
   1   -185.3426670 -0.185343E+03  0.125E-01    0.77       0.0  T
   2   -185.3426840 -0.170475E-04  0.677E-02    0.77       1.0  T
   3   -185.3426091  0.749331E-04  0.325E-02    0.77       1.0  T
   4   -185.3426922 -0.831199E-04  0.102E-02    0.77       1.1  T
   5   -185.3426965 -0.435059E-05  0.478E-03    0.77       2.3  T
   6   -185.3426973 -0.793573E-06  0.234E-03    0.77       4.6  T
   7   -185.3426977 -0.393155E-06  0.795E-04    0.77      13.6  T
     SCC iter.                  ...        0 min,  0.075 sec
     gradient                   ...        0 min,  0.018 sec
 * total energy  :  -182.1333178 Eh     change       -0.3644416E-03 Eh
   gradient norm :     0.0110988 Eh/α   predicted    -0.3388647E-03 (  -7.02%)
   displ. norm   :     0.4456070 α      lambda       -0.7799183E-03
   maximum displ.:     0.2436995 α      in ANC's #2, #8, #6, ...

........................................................................
.............................. CYCLE   30 ..............................
........................................................................
   1   -185.3460422 -0.185346E+03  0.181E-01    0.77       0.0  T
   2   -185.3460766 -0.343959E-04  0.978E-02    0.77       1.0  T
   3   -185.3459771  0.994572E-04  0.386E-02    0.77       1.0  T
   4   -185.3460910 -0.113925E-03  0.122E-02    0.77       1.0  T
   5   -185.3460966 -0.551725E-05  0.612E-03    0.77       1.8  T
   6   -185.3460982 -0.166599E-05  0.293E-03    0.77       3.7  T
   7   -185.3460988 -0.581480E-06  0.102E-03    0.77      10.7  T
     SCC iter.                  ...        0 min,  0.076 sec
     gradient                   ...        0 min,  0.018 sec
 * total energy  :  -182.1333489 Eh     change       -0.3115893E-04 Eh
   gradient norm :     0.0270306 Eh/α   predicted    -0.4673918E-03 (1400.02%)
   displ. norm   :     0.3344725 α      lambda       -0.9320857E-03
   maximum displ.:     0.1827563 α      in ANC's #2, #8, #6, ...

........................................................................
.............................. CYCLE   31 ..............................
........................................................................
   1   -185.3474607 -0.185347E+03  0.138E-01    0.77       0.0  T
   2   -185.3474810 -0.202972E-04  0.748E-02    0.77       1.0  T
   3   -185.3474500  0.310768E-04  0.230E-02    0.77       1.0  T
   4   -185.3474860 -0.360679E-04  0.912E-03    0.77       1.2  T
   5   -185.3474901 -0.403811E-05  0.412E-03    0.77       2.6  T
   6   -185.3474908 -0.753585E-06  0.185E-03    0.77       5.9  T
     SCC iter.                  ...        0 min,  0.067 sec
     gradient                   ...        0 min,  0.018 sec
 * total energy  :  -182.1338768 Eh     change       -0.5278877E-03 Eh
   gradient norm :     0.0127672 Eh/α   predicted    -0.5181884E-03 (  -1.84%)
   displ. norm   :     0.4478190 α      lambda       -0.1017555E-02
   maximum displ.:     0.2430940 α      in ANC's #2, #8, #6, ...

........................................................................
.............................. CYCLE   32 ..............................
........................................................................
   1   -185.3383881 -0.185338E+03  0.220E-01    0.78       0.0  T
   2   -185.3384348 -0.466923E-04  0.121E-01    0.78       1.0  T
   3   -185.3382142  0.220607E-03  0.550E-02    0.76       1.0  T
   4   -185.3384717 -0.257492E-03  0.113E-02    0.77       1.0  T
   5   -185.3384749 -0.315802E-05  0.621E-03    0.77       1.7  T
   6   -185.3384765 -0.163036E-05  0.276E-03    0.77       3.9  T
   7   -185.3384769 -0.427613E-06  0.109E-03    0.77       9.9  T
     SCC iter.                  ...        0 min,  0.075 sec
     gradient                   ...        0 min,  0.018 sec
 * total energy  :  -182.1334689 Eh     change        0.4079135E-03 Eh
   gradient norm :     0.0301451 Eh/α   predicted    -0.6108099E-03 (-249.74%)
   displ. norm   :     0.2383668 α      lambda       -0.1750553E-02
   maximum displ.:     0.1120473 α      in ANC's #2, #8, #6, ...

........................................................................
.............................. CYCLE   33 ..............................
........................................................................
   1   -185.3463869 -0.185346E+03  0.145E-01    0.77       0.0  T
   2   -185.3464108 -0.238601E-04  0.802E-02    0.77       1.0  T
   3   -185.3463344  0.763377E-04  0.342E-02    0.78       1.0  T
   4   -185.3464265 -0.920422E-04  0.626E-03    0.77       1.7  T
   5   -185.3464275 -0.104381E-05  0.381E-03    0.77       2.8  T
   6   -185.3464282 -0.685642E-06  0.174E-03    0.77       6.2  T
     SCC iter.                  ...        0 min,  0.065 sec
     gradient                   ...        0 min,  0.018 sec
 * total energy  :  -182.1344073 Eh     change       -0.9383981E-03 Eh
   gradient norm :     0.0084581 Eh/α   predicted    -0.9250090E-03 (  -1.43%)
   displ. norm   :     0.4413102 α      lambda       -0.5846128E-03
   maximum displ.:     0.2665752 α      in ANC's #2, #8, #6, ...

........................................................................
.............................. CYCLE   34 ..............................
........................................................................
   1   -185.3445388 -0.185345E+03  0.170E-01    0.77       0.0  T
   2   -185.3445673 -0.284784E-04  0.909E-02    0.77       1.0  T
   3   -185.3445142  0.530797E-04  0.287E-02    0.77       1.0  T
   4   -185.3445743 -0.601136E-04  0.118E-02    0.77       1.0  T
   5   -185.3445806 -0.631126E-05  0.501E-03    0.77       2.2  T
   6   -185.3445815 -0.869736E-06  0.226E-03    0.77       4.8  T
   7   -185.3445819 -0.365356E-06  0.826E-04    0.77      13.1  T
     SCC iter.                  ...        0 min,  0.077 sec
     gradient                   ...        0 min,  0.018 sec
 * total energy  :  -182.1345611 Eh     change       -0.1537492E-03 Eh
   gradient norm :     0.0140692 Eh/α   predicted    -0.3492384E-03 ( 127.15%)
   displ. norm   :     0.4878423 α      lambda       -0.7834088E-03
   maximum displ.:     0.2994387 α      in ANC's #2, #8, #6, ...

........................................................................
.............................. CYCLE   35 ..............................
........................................................................
   1   -185.3460831 -0.185346E+03  0.161E-01    0.77       0.0  T
   2   -185.3461074 -0.243261E-04  0.861E-02    0.77       1.0  T
   3   -185.3460664  0.409757E-04  0.273E-02    0.77       1.0  T
   4   -185.3461135 -0.470502E-04  0.115E-02    0.77       1.0  T
   5   -185.3461179 -0.442449E-05  0.528E-03    0.77       2.1  T
   6   -185.3461192 -0.132626E-05  0.218E-03    0.77       5.0  T
   7   -185.3461196 -0.348574E-06  0.824E-04    0.77      13.2  T
     SCC iter.                  ...        0 min,  0.075 sec
     gradient                   ...        0 min,  0.018 sec
 * total energy  :  -182.1351424 Eh     change       -0.5813449E-03 Eh
   gradient norm :     0.0079545 Eh/α   predicted    -0.4849300E-03 ( -16.58%)
   displ. norm   :     0.7049808 α      lambda       -0.7012387E-03
   maximum displ.:     0.4367325 α      in ANC's #2, #8, #6, ...

........................................................................
.............................. CYCLE   36 ..............................
........................................................................
   1   -185.3431632 -0.185343E+03  0.216E-01    0.77       0.0  T
   2   -185.3432055 -0.423109E-04  0.115E-01    0.78       1.0  T
   3   -185.3431682  0.373666E-04  0.311E-02    0.77       1.0  T
   4   -185.3432081 -0.399585E-04  0.174E-02    0.78       1.0  T
   5   -185.3432176 -0.944021E-05  0.856E-03    0.77       1.3  T
   6   -185.3432220 -0.446815E-05  0.256E-03    0.77       4.2  T
   7   -185.3432225 -0.441904E-06  0.118E-03    0.77       9.2  T
   8   -185.3432225 -0.204809E-07  0.640E-04    0.77      16.9  T
     SCC iter.                  ...        0 min,  0.087 sec
     gradient                   ...        0 min,  0.018 sec
 * total energy  :  -182.1356095 Eh     change       -0.4670462E-03 Eh
   gradient norm :     0.0121189 Eh/α   predicted    -0.5248863E-03 (  12.38%)
   displ. norm   :     0.6653498 α      lambda       -0.1043000E-02
   maximum displ.:     0.3524656 α      in ANC's #2, #8, #9, ...

........................................................................
.............................. CYCLE   37 ..............................
........................................................................
   1   -185.3669201 -0.185367E+03  0.215E-01    0.78       0.0  T
   2   -185.3669677 -0.475973E-04  0.118E-01    0.78       1.0  T
   3   -185.3667591  0.208598E-03  0.487E-02    0.78       1.0  T
   4   -185.3669937 -0.234527E-03  0.145E-02    0.78       1.0  T
   5   -185.3670005 -0.681522E-05  0.801E-03    0.78       1.4  T
   6   -185.3670033 -0.285003E-05  0.278E-03    0.78       3.9  T
   7   -185.3670038 -0.494592E-06  0.116E-03    0.78       9.3  T
     SCC iter.                  ...        0 min,  0.076 sec
     gradient                   ...        0 min,  0.018 sec
 * total energy  :  -182.1353799 Eh     change        0.2295502E-03 Eh
   gradient norm :     0.0283450 Eh/α   predicted    -0.7523694E-03 (-427.76%)
   displ. norm   :     0.3666155 α      lambda       -0.1735053E-02
   maximum displ.:     0.1976801 α      in ANC's #2, #8, #6, ...

........................................................................
.............................. CYCLE   38 ..............................
........................................................................
   1   -185.3485918 -0.185349E+03  0.151E-01    0.77       0.0  T
   2   -185.3486132 -0.214388E-04  0.833E-02    0.77       1.0  T
   3   -185.3484799  0.133259E-03  0.394E-02    0.78       1.0  T
   4   -185.3486300 -0.150115E-03  0.974E-03    0.77       1.1  T
   5   -185.3486334 -0.332560E-05  0.528E-03    0.77       2.1  T
   6   -185.3486344 -0.102631E-05  0.205E-03    0.77       5.3  T
     SCC iter.                  ...        0 min,  0.066 sec
     gradient                   ...        0 min,  0.018 sec
 * total energy  :  -182.1363933 Eh     change       -0.1013412E-02 Eh
   gradient norm :     0.0107107 Eh/α   predicted    -0.9841320E-03 (  -2.89%)
   displ. norm   :     0.6313183 α      lambda       -0.7573251E-03
   maximum displ.:     0.3949566 α      in ANC's #2, #8, #6, ...

........................................................................
.............................. CYCLE   39 ..............................
........................................................................
   1   -185.3384102 -0.185338E+03  0.209E-01    0.77       0.0  T
   2   -185.3384636 -0.533617E-04  0.112E-01    0.77       1.0  T
   3   -185.3383051  0.158471E-03  0.479E-02    0.77       1.0  T
   4   -185.3384870 -0.181879E-03  0.177E-02    0.77       1.0  T
   5   -185.3384936 -0.667246E-05  0.924E-03    0.77       1.2  T
   6   -185.3384975 -0.382366E-05  0.329E-03    0.77       3.3  T
   7   -185.3384983 -0.796300E-06  0.134E-03    0.77       8.1  T
   8   -185.3384983 -0.384453E-07  0.786E-04    0.77      13.8  T
     SCC iter.                  ...        0 min,  0.087 sec
     gradient                   ...        0 min,  0.018 sec
 * total energy  :  -182.1367056 Eh     change       -0.3122878E-03 Eh
   gradient norm :     0.0185692 Eh/α   predicted    -0.5295878E-03 (  69.58%)
   displ. norm   :     0.4961743 α      lambda       -0.7695743E-03
   maximum displ.:     0.3173038 α      in ANC's #2, #8, #9, ...

........................................................................
.............................. CYCLE   40 ..............................
........................................................................
   1   -185.3392922 -0.185339E+03  0.134E-01    0.77       0.0  T
   2   -185.3393216 -0.293818E-04  0.734E-02    0.77       1.0  T
   3   -185.3391968  0.124823E-03  0.388E-02    0.77       1.0  T
   4   -185.3393389 -0.142106E-03  0.106E-02    0.77       1.0  T
   5   -185.3393432 -0.432965E-05  0.509E-03    0.77       2.1  T
   6   -185.3393439 -0.687729E-06  0.230E-03    0.77       4.7  T
   7   -185.3393443 -0.359328E-06  0.629E-04    0.77      17.3  T
     SCC iter.                  ...        0 min,  0.077 sec
     gradient                   ...        0 min,  0.018 sec
 * total energy  :  -182.1371814 Eh     change       -0.4757419E-03 Eh
   gradient norm :     0.0100461 Eh/α   predicted    -0.4795162E-03 (   0.79%)
   displ. norm   :     0.4499908 α      lambda       -0.7245769E-03
   maximum displ.:     0.2721902 α      in ANC's #2, #8, #9, ...

........................................................................
.............................. CYCLE   41 ..............................
........................................................................
   1   -185.3456064 -0.185346E+03  0.133E-01    0.77       0.0  T
   2   -185.3456216 -0.151992E-04  0.722E-02    0.77       1.0  T
   3   -185.3455460  0.756521E-04  0.296E-02    0.78       1.0  T
   4   -185.3456311 -0.850920E-04  0.817E-03    0.78       1.3  T
   5   -185.3456324 -0.129664E-05  0.456E-03    0.77       2.4  T
   6   -185.3456336 -0.128100E-05  0.146E-03    0.78       7.4  T
   7   -185.3456338 -0.142981E-06  0.659E-04    0.77      16.5  T
     SCC iter.                  ...        0 min,  0.076 sec
     gradient                   ...        0 min,  0.018 sec
 * total energy  :  -182.1376450 Eh     change       -0.4636131E-03 Eh
   gradient norm :     0.0122491 Eh/α   predicted    -0.4356581E-03 (  -6.03%)
   displ. norm   :     0.7033516 α      lambda       -0.6831985E-03
   maximum displ.:     0.4433961 α      in ANC's #2, #8, #9, ...

........................................................................
.............................. CYCLE   42 ..............................
........................................................................
   1   -185.3465156 -0.185347E+03  0.202E-01    0.77       0.0  T
   2   -185.3465444 -0.287973E-04  0.107E-01    0.78       1.0  T
   3   -185.3465216  0.227596E-04  0.246E-02    0.77       1.0  T
   4   -185.3465411 -0.194573E-04  0.157E-02    0.78       1.0  T
   5   -185.3465526 -0.114897E-04  0.528E-03    0.77       2.1  T
   6   -185.3465551 -0.253756E-05  0.142E-03    0.78       7.7  T
   7   -185.3465552 -0.892261E-07  0.839E-04    0.77      12.9  T
     SCC iter.                  ...        0 min,  0.077 sec
     gradient                   ...        0 min,  0.018 sec
 * total energy  :  -182.1381940 Eh     change       -0.5489942E-03 Eh
   gradient norm :     0.0096075 Eh/α   predicted    -0.5105894E-03 (  -7.00%)
   displ. norm   :     0.7408025 α      lambda       -0.7740018E-03
   maximum displ.:     0.4810233 α      in ANC's #2, #8, #9, ...
 * RMSD in coord.:     0.9531774 α      energy gain  -0.8679013E-02 Eh

generating ANC from model Hessian ...
Using Lindh-Hessian (1995)
 Shifting diagonal of input Hessian by   5.009053856741681E-003
 Lowest  eigenvalues of input Hessian
    0.005000   -0.000000   -0.000000    0.000000    0.000000    0.000000
    0.000000    0.005014    0.005039    0.005060    0.005097    0.005149
    0.005235    0.005274    0.005320    0.005374    0.005450    0.005465
 Highest eigenvalues
    2.598222    2.653220    2.654654    2.667577    2.668073    2.673453
 

........................................................................
.............................. CYCLE   43 ..............................
........................................................................
   1   -185.3437061 -0.185344E+03  0.228E-01    0.78       0.0  T
   2   -185.3437548 -0.486791E-04  0.122E-01    0.78       1.0  T
   3   -185.3436352  0.119546E-03  0.414E-02    0.77       1.0  T
   4   -185.3437703 -0.135055E-03  0.166E-02    0.78       1.0  T
   5   -185.3437770 -0.666485E-05  0.864E-03    0.78       1.3  T
   6   -185.3437818 -0.486497E-05  0.281E-03    0.78       3.9  T
   7   -185.3437824 -0.559577E-06  0.119E-03    0.78       9.1  T
   8   -185.3437824 -0.205259E-07  0.775E-04    0.78      14.0  T
   9   -185.3437824 -0.227675E-07  0.308E-04    0.78      35.2  T
     SCC iter.                  ...        0 min,  0.098 sec
     gradient                   ...        0 min,  0.019 sec
 * total energy  :  -182.1387022 Eh     change       -0.5082363E-03 Eh
   gradient norm :     0.0134965 Eh/α   predicted     0.0000000E+00 (-100.00%)
   displ. norm   :     0.1942050 α      lambda       -0.5067069E-03
   maximum displ.:     0.0658899 α      in ANC's #4, #10, #17, ...

........................................................................
.............................. CYCLE   44 ..............................
........................................................................
   1   -185.3463204 -0.185346E+03  0.150E-01    0.77       0.0  T
   2   -185.3463436 -0.231610E-04  0.798E-02    0.77       1.0  T
   3   -185.3463206  0.230021E-04  0.217E-02    0.77       1.0  T
   4   -185.3463530 -0.324239E-04  0.720E-03    0.77       1.5  T
   5   -185.3463534 -0.387768E-06  0.413E-03    0.77       2.6  T
   6   -185.3463547 -0.129092E-05  0.157E-03    0.77       6.9  T
   7   -185.3463549 -0.198558E-06  0.581E-04    0.77      18.7  T
     SCC iter.                  ...        0 min,  0.077 sec
     gradient                   ...        0 min,  0.018 sec
 * total energy  :  -182.1386419 Eh     change        0.6030962E-04 Eh
   gradient norm :     0.0107691 Eh/α   predicted    -0.2629090E-03 (-535.93%)
   displ. norm   :     0.1729730 α      lambda       -0.9002082E-03
   maximum displ.:     0.0837054 α      in ANC's #4, #17, #31, ...

........................................................................
.............................. CYCLE   45 ..............................
........................................................................
   1   -185.3548181 -0.185355E+03  0.144E-01    0.77       0.0  T
   2   -185.3548402 -0.221360E-04  0.771E-02    0.77       1.0  T
   3   -185.3548093  0.309814E-04  0.229E-02    0.78       1.0  T
   4   -185.3548497 -0.404947E-04  0.718E-03    0.77       1.5  T
   5   -185.3548508 -0.100637E-05  0.389E-03    0.77       2.8  T
   6   -185.3548517 -0.946054E-06  0.136E-03    0.77       8.0  T
   7   -185.3548518 -0.119824E-06  0.522E-04    0.77      20.8  T
     SCC iter.                  ...        0 min,  0.075 sec
     gradient                   ...        0 min,  0.018 sec
 * total energy  :  -182.1389907 Eh     change       -0.3488023E-03 Eh
   gradient norm :     0.0136695 Eh/α   predicted    -0.4635738E-03 (  32.90%)
   displ. norm   :     0.1384460 α      lambda       -0.3900898E-03
   maximum displ.:     0.0415243 α      in ANC's #2, #20, #10, ...

........................................................................
.............................. CYCLE   46 ..............................
........................................................................
   1   -185.3504092 -0.185350E+03  0.108E-01    0.78       0.0  T
   2   -185.3504206 -0.113655E-04  0.592E-02    0.78       1.0  T
   3   -185.3504010  0.195992E-04  0.173E-02    0.78       1.0  T
   4   -185.3504265 -0.254760E-04  0.371E-03    0.78       2.9  T
   5   -185.3504269 -0.375495E-06  0.233E-03    0.78       4.6  T
   6   -185.3504272 -0.371021E-06  0.897E-04    0.78      12.1  T
     SCC iter.                  ...        0 min,  0.066 sec
     gradient                   ...        0 min,  0.019 sec
 * total energy  :  -182.1389502 Eh     change        0.4047846E-04 Eh
   gradient norm :     0.0084115 Eh/α   predicted    -0.1987844E-03 (-591.09%)
   displ. norm   :     0.1450158 α      lambda       -0.6067274E-03
   maximum displ.:     0.0851573 α      in ANC's #4, #21, #32, ...

........................................................................
.............................. CYCLE   47 ..............................
........................................................................
   1   -185.3465406 -0.185347E+03  0.108E-01    0.78       0.0  T
   2   -185.3465522 -0.115237E-04  0.596E-02    0.78       1.0  T
   3   -185.3465288  0.233221E-04  0.176E-02    0.77       1.0  T
   4   -185.3465586 -0.298038E-04  0.355E-03    0.78       3.1  T
   5   -185.3465590 -0.324497E-06  0.202E-03    0.78       5.4  T
   6   -185.3465591 -0.153309E-06  0.898E-04    0.78      12.1  T
     SCC iter.                  ...        0 min,  0.065 sec
     gradient                   ...        0 min,  0.018 sec
 * total energy  :  -182.1391296 Eh     change       -0.1793495E-03 Eh
   gradient norm :     0.0120419 Eh/α   predicted    -0.3097434E-03 (  72.70%)
   displ. norm   :     0.1698869 α      lambda       -0.4864032E-03
   maximum displ.:     0.0620028 α      in ANC's #4, #39, #5, ...

........................................................................
.............................. CYCLE   48 ..............................
........................................................................
   1   -185.3485148 -0.185349E+03  0.135E-01    0.77       0.0  T
   2   -185.3485316 -0.168381E-04  0.716E-02    0.77       1.0  T
   3   -185.3484973  0.342865E-04  0.237E-02    0.78       1.0  T
   4   -185.3485404 -0.431114E-04  0.666E-03    0.77       1.6  T
   5   -185.3485405 -0.754685E-07  0.372E-03    0.77       2.9  T
   6   -185.3485419 -0.142037E-05  0.997E-04    0.77      10.9  T
   7   -185.3485420 -0.544015E-07  0.533E-04    0.77      20.3  T
     SCC iter.                  ...        0 min,  0.076 sec
     gradient                   ...        0 min,  0.018 sec
 * total energy  :  -182.1391859 Eh     change       -0.5630847E-04 Eh
   gradient norm :     0.0073156 Eh/α   predicted    -0.2502227E-03 ( 344.38%)
   displ. norm   :     0.1804937 α      lambda       -0.5242981E-03
   maximum displ.:     0.1012895 α      in ANC's #4, #5, #41, ...

........................................................................
.............................. CYCLE   49 ..............................
........................................................................
   1   -185.3530919 -0.185353E+03  0.127E-01    0.77       0.0  T
   2   -185.3531072 -0.153038E-04  0.665E-02    0.77       1.0  T
   3   -185.3530956  0.116205E-04  0.164E-02    0.78       1.0  T
   4   -185.3531125 -0.168475E-04  0.696E-03    0.77       1.6  T
   5   -185.3531134 -0.903271E-06  0.326E-03    0.77       3.3  T
   6   -185.3531143 -0.925228E-06  0.925E-04    0.77      11.7  T
   7   -185.3531143 -0.411657E-07  0.465E-04    0.77      23.3  T
     SCC iter.                  ...        0 min,  0.074 sec
     gradient                   ...        0 min,  0.018 sec
 * total energy  :  -182.1393245 Eh     change       -0.1386618E-03 Eh
   gradient norm :     0.0103814 Eh/α   predicted    -0.2706929E-03 (  95.22%)
   displ. norm   :     0.2403400 α      lambda       -0.5864883E-03
   maximum displ.:     0.1150012 α      in ANC's #4, #5, #2, ...

........................................................................
.............................. CYCLE   50 ..............................
........................................................................
   1   -185.3508987 -0.185351E+03  0.146E-01    0.78       0.0  T
   2   -185.3509169 -0.182664E-04  0.804E-02    0.78       1.0  T
   3   -185.3508672  0.497218E-04  0.267E-02    0.77       1.0  T
   4   -185.3509291 -0.619205E-04  0.454E-03    0.78       2.4  T
   5   -185.3509290  0.101370E-06  0.291E-03    0.78       3.7  T
   6   -185.3509297 -0.685039E-06  0.936E-04    0.78      11.6  T
     SCC iter.                  ...        0 min,  0.065 sec
     gradient                   ...        0 min,  0.018 sec
 * total energy  :  -182.1393562 Eh     change       -0.3166297E-04 Eh
   gradient norm :     0.0092016 Eh/α   predicted    -0.3101857E-03 ( 879.65%)
   displ. norm   :     0.2079027 α      lambda       -0.6762750E-03
   maximum displ.:     0.1179259 α      in ANC's #4, #5, #10, ...

........................................................................
.............................. CYCLE   51 ..............................
........................................................................
   1   -185.3488125 -0.185349E+03  0.114E-01    0.78       0.0  T
   2   -185.3488240 -0.115438E-04  0.630E-02    0.78       1.0  T
   3   -185.3487974  0.266781E-04  0.199E-02    0.78       1.0  T
   4   -185.3488310 -0.336671E-04  0.428E-03    0.78       2.5  T
   5   -185.3488310 -0.646793E-09  0.273E-03    0.78       4.0  T
   6   -185.3488316 -0.530961E-06  0.966E-04    0.78      11.2  T
     SCC iter.                  ...        0 min,  0.066 sec
     gradient                   ...        0 min,  0.018 sec
 * total energy  :  -182.1396328 Eh     change       -0.2766308E-03 Eh
   gradient norm :     0.0071894 Eh/α   predicted    -0.3527530E-03 (  27.52%)
   displ. norm   :     0.2726619 α      lambda       -0.4678172E-03
   maximum displ.:     0.1647837 α      in ANC's #4, #5, #10, ...

........................................................................
.............................. CYCLE   52 ..............................
........................................................................
   1   -185.3483600 -0.185348E+03  0.137E-01    0.77       0.0  T
   2   -185.3483767 -0.167423E-04  0.731E-02    0.77       1.0  T
   3   -185.3483531  0.236657E-04  0.217E-02    0.78       1.0  T
   4   -185.3483843 -0.312139E-04  0.705E-03    0.77       1.5  T
   5   -185.3483844 -0.158090E-06  0.366E-03    0.78       3.0  T
   6   -185.3483858 -0.138991E-05  0.962E-04    0.78      11.3  T
   7   -185.3483859 -0.402796E-07  0.546E-04    0.78      19.9  T
     SCC iter.                  ...        0 min,  0.075 sec
     gradient                   ...        0 min,  0.018 sec
 * total energy  :  -182.1398043 Eh     change       -0.1714746E-03 Eh
   gradient norm :     0.0075060 Eh/α   predicted    -0.2513030E-03 (  46.55%)
   displ. norm   :     0.3916264 α      lambda       -0.5264912E-03
   maximum displ.:     0.2406220 α      in ANC's #4, #5, #2, ...

........................................................................
.............................. CYCLE   53 ..............................
........................................................................
   1   -185.3491372 -0.185349E+03  0.175E-01    0.77       0.0  T
   2   -185.3491624 -0.251120E-04  0.915E-02    0.77       1.0  T
   3   -185.3491371  0.252544E-04  0.240E-02    0.77       1.0  T
   4   -185.3491693 -0.321624E-04  0.110E-02    0.77       1.0  T
   5   -185.3491712 -0.196455E-05  0.520E-03    0.77       2.1  T
   6   -185.3491740 -0.273966E-05  0.129E-03    0.77       8.4  T
   7   -185.3491740 -0.683935E-07  0.729E-04    0.77      14.9  T
     SCC iter.                  ...        0 min,  0.074 sec
     gradient                   ...        0 min,  0.018 sec
 * total energy  :  -182.1398797 Eh     change       -0.7539366E-04 Eh
   gradient norm :     0.0100768 Eh/α   predicted    -0.3036214E-03 ( 302.71%)
   displ. norm   :     0.3438298 α      lambda       -0.7395241E-03
   maximum displ.:     0.2133950 α      in ANC's #4, #5, #10, ...

........................................................................
.............................. CYCLE   54 ..............................
........................................................................
   1   -185.3509837 -0.185351E+03  0.149E-01    0.78       0.0  T
   2   -185.3510018 -0.180469E-04  0.808E-02    0.78       1.0  T
   3   -185.3509705  0.312658E-04  0.235E-02    0.77       1.0  T
   4   -185.3510101 -0.395801E-04  0.750E-03    0.78       1.4  T
   5   -185.3510102 -0.147563E-06  0.420E-03    0.77       2.6  T
   6   -185.3510120 -0.181143E-05  0.107E-03    0.78      10.2  T
   7   -185.3510121 -0.425972E-07  0.647E-04    0.78      16.8  T
     SCC iter.                  ...        0 min,  0.075 sec
     gradient                   ...        0 min,  0.018 sec
 * total energy  :  -182.1402408 Eh     change       -0.3611088E-03 Eh
   gradient norm :     0.0086967 Eh/α   predicted    -0.4134734E-03 (  14.50%)
   displ. norm   :     0.4240092 α      lambda       -0.7004764E-03
   maximum displ.:     0.2604213 α      in ANC's #4, #5, #10, ...

........................................................................
.............................. CYCLE   55 ..............................
........................................................................
   1   -185.3468870 -0.185347E+03  0.181E-01    0.78       0.0  T
   2   -185.3469122 -0.252329E-04  0.998E-02    0.78       1.0  T
   3   -185.3467965  0.115750E-03  0.394E-02    0.77       1.0  T
   4   -185.3469316 -0.135118E-03  0.768E-03    0.78       1.4  T
   5   -185.3469315  0.734716E-07  0.519E-03    0.78       2.1  T
   6   -185.3469337 -0.221531E-05  0.165E-03    0.78       6.6  T
   7   -185.3469339 -0.166333E-06  0.832E-04    0.78      13.0  T
     SCC iter.                  ...        0 min,  0.077 sec
     gradient                   ...        0 min,  0.018 sec
 * total energy  :  -182.1403314 Eh     change       -0.9057024E-04 Eh
   gradient norm :     0.0113184 Eh/α   predicted    -0.4132208E-03 ( 356.24%)
   displ. norm   :     0.3606945 α      lambda       -0.6980515E-03
   maximum displ.:     0.2312486 α      in ANC's #4, #5, #2, ...

........................................................................
.............................. CYCLE   56 ..............................
........................................................................
   1   -185.3470678 -0.185347E+03  0.141E-01    0.78       0.0  T
   2   -185.3470834 -0.155855E-04  0.764E-02    0.78       1.0  T
   3   -185.3470457  0.377308E-04  0.245E-02    0.78       1.0  T
   4   -185.3470908 -0.451778E-04  0.758E-03    0.77       1.4  T
   5   -185.3470912 -0.326144E-06  0.434E-03    0.78       2.5  T
   6   -185.3470930 -0.180910E-05  0.121E-03    0.78       9.0  T
   7   -185.3470930 -0.828333E-07  0.622E-04    0.78      17.4  T
     SCC iter.                  ...        0 min,  0.079 sec
     gradient                   ...        0 min,  0.019 sec
 * total energy  :  -182.1407200 Eh     change       -0.3886773E-03 Eh
   gradient norm :     0.0089567 Eh/α   predicted    -0.3944427E-03 (   1.48%)
   displ. norm   :     0.4563591 α      lambda       -0.7997667E-03
   maximum displ.:     0.2647247 α      in ANC's #4, #5, #7, ...

........................................................................
.............................. CYCLE   57 ..............................
........................................................................
   1   -185.3510239 -0.185351E+03  0.214E-01    0.77       0.0  T
   2   -185.3510617 -0.378193E-04  0.115E-01    0.77       1.0  T
   3   -185.3509686  0.931166E-04  0.361E-02    0.78       1.0  T
   4   -185.3510807 -0.112127E-03  0.114E-02    0.77       1.0  T
   5   -185.3510823 -0.154913E-05  0.617E-03    0.77       1.8  T
   6   -185.3510854 -0.309696E-05  0.182E-03    0.77       6.0  T
   7   -185.3510856 -0.192986E-06  0.913E-04    0.77      11.9  T
   8   -185.3510856 -0.108839E-07  0.511E-04    0.77      21.2  T
     SCC iter.                  ...        0 min,  0.084 sec
     gradient                   ...        0 min,  0.018 sec
 * total energy  :  -182.1403775 Eh     change        0.3425037E-03 Eh
   gradient norm :     0.0181415 Eh/α   predicted    -0.4831650E-03 (-241.07%)
   displ. norm   :     0.2284071 α      lambda       -0.1347452E-02
   maximum displ.:     0.1292271 α      in ANC's #4, #5, #2, ...

........................................................................
.............................. CYCLE   58 ..............................
........................................................................
   1   -185.3502883 -0.185350E+03  0.149E-01    0.78       0.0  T
   2   -185.3503085 -0.202612E-04  0.815E-02    0.78       1.0  T
   3   -185.3502586  0.498992E-04  0.251E-02    0.77       1.0  T
   4   -185.3503206 -0.620119E-04  0.493E-03    0.78       2.2  T
   5   -185.3503209 -0.290901E-06  0.316E-03    0.78       3.4  T
   6   -185.3503216 -0.658609E-06  0.108E-03    0.78      10.1  T
   7   -185.3503217 -0.800000E-07  0.478E-04    0.78      22.7  T
     SCC iter.                  ...        0 min,  0.075 sec
     gradient                   ...        0 min,  0.018 sec
 * total energy  :  -182.1411147 Eh     change       -0.7371172E-03 Eh
   gradient norm :     0.0076570 Eh/α   predicted    -0.7088751E-03 (  -3.83%)
   displ. norm   :     0.4171901 α      lambda       -0.6773197E-03
   maximum displ.:     0.2417608 α      in ANC's #4, #5, #2, ...

........................................................................
.............................. CYCLE   59 ..............................
........................................................................
   1   -185.3486185 -0.185349E+03  0.195E-01    0.77       0.0  T
   2   -185.3486506 -0.320743E-04  0.108E-01    0.78       1.0  T
   3   -185.3485381  0.112512E-03  0.392E-02    0.77       1.0  T
   4   -185.3486729 -0.134818E-03  0.701E-03    0.78       1.5  T
   5   -185.3486726  0.297104E-06  0.469E-03    0.77       2.3  T
   6   -185.3486742 -0.159850E-05  0.155E-03    0.78       7.0  T
   7   -185.3486743 -0.124859E-06  0.744E-04    0.78      14.6  T
     SCC iter.                  ...        0 min,  0.074 sec
     gradient                   ...        0 min,  0.018 sec
 * total energy  :  -182.1407065 Eh     change        0.4081556E-03 Eh
   gradient norm :     0.0216208 Eh/α   predicted    -0.3976036E-03 (-197.41%)
   displ. norm   :     0.2292259 α      lambda       -0.1368918E-02
   maximum displ.:     0.1284215 α      in ANC's #4, #5, #2, ...

........................................................................
.............................. CYCLE   60 ..............................
........................................................................
   1   -185.3489974 -0.185349E+03  0.143E-01    0.78       0.0  T
   2   -185.3490170 -0.195917E-04  0.787E-02    0.77       1.0  T
   3   -185.3489503  0.667333E-04  0.301E-02    0.78       1.0  T
   4   -185.3490305 -0.802504E-04  0.508E-03    0.78       2.1  T
   5   -185.3490307 -0.181073E-06  0.346E-03    0.78       3.1  T
   6   -185.3490316 -0.838976E-06  0.117E-03    0.78       9.2  T
     SCC iter.                  ...        0 min,  0.064 sec
     gradient                   ...        0 min,  0.018 sec
 * total energy  :  -182.1414815 Eh     change       -0.7749527E-03 Eh
   gradient norm :     0.0060047 Eh/α   predicted    -0.7204251E-03 (  -7.04%)
   displ. norm   :     0.5342471 α      lambda       -0.3343652E-03
   maximum displ.:     0.3435970 α      in ANC's #4, #5, #2, ...

........................................................................
.............................. CYCLE   61 ..............................
........................................................................
   1   -185.3473162 -0.185347E+03  0.177E-01    0.77       0.0  T
   2   -185.3473378 -0.216308E-04  0.920E-02    0.78       1.0  T
   3   -185.3473294  0.838557E-05  0.190E-02    0.77       1.0  T
   4   -185.3473349 -0.546491E-05  0.130E-02    0.78       1.0  T
   5   -185.3473436 -0.868253E-05  0.403E-03    0.78       2.7  T
   6   -185.3473452 -0.166713E-05  0.101E-03    0.78      10.7  T
   7   -185.3473453 -0.428536E-07  0.584E-04    0.78      18.6  T
     SCC iter.                  ...        0 min,  0.076 sec
     gradient                   ...        0 min,  0.018 sec
 * total energy  :  -182.1417281 Eh     change       -0.2466428E-03 Eh
   gradient norm :     0.0099508 Eh/α   predicted    -0.2149100E-03 ( -12.87%)
   displ. norm   :     0.5984164 α      lambda       -0.5843741E-03
   maximum displ.:     0.3595324 α      in ANC's #4, #2, #5, ...

........................................................................
.............................. CYCLE   62 ..............................
........................................................................
   1   -185.3594607 -0.185359E+03  0.189E-01    0.77       0.0  T
   2   -185.3594858 -0.251105E-04  0.100E-01    0.77       1.0  T
[...]

    * Orbital Energies and Occupations

         #    Occupation            Energy/Eh            Energy/eV
      -------------------------------------------------------------
         1        2.0000           -0.7897985             -21.4915
       ...           ...                  ...                  ...
       154        2.0000           -0.4422758             -12.0349
       155        2.0000           -0.4402696             -11.9803
       156        2.0000           -0.4343469             -11.8192
       157        2.0000           -0.4331490             -11.7866
       158        2.0000           -0.4304043             -11.7119
       159        2.0000           -0.4258599             -11.5882
       160        2.0000           -0.4257790             -11.5860
       161        2.0000           -0.4254739             -11.5777
       162        2.0000           -0.4222750             -11.4907
       163        2.0000           -0.4213499             -11.4655
       164        2.0000           -0.4130274             -11.2390
       165        2.0000           -0.4041525             -10.9975
       166        2.0000           -0.3926115             -10.6835 (HOMO)
       167        0.0000           -0.3637673              -9.8986 (LUMO)
       168                         -0.3608386              -9.8189
       169                         -0.3469820              -9.4419
       170                         -0.3461992              -9.4206
       171                         -0.3360089              -9.1433
       172                         -0.3324475              -9.0464
       173                         -0.3206553              -8.7255
       174                         -0.3108440              -8.4585
       175                         -0.2711302              -7.3778
       176                         -0.2677325              -7.2854
       177                         -0.2645210              -7.1980
       ...                                ...                  ...
       334                          1.1727456              31.9120
      -------------------------------------------------------------
                  HL-Gap            0.0288442 Eh            0.7849 eV
             Fermi-level           -0.3782107 Eh          -10.2916 eV

     #   Z        covCN         q      C6AA      α(0)
     1   6 C      3.065    -0.029    28.655     8.778
     2   6 C      2.959    -0.020    28.496     8.756
     3  16 S      2.250     0.079   137.865    19.762
     4   6 C      3.083     0.011    27.686     8.626
     5   6 C      3.229    -0.029    27.886     8.576
     6   6 C      2.877     0.229    23.198     7.896
     7   8 O      0.856    -0.349    20.684     6.098
     8   6 C      3.025    -0.031    28.740     8.794
     9   6 C      3.016     0.033    27.243     8.562
    10   6 C      2.948     0.009    27.816     8.650
    11   6 C      1.932     0.121    28.108     8.562
    12   7 N      0.911    -0.211    25.589     7.316
    13   6 C      1.925     0.126    28.009     8.547
    14   7 N      0.911    -0.240    26.278     7.414
    15   6 C      2.936    -0.014    28.372     8.736
    16   6 C      2.997     0.022    27.498     8.602
    17   6 C      3.053    -0.031    28.715     8.788
    18   6 C      3.253    -0.013    27.254     8.446
    19   6 C      3.084     0.019    27.490     8.595
    20  16 S      2.267     0.074   138.085    19.778
    21   6 C      3.086     0.018    27.501     8.596
    22   6 C      3.253    -0.015    27.277     8.449
    23   6 C      3.043     0.041    27.030     8.527
    24   6 C      2.947     0.031    27.314     8.572
    25   6 C      1.920     0.130    27.920     8.533
    26   7 N      0.911    -0.213    25.638     7.323
    27   6 C      1.918     0.131    27.902     8.531
    28   7 N      0.911    -0.205    25.459     7.298
    29   6 C      3.052    -0.032    28.739     8.792
    30   6 C      3.006     0.002    27.960     8.674
    31  16 S      2.245     0.063   138.494    19.807
    32   6 C      2.889     0.143    24.883     8.178
    33   6 C      2.910    -0.063    29.579     8.918
    34   6 C      2.986     0.045    26.972     8.519
    35   6 C      2.955    -0.016    28.399     8.741
    36   6 C      1.920     0.116    28.244     8.583
    37   7 N      0.911    -0.249    26.481     7.443
    38   6 C      1.920     0.116    28.246     8.583
    39   7 N      0.911    -0.249    26.481     7.443
    40   6 C      2.910    -0.064    29.580     8.918
    41   6 C      2.889     0.143    24.885     8.179
    42   8 O      1.714    -0.201    17.352     5.624
    43   6 C      3.007     0.002    27.960     8.674
    44   6 C      3.052    -0.033    28.776     8.798
    45   6 C      3.250    -0.015    27.328     8.462
    46   6 C      3.087     0.019    27.479     8.593
    47  16 S      2.244     0.061   138.605    19.815
    48   6 C      3.084     0.001    27.908     8.660
    49   6 C      3.227    -0.016    27.607     8.535
    50   6 C      3.038     0.039    27.099     8.538
    51   6 C      2.946     0.028    27.374     8.581
    52   6 C      1.920     0.130    27.915     8.533
    53   7 N      0.911    -0.210    25.585     7.316
    54   6 C      1.920     0.125    28.030     8.550
    55   7 N      0.911    -0.202    25.403     7.289
    56   6 C      3.052    -0.036    28.839     8.807
    57   6 C      2.992     0.019    27.564     8.612
    58  16 S      2.329     0.121   136.215    19.643
    59   6 C      2.916    -0.013    28.346     8.731
    60   6 C      3.023    -0.036    28.861     8.812
    61   6 C      3.024     0.028    27.347     8.578
    62   6 C      2.947     0.010    27.797     8.647
    63   6 C      1.932     0.121    28.122     8.564
    64   7 N      0.911    -0.215    25.682     7.329
    65   6 C      1.924     0.121    28.117     8.563
    66   7 N      0.911    -0.222    25.841     7.352
    67   6 C      3.081     0.009    27.727     8.633
    68   6 C      3.236    -0.029    27.816     8.557
    69   6 C      3.064    -0.029    28.653     8.778
    70   6 C      2.959    -0.020    28.499     8.756
    71  16 S      2.251     0.075   138.031    19.774
    72   6 C      2.879     0.228    23.230     7.901
    73   8 O      0.974    -0.348    20.617     6.090
    74   1 H      0.926     0.071     2.076     2.253
    75   1 H      0.926     0.068     2.107     2.270
    76   1 H      0.925     0.087     1.906     2.159
    77   1 H      0.926     0.060     2.194     2.316
    78   1 H      0.926     0.077     2.015     2.220
    79   1 H      0.926     0.067     2.122     2.278
    80   1 H      0.926     0.067     2.120     2.277
    81   1 H      0.926     0.075     2.029     2.227
    82   1 H      0.926     0.073     2.058     2.243
    83   1 H      0.925     0.075     2.026     2.226
    84   1 H      0.926     0.070     2.083     2.257
    85   1 H      0.926     0.068     2.112     2.273

 Mol. C6AA /au·bohr⁶  :     189517.976542
 Mol. C8AA /au·bohr⁸  :    5647096.544857
 Mol. α(0) /au        :        700.981797


Wiberg/Mayer (AO) data.
largest (>0.10) Wiberg bond orders for each atom
          total WBO             WBO to atom ...
     1  C   3.983        C    2 1.594    C    5 1.286    H   74 0.960
     2  C   3.930        C    1 1.594    S    3 1.209    H   75 0.968
     3  S   2.713        C    2 1.209    C    4 1.205
     4  C   3.950        C    5 1.373    S    3 1.205    C    9 1.140
     5  C   3.963        C    4 1.373    C    1 1.286    C    6 1.037
     6  C   3.930        O    7 1.786    C    5 1.037    C    8 0.988
     7  O   2.070        C    6 1.786
     8  C   3.954        C   15 1.605    C    9 1.105    C    6 0.988
     9  C   3.982        C   10 1.473    C    4 1.140    C    8 1.105
    10  C   3.978        C    9 1.473    C   13 1.108    C   11 1.092
    11  C   3.949        N   12 2.779    C   10 1.092
    12  N   2.988        C   11 2.779
    13  C   3.946        N   14 2.758    C   10 1.108
    14  N   2.964        C   13 2.758
    15  C   3.956        C    8 1.605    C   16 1.211    H   76 0.947
    16  C   3.915        C   17 1.433    C   15 1.211    S   20 1.108
    17  C   3.976        C   16 1.433    C   18 1.344    H   77 0.955
    18  C   3.961        C   17 1.344    C   19 1.308    C   23 1.095
    19  C   3.933        C   18 1.308    S   20 1.219    C   21 1.183
    20  S   2.638        C   19 1.219    C   16 1.108
    21  C   3.929        C   22 1.320    S   31 1.204    C   19 1.183
    22  C   3.957        C   29 1.334    C   21 1.320    C   23 1.092
    23  C   3.982        C   24 1.519    C   18 1.095    C   22 1.092
    24  C   3.988        C   23 1.519    C   25 1.092    C   27 1.091
    25  C   3.948        N   26 2.787    C   24 1.092
    26  N   2.979        C   25 2.787
    27  C   3.949        N   28 2.789    C   24 1.091
    28  N   2.981        C   27 2.789
    29  C   3.962        C   30 1.461    C   22 1.334    H   78 0.955
    30  C   3.906        C   29 1.461    C   32 1.136    S   31 1.125
    31  S   2.630        C   21 1.204    C   30 1.125
    32  C   3.910        C   33 1.555    C   30 1.136    O   42 1.058
    33  C   3.955        C   32 1.555    C   34 1.188    H   79 0.959
    34  C   3.983        C   35 1.392    C   33 1.188    C   40 1.187
    35  C   3.907        C   34 1.392    C   38 1.117    C   36 1.117
    36  C   3.950        N   37 2.758    C   35 1.117
    37  N   2.954        C   36 2.758
    38  C   3.950        N   39 2.758    C   35 1.117
    39  N   2.954        C   38 2.758
    40  C   3.955        C   41 1.557    C   34 1.187    H   80 0.959
    41  C   3.910        C   40 1.557    C   43 1.133    O   42 1.058
    42  O   2.365        C   32 1.058    C   41 1.058
    43  C   3.901        C   44 1.464    C   41 1.133    S   47 1.127
    44  C   3.962        C   43 1.464    C   45 1.332    H   81 0.955
    45  C   3.951        C   44 1.332    C   46 1.318    C   50 1.095
    46  C   3.929        C   45 1.318    S   47 1.202    C   48 1.189
    47  S   2.630        C   46 1.202    C   43 1.127
    48  C   3.939        C   49 1.275    S   58 1.247    C   46 1.189
    49  C   3.959        C   56 1.389    C   48 1.275    C   50 1.093
    50  C   3.982        C   51 1.520    C   45 1.095    C   49 1.093
    51  C   3.988        C   50 1.520    C   54 1.091    C   52 1.091
    52  C   3.948        N   53 2.787    C   51 1.091
    53  N   2.980        C   52 2.787
    54  C   3.949        N   55 2.790    C   51 1.091
    55  N   2.982        C   54 2.790
    56  C   3.957        C   49 1.389    C   57 1.378    H   82 0.958
    57  C   3.923        C   56 1.378    C   59 1.267    S   58 1.115
    58  S   2.822        C   48 1.247    C   57 1.115    O   73 0.140
    59  C   3.955        C   60 1.548    C   57 1.267    H   83 0.940
    60  C   3.951        C   59 1.548    C   61 1.105    C   72 1.043
    61  C   3.979        C   62 1.478    C   67 1.142    C   60 1.105
    62  C   3.959        C   61 1.478    C   65 1.102    C   63 1.093
    63  C   3.949        N   64 2.776    C   62 1.093
    64  N   2.986        C   63 2.776
    65  C   3.948        N   66 2.763    C   62 1.102
    66  N   2.963        C   65 2.763
    67  C   3.942        C   68 1.375    S   71 1.203    C   61 1.142
    68  C   3.962        C   67 1.375    C   69 1.285    C   72 1.044
    69  C   3.982        C   70 1.595    C   68 1.285    H   84 0.960
    70  C   3.929        C   69 1.595    S   71 1.208    H   85 0.968
    71  S   2.711        C   70 1.208    C   67 1.203
    72  C   3.924        O   73 1.709    C   68 1.044    C   60 1.043
    73  O   2.134        C   72 1.709    S   58 0.140
    74  H   0.995        C    1 0.960
    75  H   0.994        C    2 0.968
    76  H   0.989        C   15 0.947
    77  H   0.996        C   17 0.955
    78  H   0.994        C   29 0.955
    79  H   0.995        C   33 0.959
    80  H   0.995        C   40 0.959
    81  H   0.994        C   44 0.955
    82  H   0.994        C   56 0.958
    83  H   0.993        C   59 0.940
    84  H   0.995        C   69 0.960
    85  H   0.994        C   70 0.968

molecular dipole:
                 x           y           z       tot (Debye)
 q only:       -0.028       0.224       0.318
   full:       -0.231       0.090       0.520       1.466
molecular quadrupole (traceless):
                xx          xy          yy          xz          yz          zz
 q only:      105.839     -31.463    -107.459     -14.304      27.830       1.621
  q+dip:      123.284     -49.462    -128.725     -14.689      37.888       5.441
   full:      113.816     -46.478    -133.735      -7.537      45.700      19.919

           -------------------------------------------------
          |                Geometry Summary                 |
           -------------------------------------------------

      molecular mass/u    :     1041.1140000
   center of mass at/Å    :       10.6732314      -3.0468197      -0.5116113
  moments of inertia/u·Å² :        0.1205191E+05   0.6450204E+05   0.7474420E+05
rotational constants/cm⁻¹ :        0.1398752E-02   0.2613504E-03   0.2255377E-03

 * 78 selected distances

     #   Z        #   Z                                     value/Å
     1   6 C      2   6 C                                 1.3639729
     2   6 C      3  16 S                                 1.7263473
     3  16 S      4   6 C                                 1.7119344
     1   6 C      5   6 C                                 1.4046828
     4   6 C      5   6 C                                 1.3907099
     6   6 C      7   8 O                                 1.2075614
     4   6 C      9   6 C                                 1.4389385
     9   6 C     10   6 C                                 1.3715643
    11   6 C     12   7 N                                 1.1467223
    13   6 C     14   7 N                                 1.1483879
     8   6 C     15   6 C                                 1.3563608
    15   6 C     16   6 C                                 1.4174517
    16   6 C     17   6 C                                 1.3847637
    17   6 C     18   6 C                                 1.3907231
    18   6 C     19   6 C                                 1.4076112
    16   6 C     20  16 S                                 1.7575166
    19   6 C     20  16 S                                 1.7017154
    19   6 C     21   6 C                                 1.4208585
    21   6 C     22   6 C                                 1.4056376
    18   6 C     23   6 C                                 1.4526450
    22   6 C     23   6 C                                 1.4530644
    23   6 C     24   6 C                                 1.3635779
    25   6 C     26   7 N                                 1.1463773
    27   6 C     28   7 N                                 1.1463214
    22   6 C     29   6 C                                 1.3920387
    29   6 C     30   6 C                                 1.3819477
    21   6 C     31  16 S                                 1.7076595
    30   6 C     31  16 S                                 1.7491497
    30   6 C     32   6 C                                 1.4354436
    32   6 C     33   6 C                                 1.3583704
    33   6 C     34   6 C                                 1.4315494
    34   6 C     35   6 C                                 1.3835028
    36   6 C     37   7 N                                 1.1487008
    38   6 C     39   7 N                                 1.1487725
    34   6 C     40   6 C                                 1.4317713
    40   6 C     41   6 C                                 1.3580220
    32   6 C     42   8 O                                 1.3581671
    41   6 C     42   8 O                                 1.3582122
    41   6 C     43   6 C                                 1.4360986
    43   6 C     44   6 C                                 1.3815521
    44   6 C     45   6 C                                 1.3926242
    45   6 C     46   6 C                                 1.4056440
    43   6 C     47  16 S                                 1.7491631
    46   6 C     47  16 S                                 1.7083046
    46   6 C     48   6 C                                 1.4197840
    48   6 C     49   6 C                                 1.4134841
    45   6 C     50   6 C                                 1.4530010
    50   6 C     51   6 C                                 1.3634279
    52   6 C     53   7 N                                 1.1464824
    54   6 C     55   7 N                                 1.1460865
    49   6 C     56   6 C                                 1.3839655
    56   6 C     57   6 C                                 1.3976484
    48   6 C     58  16 S                                 1.7028253
    57   6 C     58  16 S                                 1.7602450 (max)
    57   6 C     59   6 C                                 1.4093005
    59   6 C     60   6 C                                 1.3647020
    61   6 C     62   6 C                                 1.3702356
    63   6 C     64   7 N                                 1.1469533
    65   6 C     66   7 N                                 1.1480408
    61   6 C     67   6 C                                 1.4373968
    67   6 C     68   6 C                                 1.3893643
    68   6 C     69   6 C                                 1.4045700
    69   6 C     70   6 C                                 1.3638777
    67   6 C     71  16 S                                 1.7124471
    70   6 C     71  16 S                                 1.7268235
    72   6 C     73   8 O                                 1.2175426
     1   6 C     74   1 H                                 1.0740656
     2   6 C     75   1 H                                 1.0726128
    15   6 C     76   1 H                                 1.0859964
    17   6 C     77   1 H                                 1.0747217
    29   6 C     78   1 H                                 1.0741562
    33   6 C     79   1 H                                 1.0785310
    40   6 C     80   1 H                                 1.0784601
    44   6 C     81   1 H                                 1.0740838
    56   6 C     82   1 H                                 1.0757796
    59   6 C     83   1 H                                 1.0839893
    69   6 C     84   1 H                                 1.0741186
    70   6 C     85   1 H                                 1.0725095 (min)

 * 5 distinct bonds (by element types)

   Z      Z             #   av. dist./Å        max./Å        min./Å
   1 H    6 C          12     1.0765854     1.0859964     1.0725095
   6 C    6 C          40     1.3995471     1.4530644     1.3563608
   6 C    7 N          10     1.1472845     1.1487725     1.1460865
   6 C    8 O           4     1.2853708     1.3582122     1.2075614
   6 C   16 S          12     1.7261776     1.7602450     1.7017154


optimized geometry written to: xtbopt.xyz


           -------------------------------------------------
          | TOTAL ENERGY             -182.149491966025 Eh   |
          | GRADIENT NORM               0.000536680369 Eh/α |
          | HOMO-LUMO GAP               0.784890163643 eV   |
           -------------------------------------------------

------------------------------------------------------------------------
 * finished run on 2021/05/14 at 03:53:09.767     
------------------------------------------------------------------------
 total:
 * wall-time:     0 d,  0 h,  0 min, 26.286 sec
 *  cpu-time:     0 d,  0 h,  5 min, 15.179 sec
 * ratio c/w:    11.990 speedup
 SCF:
 * wall-time:     0 d,  0 h,  0 min,  0.217 sec
 *  cpu-time:     0 d,  0 h,  0 min,  2.589 sec
 * ratio c/w:    11.925 speedup
 ANC optimizer:
 * wall-time:     0 d,  0 h,  0 min, 26.012 sec
 *  cpu-time:     0 d,  0 h,  5 min, 12.118 sec
 * ratio c/w:    11.999 speedup

