      -----------------------------------------------------------      
     |                   =====================                   |     
     |                           x T B                           |     
     |                   =====================                   |     
     |                         S. Grimme                         |     
     |          Mulliken Center for Theoretical Chemistry        |     
     |                    University of Bonn                     |     
     |                Version 6.2 RC2 (SAW190805)                |     
      -----------------------------------------------------------      

   This program is distributed in the hope that it will be useful,
   but WITHOUT ANY WARRANTY; without even the implied warranty of
   MERCHANTABILITY or FITNESS FOR A PARTICULAR PURPOSE.
   
   FOR NON-COMMERCIAL, ACADEMIA USE ONLY.
   
   Cite this work as:
   * S. Grimme, C. Bannwarth, P. Shushkov, J. Chem. Theory Comput., 2017,
     13, 1989-2009. DOI: 10.1021/acs.jctc.7b00118
   * C. Bannwarth, S. Ehlert and S. Grimme., J. Chem. Theory Comput., 2019,
     15, 1652-1671. DOI: 10.1021/acs.jctc.8b01176
   * P. Pracht, E. Caldeweyher, S. Ehlert, S. Grimme, ChemRxiv, 2019, preprint.
     DOI: 10.26434/chemrxiv.8326202.v1
   
   for DFT-D4:
   * E. Caldeweyher, C. Bannwarth and S. Grimme, J. Chem. Phys., 2017,
     147, 034112. DOI: 10.1063/1.4993215
   * E. Caldeweyher, S. Ehlert, A. Hansen, H. Neugebauer, S. Spicher,
     C. Bannwarth and S. Grimme, J. Chem. Phys., 2019, 150, 154122.
     DOI: 10.1063/1.5090222
   
   for sTDA-xTB:
   * S. Grimme and C. Bannwarth, J. Chem. Phys., 2016, 145, 054103.
     DOI: 10.1063/1.4959605
   
   in the mass-spec context:
   * V. Asgeirsson, C. Bauer and S. Grimme, Chem. Sci., 2017, 8, 4879.
     DOI: 10.1039/c7sc00601b
   
   for metadynamics refer to:
   * S. Grimme, J. Chem. Theory Comput., 2019, 155, 2847-2862
     DOI: 10.1021/acs.jctc.9b00143
   
   with help from (in alphabetical order)
   C. Bannwarth, F. Bohle, G. Brandenburg, E. Caldeweyher, M. Checinski,
   S. Dohm, S. Ehlert, S. Ehrlich, F. März, H. Neugebauer, J. Pisarek,
   P. Pracht, P. Shushkov, and S. Spicher.
   
 * started run on 2021/05/14 at 19:30:58.469     

           -------------------------------------------------
          |                Calculation Setup                |
           -------------------------------------------------

          program call               : /ihome/ghutchison/geoffh/xtb/xtb /ihome/ghutchison/blp62/GA/running_GA/generations/67/69_34_0_34_69.xyz -opt
          hostname                   : smp-n87
          coordinate file            : /ihome/ghutchison/blp62/GA/running_GA/generations/67/69_34_0_34_69.xyz
          omp threads                :                    12
          number of atoms            :                    97
          number of electrons        :                   360
          charge                     :                     0
          spin                       :                   0.0
          first test random number   :      0.79776790636138


########################################################################
# WARNING! Please study the warnings concerning your input carefully
#  - XTBPATH is not set, using XTBHOME instead
#  - the use of '-opt' is discouraged, please use '--opt' next time
########################################################################

           ------------------------------------------------- 
          |                 G F N 2 - x T B                 |
          | Geometry, Frequencies, Noncovalent interactions |
          |            JCTC 2019 parametrisation            |
           ------------------------------------------------- 
             KAB for C  - Si     :                1.0500
             KAB for H  - Pd     :                0.9500
             k(s)              :                1.8500
             k(p)              :                2.2300
             k(d)              :                2.2300
             k(f)              :                2.0000
             kEN (H0ij)        :               -2.0000
             D4 a1             :                0.5200
             D4 a2             :                5.0000
             D4 s6             :                1.0000
             D4 s8             :                2.7000
             D4 s9             :                5.0000
             alphaj            :                2.0000

  Z AO/shell   Hii/eV     exponent
  1     Wed Apr 25 08:07:45 CEST 2018   EN: 2.200 GM2: 0.406  GM3: 0.0800  RAES: 1.40
     1s    -10.707211    1.230000
  6     Wed Apr 25 08:07:45 CEST 2018   EN: 2.550 GM2: 0.538  GM3: 0.1500  RAES: 3.00
     2s    -13.970922    2.096432
     2p    -10.063292    1.800000
  7     Wed Apr 25 08:07:45 CEST 2018   EN: 3.040 GM2: 0.461  GM3:-0.0640  RAES: 1.90
     2s    -16.686243    2.339881
     2p    -12.523956    2.014332
  8     Wed Apr 25 08:07:45 CEST 2018   EN: 3.440 GM2: 0.452  GM3:-0.0517  RAES: 1.80
     2s    -20.229985    2.439742
     2p    -15.503117    2.137023
 16     Tue Apr 24 11:44:34 CEST 2018   EN: 2.580 GM2: 0.340  GM3:-0.0502  RAES: 3.10
     3s    -20.029654    1.981333
     3p    -11.377694    2.025643
     3d     -0.420282    1.702555
 35     Tue Apr 24 12:21:41 CEST 2018   EN: 2.960 GM2: 0.261  GM3: 0.1300  RAES: 4.00
     4s    -23.583718    2.077587
     4p    -12.588824    2.263120
     4d      0.047980    1.845038

           ------------------------------------------------- 
          |        Self-Consistent Charge Iterations        |
           ------------------------------------------------- 

          ...................................................
          :                      SETUP                      :
          :.................................................:
          :  # basis functions                 364          :
          :  # atomic orbitals                 357          :
          :  # shells                          179          :
          :  # electrons                       360          :
          :  max. iterations                   250          :
          :  Hamiltonian                  GFN2-xTB          :
          :  restarted?                      false          :
          :  GBSA solvation                  false          :
          :  PC potential                    false          :
          :  electronic temp.          300.0000000     K    :
          :  accuracy                    1.0000000          :
          :  -> integral cutoff          0.2500000E+02      :
          :  -> integral neglect         0.1000000E-07      :
          :  -> SCF convergence          0.1000000E-05 Eh   :
          :  -> wf. convergence          0.1000000E-03 e    :
          :  Broyden damping             0.4000000          :
          ...................................................

 iter      E             dE          RMSdq      gap      omega  full diag
   1   -203.4459280 -0.203446E+03  0.553E+00    0.98       0.0  T
   2   -203.5513885 -0.105461E+00  0.354E+00    0.96       1.0  T
   3   -203.3628502  0.188538E+00  0.240E+00    0.83       1.0  T
   4   -203.7368036 -0.373953E+00  0.831E-01    0.92       1.0  T
   5   -203.7878586 -0.510550E-01  0.261E-01    0.92       1.0  T
   6   -203.7887116 -0.853030E-03  0.172E-01    0.89       1.0  T
   7   -203.7901388 -0.142721E-02  0.830E-02    0.91       1.0  T
   8   -203.7903052 -0.166326E-03  0.592E-02    0.91       1.0  T
   9   -203.7903181 -0.129791E-04  0.483E-02    0.90       1.0  T
  10   -203.7903622 -0.440813E-04  0.330E-02    0.90       1.0  T
  11   -203.7904071 -0.448946E-04  0.184E-02    0.91       1.0  T
  12   -203.7904168 -0.965332E-05  0.107E-02    0.90       1.0  T
  13   -203.7904218 -0.501802E-05  0.542E-03    0.91       1.9  T
  14   -203.7904229 -0.107721E-05  0.253E-03    0.90       4.0  T
  15   -203.7904231 -0.248830E-06  0.143E-03    0.90       7.1  T
  16   -203.7904232 -0.842172E-07  0.773E-04    0.90      13.1  T
  17   -203.7904232 -0.111123E-07  0.457E-04    0.90      22.2  T

   *** convergence criteria satisfied after 17 iterations ***

         #    Occupation            Energy/Eh            Energy/eV
      -------------------------------------------------------------
         1        2.0000           -0.8650603             -23.5395
       ...           ...                  ...                  ...
       174        2.0000           -0.4121697             -11.2157
       175        2.0000           -0.4093888             -11.1400
       176        2.0000           -0.4051244             -11.0240
       177        2.0000           -0.4028580             -10.9623
       178        2.0000           -0.3995483             -10.8723
       179        2.0000           -0.3906993             -10.6315
       180        2.0000           -0.3859261             -10.5016 (HOMO)
       181                         -0.3526708              -9.5967 (LUMO)
       182                         -0.3516011              -9.5676
       183                         -0.3348119              -9.1107
       184                         -0.3341539              -9.0928
       185                         -0.3217995              -8.7566
       ...                                ...                  ...
       357                          1.0806470              29.4059
      -------------------------------------------------------------
                  HL-Gap            0.0332553 Eh            0.9049 eV
             Fermi-level           -0.3694288 Eh          -10.0527 eV

 SCC (total)                   0 d,  0 h,  0 min,  0.284 sec
 SCC setup                      ...        0 min,  0.002 sec (  0.783%)
 Dispersion                     ...        0 min,  0.005 sec (  1.791%)
 integral evaluation            ...        0 min,  0.029 sec ( 10.226%)
 zeroth order Hamiltonian       ...        0 min,  0.002 sec (  0.556%)
 iterations                     ...        0 min,  0.222 sec ( 77.975%)
 molecular gradient             ...        0 min,  0.023 sec (  8.126%)
 printout                       ...        0 min,  0.001 sec (  0.505%)

         :::::::::::::::::::::::::::::::::::::::::::::::::::::
         ::                     SUMMARY                     ::
         :::::::::::::::::::::::::::::::::::::::::::::::::::::
         :: total energy            -201.076823844511 Eh    ::
         :: gradient norm              0.193837603283 Eh/a0 ::
         :: HOMO-LUMO gap              0.904923644159 eV    ::
         ::.................................................::
         :: SCC energy              -203.790423214536 Eh    ::
         :: -> isotropic ES            0.202907036649 Eh    ::
         :: -> anisotropic ES          0.018763368949 Eh    ::
         :: -> anisotropic XC          0.114329503376 Eh    ::
         :: -> dispersion             -0.160492794631 Eh    ::
         :: repulsion energy           2.714103338298 Eh    ::
         :: add. restraining           0.000000000000 Eh    ::
         :::::::::::::::::::::::::::::::::::::::::::::::::::::

      ----------------------------------------------------------- 
     |                   =====================                   |
     |                        A N C O P T                        |
     |                   =====================                   |
     |               Approximate Normal Coordinate               |
     |                Rational Function Optimizer                |
      ----------------------------------------------------------- 

          ...................................................
          :                      SETUP                      :
          :.................................................:
          :   optimization level            normal          :
          :   max. optcycles                   291          :
          :   ANC micro-cycles                  20          :
          :   degrees of freedom               285          :
          :.................................................:
          :   RF solver                   davidson          :
          :   input Hessian                  false          :
          :   write xtbopt.log                true          :
          :   linear?                        false          :
          :   energy convergence         0.5000000E-05 Eh   :
          :   grad. convergence          0.1000000E-02 Eh/α :
          :   maximium RF displ.         2.0000000          :
          :   Hlow (freq-cutoff)         0.5000000E-02      :
          :   Hmax (freq-cutoff)         5.0000000          :
          :   S6 in model hess.         20.0000000          :
          ...................................................

generating ANC from model Hessian ...
Using Lindh-Hessian (1995)
 Shifting diagonal of input Hessian by   4.980887246136322E-003
 Lowest  eigenvalues of input Hessian
   -0.000000   -0.000000   -0.000000   -0.000000    0.000000    0.000000
    0.005000    0.005025    0.005037    0.005075    0.005084    0.005131
    0.005329    0.005364    0.005447    0.005562    0.005745    0.005823
 Highest eigenvalues
    2.262124    2.263556    2.509033    2.509924    2.572974    2.574371
 

........................................................................
.............................. CYCLE    1 ..............................
........................................................................
   1   -203.7904232 -0.203790E+03  0.257E-04    0.90       0.0  T
   2   -203.7904232  0.466855E-09  0.228E-04    0.90      44.5  T
   3   -203.7904232 -0.259828E-08  0.164E-04    0.90      61.9  T
     SCC iter.                  ...        0 min,  0.040 sec
     gradient                   ...        0 min,  0.023 sec
 * total energy  :  -201.0768238 Eh     change        0.2286623E-07 Eh
   gradient norm :     0.1938398 Eh/α   predicted     0.0000000E+00 (-100.00%)
   displ. norm   :     0.4487845 α      lambda       -0.4216525E-01
   maximum displ.:     0.1751356 α      in ANC's #54, #78, #71, ...

........................................................................
.............................. CYCLE    2 ..............................
........................................................................
   1   -203.8894149 -0.203889E+03  0.535E-01    0.90       0.0  T
   2   -203.8899224 -0.507532E-03  0.260E-01    0.88       1.0  T
   3   -203.8883635  0.155895E-02  0.133E-01    0.89       1.0  T
   4   -203.8902806 -0.191712E-02  0.430E-02    0.88       1.0  T
   5   -203.8903376 -0.570184E-04  0.271E-02    0.88       1.0  T
   6   -203.8903643 -0.267099E-04  0.127E-02    0.88       1.0  T
   7   -203.8903805 -0.162036E-04  0.336E-03    0.88       3.0  T
   8   -203.8903813 -0.737795E-06  0.174E-03    0.88       5.8  T
   9   -203.8903814 -0.139402E-06  0.945E-04    0.88      10.7  T
     SCC iter.                  ...        0 min,  0.113 sec
     gradient                   ...        0 min,  0.022 sec
 * total energy  :  -201.1068018 Eh     change       -0.2997802E-01 Eh
   gradient norm :     0.0840476 Eh/α   predicted    -0.2532907E-01 ( -15.51%)
   displ. norm   :     0.4879060 α      lambda       -0.1767294E-01
   maximum displ.:     0.2253472 α      in ANC's #54, #52, #71, ...

........................................................................
.............................. CYCLE    3 ..............................
........................................................................
   1   -203.9236785 -0.203924E+03  0.488E-01    0.76       0.0  T
   2   -203.9240996 -0.421178E-03  0.238E-01    0.77       1.0  T
   3   -203.9224571  0.164259E-02  0.133E-01    0.74       1.0  T
   4   -203.9244490 -0.199194E-02  0.406E-02    0.76       1.0  T
   5   -203.9245232 -0.741524E-04  0.249E-02    0.75       1.0  T
   6   -203.9245486 -0.254537E-04  0.953E-03    0.75       1.1  T
   7   -203.9245555 -0.690047E-05  0.385E-03    0.75       2.6  T
   8   -203.9245567 -0.121418E-05  0.186E-03    0.75       5.5  T
   9   -203.9245569 -0.173900E-06  0.111E-03    0.75       9.1  T
     SCC iter.                  ...        0 min,  0.110 sec
     gradient                   ...        0 min,  0.022 sec
 * total energy  :  -201.1179060 Eh     change       -0.1110413E-01 Eh
   gradient norm :     0.0244307 Eh/α   predicted    -0.1094002E-01 (  -1.48%)
   displ. norm   :     0.4951736 α      lambda       -0.5367412E-02
   maximum displ.:     0.1695196 α      in ANC's #54, #22, #35, ...

........................................................................
.............................. CYCLE    4 ..............................
........................................................................
   1   -203.9374179 -0.203937E+03  0.279E-01    0.70       0.0  T
   2   -203.9375246 -0.106665E-03  0.147E-01    0.72       1.0  T
   3   -203.9367083  0.816250E-03  0.869E-02    0.69       1.0  T
   4   -203.9376388 -0.930424E-03  0.247E-02    0.71       1.0  T
   5   -203.9376713 -0.325502E-04  0.137E-02    0.71       1.0  T
   6   -203.9376792 -0.787127E-05  0.555E-03    0.71       1.8  T
   7   -203.9376813 -0.210284E-05  0.280E-03    0.71       3.6  T
   8   -203.9376816 -0.320670E-06  0.194E-03    0.71       5.2  T
     SCC iter.                  ...        0 min,  0.096 sec
     gradient                   ...        0 min,  0.022 sec
 * total energy  :  -201.1211620 Eh     change       -0.3256022E-02 Eh
   gradient norm :     0.0251483 Eh/α   predicted    -0.3341877E-02 (   2.64%)
   displ. norm   :     0.6659291 α      lambda       -0.6486315E-02
   maximum displ.:     0.2116128 α      in ANC's #54, #22, #52, ...

........................................................................
.............................. CYCLE    5 ..............................
........................................................................
   1   -203.9487289 -0.203949E+03  0.393E-01    0.66       0.0  T
   2   -203.9489074 -0.178512E-03  0.212E-01    0.68       1.0  T
   3   -203.9472122  0.169526E-02  0.122E-01    0.65       1.0  T
   4   -203.9491160 -0.190383E-02  0.307E-02    0.68       1.0  T
   5   -203.9491652 -0.491966E-04  0.170E-02    0.67       1.0  T
   6   -203.9491781 -0.128726E-04  0.700E-03    0.67       1.4  T
   7   -203.9491812 -0.309015E-05  0.389E-03    0.67       2.6  T
   8   -203.9491816 -0.426763E-06  0.281E-03    0.67       3.6  T
     SCC iter.                  ...        0 min,  0.107 sec
     gradient                   ...        0 min,  0.023 sec
 * total energy  :  -201.1227487 Eh     change       -0.1586734E-02 Eh
   gradient norm :     0.0333084 Eh/α   predicted    -0.4681375E-02 ( 195.03%)
   displ. norm   :     0.3008173 α      lambda       -0.3818072E-02
   maximum displ.:     0.1006307 α      in ANC's #22, #27, #36, ...

........................................................................
.............................. CYCLE    6 ..............................
........................................................................
   1   -203.9527251 -0.203953E+03  0.218E-01    0.69       0.0  T
   2   -203.9527805 -0.553579E-04  0.119E-01    0.70       1.0  T
   3   -203.9526981  0.823603E-04  0.315E-02    0.70       1.0  T
   4   -203.9528033 -0.105186E-03  0.105E-02    0.70       1.0  T
   5   -203.9528074 -0.407501E-05  0.563E-03    0.70       1.8  T
   6   -203.9528090 -0.161889E-05  0.311E-03    0.70       3.3  T
     SCC iter.                  ...        0 min,  0.080 sec
     gradient                   ...        0 min,  0.022 sec
 * total energy  :  -201.1246024 Eh     change       -0.1853680E-02 Eh
   gradient norm :     0.0254088 Eh/α   predicted    -0.2081788E-02 (  12.31%)
   displ. norm   :     0.4112792 α      lambda       -0.3230606E-02
   maximum displ.:     0.1412166 α      in ANC's #13, #22, #37, ...

........................................................................
.............................. CYCLE    7 ..............................
........................................................................
   1   -203.9396584 -0.203940E+03  0.299E-01    0.73       0.0  T
   2   -203.9397701 -0.111716E-03  0.164E-01    0.74       1.0  T
   3   -203.9394189  0.351196E-03  0.624E-02    0.74       1.0  T
   4   -203.9398273 -0.408349E-03  0.148E-02    0.74       1.0  T
   5   -203.9398370 -0.970917E-05  0.912E-03    0.74       1.1  T
   6   -203.9398432 -0.622459E-05  0.400E-03    0.74       2.5  T
   7   -203.9398441 -0.886772E-06  0.219E-03    0.74       4.6  T
   8   -203.9398443 -0.231339E-06  0.124E-03    0.74       8.2  T
     SCC iter.                  ...        0 min,  0.104 sec
     gradient                   ...        0 min,  0.022 sec
 * total energy  :  -201.1243590 Eh     change        0.2433594E-03 Eh
   gradient norm :     0.0379853 Eh/α   predicted    -0.1888539E-02 (-876.03%)
   displ. norm   :     0.2666878 α      lambda       -0.3916420E-02
   maximum displ.:     0.1059257 α      in ANC's #28, #25, #11, ...

........................................................................
.............................. CYCLE    8 ..............................
........................................................................
   1   -203.9512153 -0.203951E+03  0.204E-01    0.73       0.0  T
   2   -203.9512766 -0.612896E-04  0.112E-01    0.73       1.0  T
   3   -203.9511652  0.111396E-03  0.393E-02    0.73       1.0  T
   4   -203.9513081 -0.142875E-03  0.794E-03    0.73       1.3  T
   5   -203.9513099 -0.187163E-05  0.503E-03    0.73       2.0  T
   6   -203.9513115 -0.154398E-05  0.215E-03    0.73       4.7  T
     SCC iter.                  ...        0 min,  0.077 sec
     gradient                   ...        0 min,  0.022 sec
 * total energy  :  -201.1259699 Eh     change       -0.1610806E-02 Eh
   gradient norm :     0.0205201 Eh/α   predicted    -0.2097482E-02 (  30.21%)
   displ. norm   :     0.3309450 α      lambda       -0.1804411E-02
   maximum displ.:     0.1107652 α      in ANC's #18, #9, #24, ...

........................................................................
.............................. CYCLE    9 ..............................
........................................................................
   1   -203.9501547 -0.203950E+03  0.222E-01    0.71       0.0  T
   2   -203.9502079 -0.532355E-04  0.121E-01    0.71       1.0  T
   3   -203.9498211  0.386848E-03  0.594E-02    0.70       1.0  T
   4   -203.9502588 -0.437776E-03  0.122E-02    0.71       1.0  T
   5   -203.9502643 -0.545370E-05  0.790E-03    0.71       1.3  T
   6   -203.9502683 -0.398842E-05  0.293E-03    0.71       3.5  T
   7   -203.9502688 -0.566655E-06  0.160E-03    0.71       6.3  T
     SCC iter.                  ...        0 min,  0.090 sec
     gradient                   ...        0 min,  0.022 sec
 * total energy  :  -201.1263289 Eh     change       -0.3590179E-03 Eh
   gradient norm :     0.0176498 Eh/α   predicted    -0.1001019E-02 ( 178.82%)
   displ. norm   :     0.2836348 α      lambda       -0.1366091E-02
   maximum displ.:     0.1046739 α      in ANC's #22, #9, #18, ...

........................................................................
.............................. CYCLE   10 ..............................
........................................................................
   1   -203.9528213 -0.203953E+03  0.130E-01    0.71       0.0  T
   2   -203.9528397 -0.183283E-04  0.712E-02    0.72       1.0  T
   3   -203.9527317  0.107971E-03  0.309E-02    0.71       1.0  T
   4   -203.9528501 -0.118406E-03  0.879E-03    0.72       1.2  T
   5   -203.9528529 -0.281608E-05  0.556E-03    0.72       1.8  T
   6   -203.9528553 -0.234770E-05  0.209E-03    0.72       4.9  T
   7   -203.9528555 -0.263917E-06  0.111E-03    0.72       9.1  T
     SCC iter.                  ...        0 min,  0.088 sec
     gradient                   ...        0 min,  0.022 sec
 * total energy  :  -201.1272437 Eh     change       -0.9148135E-03 Eh
   gradient norm :     0.0105400 Eh/α   predicted    -0.7379999E-03 ( -19.33%)
   displ. norm   :     0.4840103 α      lambda       -0.1065649E-02
   maximum displ.:     0.1974960 α      in ANC's #9, #18, #22, ...

........................................................................
.............................. CYCLE   11 ..............................
........................................................................
   1   -203.9511183 -0.203951E+03  0.166E-01    0.72       0.0  T
   2   -203.9511426 -0.242900E-04  0.903E-02    0.72       1.0  T
   3   -203.9510298  0.112836E-03  0.339E-02    0.72       1.0  T
   4   -203.9511535 -0.123727E-03  0.127E-02    0.72       1.0  T
   5   -203.9511574 -0.387692E-05  0.757E-03    0.72       1.3  T
   6   -203.9511619 -0.454193E-05  0.274E-03    0.72       3.7  T
   7   -203.9511624 -0.466228E-06  0.169E-03    0.72       6.0  T
   8   -203.9511625 -0.800860E-07  0.110E-03    0.72       9.2  T
     SCC iter.                  ...        0 min,  0.101 sec
     gradient                   ...        0 min,  0.022 sec
 * total energy  :  -201.1280270 Eh     change       -0.7833146E-03 Eh
   gradient norm :     0.0097196 Eh/α   predicted    -0.6576508E-03 ( -16.04%)
   displ. norm   :     0.6347877 α      lambda       -0.1044549E-02
   maximum displ.:     0.2752237 α      in ANC's #9, #18, #5, ...

........................................................................
.............................. CYCLE   12 ..............................
........................................................................
   1   -203.9480619 -0.203948E+03  0.205E-01    0.71       0.0  T
   2   -203.9480941 -0.322156E-04  0.110E-01    0.72       1.0  T
   3   -203.9478798  0.214325E-03  0.457E-02    0.71       1.0  T
   4   -203.9481156 -0.235791E-03  0.161E-02    0.72       1.0  T
   5   -203.9481170 -0.142441E-05  0.946E-03    0.72       1.1  T
   6   -203.9481252 -0.815672E-05  0.343E-03    0.72       3.0  T
   7   -203.9481259 -0.766466E-06  0.216E-03    0.72       4.7  T
   8   -203.9481261 -0.165285E-06  0.132E-03    0.72       7.7  T
     SCC iter.                  ...        0 min,  0.098 sec
     gradient                   ...        0 min,  0.022 sec
 * total energy  :  -201.1288596 Eh     change       -0.8326043E-03 Eh
   gradient norm :     0.0132203 Eh/α   predicted    -0.7327301E-03 ( -12.00%)
   displ. norm   :     0.6758642 α      lambda       -0.1121662E-02
   maximum displ.:     0.3070140 α      in ANC's #9, #5, #7, ...

........................................................................
.............................. CYCLE   13 ..............................
........................................................................
   1   -203.9538376 -0.203954E+03  0.213E-01    0.71       0.0  T
   2   -203.9538783 -0.406481E-04  0.114E-01    0.71       1.0  T
   3   -203.9537703  0.108026E-03  0.381E-02    0.70       1.0  T
   4   -203.9538926 -0.122312E-03  0.162E-02    0.71       1.0  T
   5   -203.9538955 -0.288276E-05  0.999E-03    0.71       1.0  T
   6   -203.9539043 -0.888244E-05  0.311E-03    0.71       3.3  T
   7   -203.9539050 -0.633148E-06  0.183E-03    0.71       5.6  T
   8   -203.9539050 -0.232383E-07  0.123E-03    0.71       8.3  T
     SCC iter.                  ...        0 min,  0.099 sec
     gradient                   ...        0 min,  0.022 sec
 * total energy  :  -201.1297415 Eh     change       -0.8818686E-03 Eh
   gradient norm :     0.0110566 Eh/α   predicted    -0.8170154E-03 (  -7.35%)
   displ. norm   :     0.6634461 α      lambda       -0.9740577E-03
   maximum displ.:     0.3173124 α      in ANC's #9, #5, #7, ...

........................................................................
.............................. CYCLE   14 ..............................
........................................................................
   1   -203.9557036 -0.203956E+03  0.199E-01    0.70       0.0  T
   2   -203.9557371 -0.335677E-04  0.106E-01    0.71       1.0  T
   3   -203.9556335  0.103675E-03  0.354E-02    0.70       1.0  T
   4   -203.9557508 -0.117351E-03  0.151E-02    0.70       1.0  T
   5   -203.9557552 -0.436275E-05  0.791E-03    0.70       1.3  T
   6   -203.9557596 -0.438560E-05  0.306E-03    0.70       3.3  T
   7   -203.9557601 -0.524103E-06  0.187E-03    0.70       5.4  T
   8   -203.9557601 -0.405896E-07  0.138E-03    0.70       7.4  T
     SCC iter.                  ...        0 min,  0.098 sec
     gradient                   ...        0 min,  0.022 sec
 * total energy  :  -201.1305372 Eh     change       -0.7957463E-03 Eh
   gradient norm :     0.0079568 Eh/α   predicted    -0.7013999E-03 ( -11.86%)
   displ. norm   :     0.7019089 α      lambda       -0.8011418E-03
   maximum displ.:     0.3462155 α      in ANC's #9, #5, #7, ...

........................................................................
.............................. CYCLE   15 ..............................
........................................................................
   1   -203.9540991 -0.203954E+03  0.208E-01    0.70       0.0  T
   2   -203.9541343 -0.352356E-04  0.110E-01    0.71       1.0  T
   3   -203.9540289  0.105390E-03  0.355E-02    0.70       1.0  T
   4   -203.9541472 -0.118234E-03  0.158E-02    0.70       1.0  T
   5   -203.9541520 -0.483200E-05  0.866E-03    0.71       1.2  T
   6   -203.9541574 -0.540066E-05  0.376E-03    0.70       2.7  T
   7   -203.9541585 -0.107014E-05  0.216E-03    0.70       4.7  T
   8   -203.9541586 -0.863583E-07  0.156E-03    0.70       6.5  T
     SCC iter.                  ...        0 min,  0.098 sec
     gradient                   ...        0 min,  0.022 sec
 * total energy  :  -201.1312369 Eh     change       -0.6996776E-03 Eh
   gradient norm :     0.0077193 Eh/α   predicted    -0.5979293E-03 ( -14.54%)
   displ. norm   :     0.7111490 α      lambda       -0.8153482E-03
   maximum displ.:     0.3602794 α      in ANC's #9, #5, #7, ...

........................................................................
.............................. CYCLE   16 ..............................
........................................................................
   1   -203.9582873 -0.203958E+03  0.211E-01    0.71       0.0  T
   2   -203.9583238 -0.365087E-04  0.110E-01    0.71       1.0  T
   3   -203.9581610  0.162790E-03  0.400E-02    0.70       1.0  T
   4   -203.9583409 -0.179926E-03  0.159E-02    0.71       1.0  T
   5   -203.9583450 -0.404079E-05  0.953E-03    0.71       1.1  T
   6   -203.9583522 -0.727694E-05  0.457E-03    0.71       2.2  T
   7   -203.9583540 -0.177801E-05  0.231E-03    0.71       4.4  T
   8   -203.9583541 -0.991117E-07  0.173E-03    0.71       5.9  T
     SCC iter.                  ...        0 min,  0.100 sec
     gradient                   ...        0 min,  0.022 sec
 * total energy  :  -201.1319295 Eh     change       -0.6925938E-03 Eh
   gradient norm :     0.0077790 Eh/α   predicted    -0.6138534E-03 ( -11.37%)
   displ. norm   :     0.7677628 α      lambda       -0.8046927E-03
   maximum displ.:     0.3900198 α      in ANC's #9, #5, #7, ...

........................................................................
.............................. CYCLE   17 ..............................
........................................................................
   1   -203.9537337 -0.203954E+03  0.228E-01    0.71       0.0  T
   2   -203.9537766 -0.429386E-04  0.119E-01    0.72       1.0  T
   3   -203.9536754  0.101275E-03  0.361E-02    0.71       1.0  T
   4   -203.9537902 -0.114861E-03  0.166E-02    0.72       1.0  T
   5   -203.9537980 -0.777115E-05  0.866E-03    0.72       1.2  T
   6   -203.9538032 -0.518707E-05  0.387E-03    0.72       2.6  T
   7   -203.9538041 -0.877495E-06  0.251E-03    0.72       4.0  T
   8   -203.9538041 -0.354313E-07  0.179E-03    0.72       5.7  T
     SCC iter.                  ...        0 min,  0.099 sec
     gradient                   ...        0 min,  0.022 sec
 * total energy  :  -201.1325888 Eh     change       -0.6593369E-03 Eh
   gradient norm :     0.0082315 Eh/α   predicted    -0.6395157E-03 (  -3.01%)
   displ. norm   :     0.7132078 α      lambda       -0.7227212E-03
   maximum displ.:     0.3630069 α      in ANC's #9, #5, #2, ...

........................................................................
.............................. CYCLE   18 ..............................
........................................................................
   1   -203.9545969 -0.203955E+03  0.209E-01    0.71       0.0  T
   2   -203.9546323 -0.354322E-04  0.108E-01    0.72       1.0  T
   3   -203.9544839  0.148381E-03  0.382E-02    0.71       1.0  T
   4   -203.9546468 -0.162929E-03  0.152E-02    0.72       1.0  T
   5   -203.9546521 -0.522574E-05  0.908E-03    0.72       1.1  T
   6   -203.9546586 -0.647753E-05  0.437E-03    0.72       2.3  T
   7   -203.9546601 -0.157164E-05  0.237E-03    0.72       4.3  T
   8   -203.9546602 -0.100863E-06  0.181E-03    0.72       5.6  T
     SCC iter.                  ...        0 min,  0.098 sec
     gradient                   ...        0 min,  0.022 sec
 * total energy  :  -201.1332063 Eh     change       -0.6174775E-03 Eh
   gradient norm :     0.0078103 Eh/α   predicted    -0.5451742E-03 ( -11.71%)
   displ. norm   :     0.7335605 α      lambda       -0.6928949E-03
   maximum displ.:     0.3702239 α      in ANC's #9, #5, #2, ...

........................................................................
.............................. CYCLE   19 ..............................
........................................................................
   1   -203.9570122 -0.203957E+03  0.208E-01    0.72       0.0  T
   2   -203.9570422 -0.300053E-04  0.108E-01    0.73       1.0  T
   3   -203.9569230  0.119148E-03  0.355E-02    0.71       1.0  T
   4   -203.9570524 -0.129384E-03  0.151E-02    0.72       1.0  T
   5   -203.9570554 -0.301733E-05  0.977E-03    0.72       1.0  T
   6   -203.9570643 -0.889878E-05  0.421E-03    0.72       2.4  T
   7   -203.9570657 -0.139432E-05  0.236E-03    0.72       4.3  T
   8   -203.9570658 -0.683741E-07  0.178E-03    0.72       5.7  T
     SCC iter.                  ...        0 min,  0.097 sec
     gradient                   ...        0 min,  0.022 sec
 * total energy  :  -201.1337967 Eh     change       -0.5903847E-03 Eh
   gradient norm :     0.0076053 Eh/α   predicted    -0.5328824E-03 (  -9.74%)
   displ. norm   :     0.7468744 α      lambda       -0.6754639E-03
   maximum displ.:     0.3718743 α      in ANC's #9, #5, #2, ...

........................................................................
.............................. CYCLE   20 ..............................
........................................................................
   1   -203.9585398 -0.203959E+03  0.198E-01    0.71       0.0  T
   2   -203.9585701 -0.303416E-04  0.103E-01    0.72       1.0  T
   3   -203.9584706  0.995706E-04  0.329E-02    0.71       1.0  T
   4   -203.9585806 -0.110007E-03  0.139E-02    0.72       1.0  T
   5   -203.9585837 -0.309471E-05  0.846E-03    0.72       1.2  T
   6   -203.9585896 -0.592719E-05  0.391E-03    0.72       2.6  T
   7   -203.9585908 -0.124838E-05  0.215E-03    0.72       4.7  T
   8   -203.9585909 -0.220662E-07  0.169E-03    0.72       6.0  T
     SCC iter.                  ...        0 min,  0.097 sec
     gradient                   ...        0 min,  0.022 sec
 * total energy  :  -201.1343637 Eh     change       -0.5670005E-03 Eh
   gradient norm :     0.0083064 Eh/α   predicted    -0.5261325E-03 (  -7.21%)
   displ. norm   :     0.7411362 α      lambda       -0.6698039E-03
   maximum displ.:     0.3648833 α      in ANC's #9, #5, #2, ...
 * RMSD in coord.:     0.8953198 α      energy gain  -0.5753985E-01 Eh

generating ANC from model Hessian ...
Using Lindh-Hessian (1995)
 Shifting diagonal of input Hessian by   5.053466780649184E-003
 Lowest  eigenvalues of input Hessian
    0.005000   -0.000000   -0.000000   -0.000000   -0.000000   -0.000000
    0.000000    0.005076    0.005086    0.005118    0.005156    0.005202
    0.005323    0.005393    0.005560    0.005695    0.005801    0.006069
 Highest eigenvalues
    2.287582    2.308709    2.586719    2.607153    2.646402    2.647864
 

........................................................................
.............................. CYCLE   21 ..............................
........................................................................
   1   -203.9529636 -0.203953E+03  0.189E-01    0.71       0.0  T
   2   -203.9529927 -0.291323E-04  0.994E-02    0.72       1.0  T
   3   -203.9528775  0.115223E-03  0.360E-02    0.71       1.0  T
   4   -203.9530006 -0.123119E-03  0.150E-02    0.71       1.0  T
   5   -203.9530027 -0.211560E-05  0.108E-02    0.71       1.0  T
   6   -203.9530137 -0.109453E-04  0.387E-03    0.71       2.6  T
   7   -203.9530149 -0.117370E-05  0.209E-03    0.71       4.9  T
   8   -203.9530149 -0.456379E-07  0.159E-03    0.71       6.4  T
   9   -203.9530150 -0.644138E-07  0.872E-04    0.71      11.6  T
  10   -203.9530150 -0.213473E-07  0.519E-04    0.71      19.6  T
     SCC iter.                  ...        0 min,  0.131 sec
     gradient                   ...        0 min,  0.024 sec
 * total energy  :  -201.1348525 Eh     change       -0.4887904E-03 Eh
   gradient norm :     0.0096690 Eh/α   predicted     0.0000000E+00 (-100.00%)
   displ. norm   :     0.1701667 α      lambda       -0.3694697E-03
   maximum displ.:     0.0797336 α      in ANC's #4, #6, #16, ...

........................................................................
.............................. CYCLE   22 ..............................
........................................................................
   1   -203.9573481 -0.203957E+03  0.802E-02    0.71       0.0  T
   2   -203.9573550 -0.692475E-05  0.419E-02    0.71       1.0  T
   3   -203.9573471  0.786967E-05  0.120E-02    0.71       1.0  T
   4   -203.9573567 -0.959754E-05  0.570E-03    0.71       1.8  T
   5   -203.9573573 -0.619144E-06  0.309E-03    0.71       3.3  T
   6   -203.9573582 -0.859132E-06  0.121E-03    0.71       8.4  T
   7   -203.9573583 -0.894923E-07  0.757E-04    0.71      13.4  T
     SCC iter.                  ...        0 min,  0.086 sec
     gradient                   ...        0 min,  0.022 sec
 * total energy  :  -201.1350834 Eh     change       -0.2309622E-03 Eh
   gradient norm :     0.0052052 Eh/α   predicted    -0.1901735E-03 ( -17.66%)
   displ. norm   :     0.2734123 α      lambda       -0.6050098E-03
   maximum displ.:     0.1000118 α      in ANC's #7, #4, #1, ...

........................................................................
.............................. CYCLE   23 ..............................
........................................................................
   1   -203.9636885 -0.203964E+03  0.172E-01    0.71       0.0  T
   2   -203.9637191 -0.306151E-04  0.922E-02    0.71       1.0  T
   3   -203.9636997  0.194398E-04  0.198E-02    0.71       1.0  T
   4   -203.9637246 -0.248594E-04  0.111E-02    0.71       1.0  T
   5   -203.9637301 -0.556519E-05  0.553E-03    0.71       1.8  T
   6   -203.9637326 -0.243959E-05  0.244E-03    0.71       4.2  T
   7   -203.9637330 -0.420812E-06  0.147E-03    0.71       6.9  T
     SCC iter.                  ...        0 min,  0.087 sec
     gradient                   ...        0 min,  0.022 sec
 * total energy  :  -201.1349708 Eh     change        0.1126819E-03 Eh
   gradient norm :     0.0163549 Eh/α   predicted    -0.3251187E-03 (-388.53%)
   displ. norm   :     0.1448778 α      lambda       -0.8514142E-03
   maximum displ.:     0.0457039 α      in ANC's #33, #6, #4, ...

........................................................................
.............................. CYCLE   24 ..............................
........................................................................
   1   -203.9642115 -0.203964E+03  0.112E-01    0.71       0.0  T
   2   -203.9642242 -0.127072E-04  0.616E-02    0.71       1.0  T
   3   -203.9641758  0.483743E-04  0.219E-02    0.71       1.0  T
   4   -203.9642322 -0.563448E-04  0.448E-03    0.71       2.3  T
   5   -203.9642330 -0.782326E-06  0.286E-03    0.71       3.6  T
   6   -203.9642335 -0.505291E-06  0.138E-03    0.71       7.3  T
     SCC iter.                  ...        0 min,  0.074 sec
     gradient                   ...        0 min,  0.022 sec
 * total energy  :  -201.1353687 Eh     change       -0.3979809E-03 Eh
   gradient norm :     0.0092836 Eh/α   predicted    -0.4346455E-03 (   9.21%)
   displ. norm   :     0.1487972 α      lambda       -0.4671502E-03
   maximum displ.:     0.0551477 α      in ANC's #4, #6, #10, ...

........................................................................
.............................. CYCLE   25 ..............................
........................................................................
   1   -203.9575406 -0.203958E+03  0.883E-02    0.71       0.0  T
   2   -203.9575491 -0.854762E-05  0.479E-02    0.71       1.0  T
   3   -203.9575021  0.470163E-04  0.219E-02    0.71       1.0  T
   4   -203.9575560 -0.539366E-04  0.485E-03    0.71       2.1  T
   5   -203.9575567 -0.663294E-06  0.305E-03    0.71       3.3  T
   6   -203.9575574 -0.669284E-06  0.131E-03    0.71       7.8  T
   7   -203.9575575 -0.143069E-06  0.692E-04    0.71      14.7  T
     SCC iter.                  ...        0 min,  0.087 sec
     gradient                   ...        0 min,  0.022 sec
 * total energy  :  -201.1355203 Eh     change       -0.1515720E-03 Eh
   gradient norm :     0.0071163 Eh/α   predicted    -0.2387466E-03 (  57.51%)
   displ. norm   :     0.2291285 α      lambda       -0.3321683E-03
   maximum displ.:     0.0981747 α      in ANC's #4, #6, #10, ...

........................................................................
.............................. CYCLE   26 ..............................
........................................................................
   1   -203.9579172 -0.203958E+03  0.875E-02    0.71       0.0  T
   2   -203.9579253 -0.802209E-05  0.466E-02    0.71       1.0  T
   3   -203.9579184  0.682136E-05  0.123E-02    0.71       1.0  T
   4   -203.9579269 -0.844886E-05  0.637E-03    0.71       1.6  T
   5   -203.9579278 -0.933604E-06  0.329E-03    0.71       3.1  T
   6   -203.9579289 -0.105368E-05  0.122E-03    0.71       8.3  T
   7   -203.9579290 -0.886761E-07  0.761E-04    0.71      13.3  T
     SCC iter.                  ...        0 min,  0.086 sec
     gradient                   ...        0 min,  0.022 sec
 * total energy  :  -201.1357901 Eh     change       -0.2697901E-03 Eh
   gradient norm :     0.0044764 Eh/α   predicted    -0.1748067E-03 ( -35.21%)
   displ. norm   :     0.6092069 α      lambda       -0.6735179E-03
   maximum displ.:     0.2620420 α      in ANC's #4, #6, #10, ...

........................................................................
.............................. CYCLE   27 ..............................
........................................................................
   1   -203.9573073 -0.203957E+03  0.214E-01    0.70       0.0  T
   2   -203.9573517 -0.444150E-04  0.114E-01    0.71       1.0  T
   3   -203.9572610  0.907515E-04  0.368E-02    0.70       1.0  T
   4   -203.9573529 -0.919318E-04  0.191E-02    0.71       1.0  T
   5   -203.9573627 -0.979375E-05  0.116E-02    0.71       1.0  T
   6   -203.9573758 -0.131049E-04  0.415E-03    0.71       2.4  T
   7   -203.9573774 -0.157998E-05  0.212E-03    0.71       4.8  T
   8   -203.9573774 -0.619421E-07  0.147E-03    0.71       6.9  T
     SCC iter.                  ...        0 min,  0.099 sec
     gradient                   ...        0 min,  0.022 sec
 * total energy  :  -201.1362295 Eh     change       -0.4393776E-03 Eh
   gradient norm :     0.0108183 Eh/α   predicted    -0.4617450E-03 (   5.09%)
   displ. norm   :     0.6171295 α      lambda       -0.6409622E-03
   maximum displ.:     0.2732039 α      in ANC's #4, #6, #10, ...

........................................................................
.............................. CYCLE   28 ..............................
........................................................................
   1   -203.9536050 -0.203954E+03  0.200E-01    0.70       0.0  T
   2   -203.9536422 -0.372373E-04  0.107E-01    0.70       1.0  T
   3   -203.9535152  0.126998E-03  0.382E-02    0.69       1.0  T
   4   -203.9536492 -0.133999E-03  0.171E-02    0.70       1.0  T
   5   -203.9536593 -0.100958E-04  0.971E-03    0.70       1.0  T
   6   -203.9536692 -0.984541E-05  0.350E-03    0.70       2.9  T
   7   -203.9536701 -0.875769E-06  0.202E-03    0.70       5.0  T
   8   -203.9536701 -0.204611E-07  0.150E-03    0.70       6.8  T
     SCC iter.                  ...        0 min,  0.099 sec
     gradient                   ...        0 min,  0.022 sec
 * total energy  :  -201.1367108 Eh     change       -0.4813657E-03 Eh
   gradient norm :     0.0141374 Eh/α   predicted    -0.4425403E-03 (  -8.07%)
   displ. norm   :     0.5652995 α      lambda       -0.7205676E-03
   maximum displ.:     0.2657227 α      in ANC's #6, #4, #10, ...

........................................................................
.............................. CYCLE   29 ..............................
........................................................................
   1   -203.9547662 -0.203955E+03  0.165E-01    0.69       0.0  T
   2   -203.9547926 -0.264370E-04  0.884E-02    0.70       1.0  T
   3   -203.9545676  0.225031E-03  0.460E-02    0.69       1.0  T
   4   -203.9548143 -0.246689E-03  0.151E-02    0.70       1.0  T
   5   -203.9548226 -0.835080E-05  0.871E-03    0.70       1.2  T
   6   -203.9548281 -0.546070E-05  0.418E-03    0.70       2.4  T
   7   -203.9548298 -0.171296E-05  0.181E-03    0.70       5.6  T
   8   -203.9548299 -0.946402E-07  0.131E-03    0.70       7.8  T
     SCC iter.                  ...        0 min,  0.097 sec
     gradient                   ...        0 min,  0.022 sec
 * total energy  :  -201.1372958 Eh     change       -0.5849722E-03 Eh
   gradient norm :     0.0081007 Eh/α   predicted    -0.4754231E-03 ( -18.73%)
   displ. norm   :     0.6346716 α      lambda       -0.8132512E-03
   maximum displ.:     0.3074174 α      in ANC's #6, #4, #10, ...

........................................................................
.............................. CYCLE   30 ..............................
........................................................................
   1   -203.9596653 -0.203960E+03  0.183E-01    0.69       0.0  T
   2   -203.9596945 -0.291478E-04  0.980E-02    0.70       1.0  T
   3   -203.9593681  0.326367E-03  0.537E-02    0.68       1.0  T
   4   -203.9597229 -0.354807E-03  0.174E-02    0.69       1.0  T
   5   -203.9597380 -0.150659E-04  0.976E-03    0.69       1.0  T
   6   -203.9597438 -0.583642E-05  0.453E-03    0.69       2.2  T
   7   -203.9597457 -0.185440E-05  0.216E-03    0.69       4.7  T
   8   -203.9597459 -0.174044E-06  0.152E-03    0.69       6.7  T
     SCC iter.                  ...        0 min,  0.098 sec
     gradient                   ...        0 min,  0.022 sec
 * total energy  :  -201.1379689 Eh     change       -0.6730786E-03 Eh
   gradient norm :     0.0093867 Eh/α   predicted    -0.5704190E-03 ( -15.25%)
   displ. norm   :     0.7633908 α      lambda       -0.7930390E-03
   maximum displ.:     0.3675890 α      in ANC's #6, #4, #10, ...

........................................................................
.............................. CYCLE   31 ..............................
........................................................................
   1   -203.9567332 -0.203957E+03  0.220E-01    0.69       0.0  T
   2   -203.9567704 -0.372413E-04  0.118E-01    0.69       1.0  T
   3   -203.9564504  0.320060E-03  0.561E-02    0.68       1.0  T
   4   -203.9567866 -0.336262E-03  0.212E-02    0.69       1.0  T
   5   -203.9568072 -0.205912E-04  0.125E-02    0.69       1.0  T
   6   -203.9568191 -0.119194E-04  0.508E-03    0.69       2.0  T
   7   -203.9568215 -0.232395E-05  0.257E-03    0.69       4.0  T
   8   -203.9568216 -0.127973E-06  0.190E-03    0.69       5.4  T
     SCC iter.                  ...        0 min,  0.098 sec
     gradient                   ...        0 min,  0.022 sec
 * total energy  :  -201.1386091 Eh     change       -0.6402072E-03 Eh
   gradient norm :     0.0105123 Eh/α   predicted    -0.6276042E-03 (  -1.97%)
   displ. norm   :     0.6350283 α      lambda       -0.7318753E-03
   maximum displ.:     0.3300202 α      in ANC's #6, #4, #10, ...

........................................................................
.............................. CYCLE   32 ..............................
........................................................................
   1   -203.9643649 -0.203964E+03  0.176E-01    0.69       0.0  T
   2   -203.9643950 -0.301442E-04  0.933E-02    0.69       1.0  T
   3   -203.9639823  0.412792E-03  0.597E-02    0.68       1.0  T
   4   -203.9644365 -0.454198E-03  0.168E-02    0.69       1.0  T
   5   -203.9644500 -0.135743E-04  0.100E-02    0.69       1.0  T
   6   -203.9644548 -0.477830E-05  0.528E-03    0.69       1.9  T
   7   -203.9644574 -0.261489E-05  0.235E-03    0.69       4.3  T
   8   -203.9644577 -0.313460E-06  0.158E-03    0.69       6.4  T
     SCC iter.                  ...        0 min,  0.099 sec
     gradient                   ...        0 min,  0.022 sec
 * total energy  :  -201.1390889 Eh     change       -0.4798435E-03 Eh
   gradient norm :     0.0100677 Eh/α   predicted    -0.5135084E-03 (   7.02%)
   displ. norm   :     0.6631717 α      lambda       -0.5674040E-03
   maximum displ.:     0.3361861 α      in ANC's #6, #4, #10, ...

........................................................................
.............................. CYCLE   33 ..............................
........................................................................
   1   -203.9580439 -0.203958E+03  0.181E-01    0.69       0.0  T
   2   -203.9580693 -0.253863E-04  0.970E-02    0.69       1.0  T
   3   -203.9579699  0.993958E-04  0.340E-02    0.68       1.0  T
   4   -203.9580683 -0.984097E-04  0.164E-02    0.69       1.0  T
   5   -203.9580796 -0.113206E-04  0.945E-03    0.69       1.1  T
   6   -203.9580876 -0.795171E-05  0.353E-03    0.69       2.9  T
   7   -203.9580885 -0.953238E-06  0.212E-03    0.69       4.8  T
   8   -203.9580885 -0.294384E-07  0.155E-03    0.69       6.6  T
     SCC iter.                  ...        0 min,  0.103 sec
     gradient                   ...        0 min,  0.022 sec
 * total energy  :  -201.1394754 Eh     change       -0.3864283E-03 Eh
   gradient norm :     0.0085138 Eh/α   predicted    -0.4084737E-03 (   5.70%)
   displ. norm   :     0.4051193 α      lambda       -0.3955490E-03
   maximum displ.:     0.2266469 α      in ANC's #6, #4, #10, ...

........................................................................
.............................. CYCLE   34 ..............................
........................................................................
   1   -203.9616621 -0.203962E+03  0.120E-01    0.69       0.0  T
   2   -203.9616748 -0.127562E-04  0.603E-02    0.69       1.0  T
   3   -203.9616332  0.416556E-04  0.217E-02    0.69       1.0  T
   4   -203.9616764 -0.432153E-04  0.992E-03    0.69       1.0  T
   5   -203.9616798 -0.339420E-05  0.524E-03    0.69       1.9  T
   6   -203.9616822 -0.246010E-05  0.202E-03    0.69       5.0  T
   7   -203.9616825 -0.227543E-06  0.128E-03    0.69       7.9  T
     SCC iter.                  ...        0 min,  0.089 sec
     gradient                   ...        0 min,  0.022 sec
 * total energy  :  -201.1397835 Eh     change       -0.3080883E-03 Eh
   gradient norm :     0.0073451 Eh/α   predicted    -0.2302348E-03 ( -25.27%)
   displ. norm   :     0.5147556 α      lambda       -0.4288090E-03
   maximum displ.:     0.2928550 α      in ANC's #6, #4, #10, ...

........................................................................
.............................. CYCLE   35 ..............................
........................................................................
   1   -203.9628700 -0.203963E+03  0.143E-01    0.69       0.0  T
   2   -203.9628916 -0.215829E-04  0.732E-02    0.69       1.0  T
   3   -203.9628541  0.375163E-04  0.222E-02    0.68       1.0  T
   4   -203.9628951 -0.409485E-04  0.107E-02    0.69       1.0  T
   5   -203.9628991 -0.407748E-05  0.516E-03    0.69       2.0  T
   6   -203.9629009 -0.176871E-05  0.285E-03    0.69       3.6  T
   7   -203.9629017 -0.753052E-06  0.148E-03    0.69       6.9  T
     SCC iter.                  ...        0 min,  0.086 sec
     gradient                   ...        0 min,  0.022 sec
 * total energy  :  -201.1400916 Eh     change       -0.3081004E-03 Eh
   gradient norm :     0.0065265 Eh/α   predicted    -0.2712225E-03 ( -11.97%)
   displ. norm   :     0.5173861 α      lambda       -0.3897963E-03
   maximum displ.:     0.3026361 α      in ANC's #6, #4, #7, ...

........................................................................
.............................. CYCLE   36 ..............................
........................................................................
   1   -203.9650433 -0.203965E+03  0.140E-01    0.69       0.0  T
   2   -203.9650648 -0.215294E-04  0.725E-02    0.69       1.0  T
   3   -203.9650488  0.159469E-04  0.183E-02    0.69       1.0  T
   4   -203.9650633 -0.144947E-04  0.113E-02    0.69       1.0  T
   5   -203.9650679 -0.456740E-05  0.636E-03    0.69       1.6  T
   6   -203.9650717 -0.374625E-05  0.259E-03    0.69       3.9  T
   7   -203.9650722 -0.520016E-06  0.149E-03    0.69       6.8  T
   8   -203.9650722 -0.513799E-07  0.103E-03    0.69       9.9  T
     SCC iter.                  ...        0 min,  0.099 sec
     gradient                   ...        0 min,  0.022 sec
 * total energy  :  -201.1403557 Eh     change       -0.2641621E-03 Eh
   gradient norm :     0.0109480 Eh/α   predicted    -0.2470716E-03 (  -6.47%)
   displ. norm   :     0.4907391 α      lambda       -0.3368144E-03
   maximum displ.:     0.2888590 α      in ANC's #6, #4, #7, ...

........................................................................
.............................. CYCLE   37 ..............................
........................................................................
   1   -203.9655463 -0.203966E+03  0.132E-01    0.68       0.0  T
   2   -203.9655630 -0.167198E-04  0.691E-02    0.68       1.0  T
   3   -203.9655198  0.432186E-04  0.225E-02    0.68       1.0  T
   4   -203.9655604 -0.405937E-04  0.122E-02    0.68       1.0  T
   5   -203.9655673 -0.692196E-05  0.683E-03    0.69       1.5  T
   6   -203.9655716 -0.423520E-05  0.236E-03    0.68       4.3  T
   7   -203.9655720 -0.404622E-06  0.130E-03    0.68       7.8  T
   8   -203.9655720 -0.196968E-07  0.915E-04    0.68      11.1  T
     SCC iter.                  ...        0 min,  0.097 sec
     gradient                   ...        0 min,  0.022 sec
 * total energy  :  -201.1405938 Eh     change       -0.2381196E-03 Eh
   gradient norm :     0.0079686 Eh/α   predicted    -0.2089692E-03 ( -12.24%)
   displ. norm   :     0.4279352 α      lambda       -0.2808886E-03
   maximum displ.:     0.2553137 α      in ANC's #6, #4, #7, ...

........................................................................
.............................. CYCLE   38 ..............................
........................................................................
   1   -203.9619523 -0.203962E+03  0.113E-01    0.68       0.0  T
   2   -203.9619632 -0.108317E-04  0.598E-02    0.69       1.0  T
   3   -203.9619146  0.485878E-04  0.229E-02    0.68       1.0  T
   4   -203.9619640 -0.494096E-04  0.993E-03    0.69       1.0  T
   5   -203.9619667 -0.276919E-05  0.624E-03    0.69       1.6  T
   6   -203.9619709 -0.413989E-05  0.184E-03    0.69       5.5  T
   7   -203.9619711 -0.239465E-06  0.106E-03    0.69       9.6  T
   8   -203.9619711 -0.170136E-07  0.760E-04    0.69      13.4  T
     SCC iter.                  ...        0 min,  0.097 sec
     gradient                   ...        0 min,  0.022 sec
 * total energy  :  -201.1408121 Eh     change       -0.2182467E-03 Eh
   gradient norm :     0.0053042 Eh/α   predicted    -0.1661664E-03 ( -23.86%)
   displ. norm   :     0.4529824 α      lambda       -0.2733937E-03
   maximum displ.:     0.2703979 α      in ANC's #6, #4, #7, ...

........................................................................
.............................. CYCLE   39 ..............................
........................................................................
   1   -203.9633852 -0.203963E+03  0.123E-01    0.68       0.0  T
   2   -203.9633963 -0.111193E-04  0.646E-02    0.69       1.0  T
   3   -203.9633412  0.550958E-04  0.244E-02    0.68       1.0  T
   4   -203.9633958 -0.546371E-04  0.109E-02    0.69       1.0  T
   5   -203.9634001 -0.424715E-05  0.667E-03    0.69       1.5  T
   6   -203.9634048 -0.473706E-05  0.157E-03    0.69       6.5  T
   7   -203.9634049 -0.137741E-06  0.973E-04    0.69      10.4  T
   8   -203.9634050 -0.124392E-07  0.654E-04    0.69      15.5  T
     SCC iter.                  ...        0 min,  0.098 sec
     gradient                   ...        0 min,  0.022 sec
 * total energy  :  -201.1410282 Eh     change       -0.2160885E-03 Eh
   gradient norm :     0.0052412 Eh/α   predicted    -0.1647480E-03 ( -23.76%)
   displ. norm   :     0.5375843 α      lambda       -0.2775774E-03
   maximum displ.:     0.3190714 α      in ANC's #6, #4, #7, ...

........................................................................
.............................. CYCLE   40 ..............................
........................................................................
   1   -203.9605100 -0.203961E+03  0.138E-01    0.68       0.0  T
   2   -203.9605236 -0.136448E-04  0.729E-02    0.69       1.0  T
   3   -203.9604833  0.403286E-04  0.223E-02    0.68       1.0  T
   4   -203.9605202 -0.369361E-04  0.121E-02    0.69       1.0  T
   5   -203.9605260 -0.577403E-05  0.686E-03    0.69       1.5  T
   6   -203.9605315 -0.547952E-05  0.173E-03    0.69       5.9  T
   7   -203.9605316 -0.120446E-06  0.120E-03    0.69       8.5  T
   8   -203.9605316 -0.124483E-07  0.821E-04    0.69      12.4  T
     SCC iter.                  ...        0 min,  0.098 sec
     gradient                   ...        0 min,  0.022 sec
 * total energy  :  -201.1412461 Eh     change       -0.2179378E-03 Eh
   gradient norm :     0.0064726 Eh/α   predicted    -0.1789000E-03 ( -17.91%)
   displ. norm   :     0.5556568 α      lambda       -0.3033509E-03
   maximum displ.:     0.3265238 α      in ANC's #6, #4, #7, ...

........................................................................
.............................. CYCLE   41 ..............................
........................................................................
   1   -203.9617764 -0.203962E+03  0.130E-01    0.68       0.0  T
   2   -203.9617879 -0.114626E-04  0.681E-02    0.68       1.0  T
   3   -203.9617582  0.296582E-04  0.191E-02    0.68       1.0  T
   4   -203.9617848 -0.265747E-04  0.110E-02    0.68       1.0  T
   5   -203.9617902 -0.539046E-05  0.596E-03    0.68       1.7  T
   6   -203.9617941 -0.396092E-05  0.169E-03    0.68       6.0  T
   7   -203.9617943 -0.157512E-06  0.108E-03    0.68       9.4  T
   8   -203.9617943 -0.103172E-07  0.739E-04    0.68      13.7  T
     SCC iter.                  ...        0 min,  0.099 sec
     gradient                   ...        0 min,  0.022 sec
 * total energy  :  -201.1414846 Eh     change       -0.2385245E-03 Eh
   gradient norm :     0.0071956 Eh/α   predicted    -0.1985092E-03 ( -16.78%)
   displ. norm   :     0.5969931 α      lambda       -0.3164722E-03
   maximum displ.:     0.3515035 α      in ANC's #6, #4, #7, ...

........................................................................
.............................. CYCLE   42 ..............................
........................................................................
   1   -203.9629756 -0.203963E+03  0.136E-01    0.68       0.0  T
   2   -203.9629882 -0.126586E-04  0.715E-02    0.68       1.0  T
   3   -203.9629798  0.840001E-05  0.153E-02    0.68       1.0  T
   4   -203.9629841 -0.427834E-05  0.105E-02    0.68       1.0  T
   5   -203.9629903 -0.615930E-05  0.504E-03    0.68       2.0  T
   6   -203.9629930 -0.276028E-05  0.172E-03    0.68       5.9  T
   7   -203.9629931 -0.987259E-07  0.123E-03    0.68       8.3  T
     SCC iter.                  ...        0 min,  0.086 sec
     gradient                   ...        0 min,  0.022 sec
 * total energy  :  -201.1417492 Eh     change       -0.2645189E-03 Eh
   gradient norm :     0.0068701 Eh/α   predicted    -0.2146381E-03 ( -18.86%)
   displ. norm   :     0.6158730 α      lambda       -0.3541688E-03
   maximum displ.:     0.3571285 α      in ANC's #6, #4, #7, ...
 * RMSD in coord.:     0.9379716 α      energy gain  -0.7385474E-02 Eh

generating ANC from model Hessian ...
Using Lindh-Hessian (1995)
 Shifting diagonal of input Hessian by   5.010959237189118E-003
 Lowest  eigenvalues of input Hessian
    0.005000   -0.000000   -0.000000   -0.000000   -0.000000    0.000000
    0.000000    0.005034    0.005055    0.005083    0.005113    0.005225
    0.005345    0.005363    0.005528    0.005728    0.005844    0.006029
 Highest eigenvalues
    2.285455    2.310495    2.589658    2.605461    2.639885    2.651418
 

........................................................................
.............................. CYCLE   43 ..............................
........................................................................
   1   -203.9631435 -0.203963E+03  0.130E-01    0.68       0.0  T
   2   -203.9631565 -0.130172E-04  0.697E-02    0.68       1.0  T
   3   -203.9631349  0.216199E-04  0.199E-02    0.68       1.0  T
   4   -203.9631591 -0.241502E-04  0.947E-03    0.68       1.1  T
   5   -203.9631590  0.776651E-07  0.596E-03    0.68       1.7  T
   6   -203.9631631 -0.412215E-05  0.190E-03    0.68       5.3  T
   7   -203.9631633 -0.211919E-06  0.124E-03    0.68       8.2  T
   8   -203.9631633 -0.149981E-07  0.821E-04    0.68      12.4  T
   9   -203.9631633 -0.203299E-07  0.486E-04    0.68      20.9  T
     SCC iter.                  ...        0 min,  0.109 sec
     gradient                   ...        0 min,  0.023 sec
 * total energy  :  -201.1420499 Eh     change       -0.3007164E-03 Eh
   gradient norm :     0.0063094 Eh/α   predicted     0.0000000E+00 (-100.00%)
   displ. norm   :     0.1217743 α      lambda       -0.1779382E-03
   maximum displ.:     0.0610331 α      in ANC's #6, #11, #13, ...

........................................................................
.............................. CYCLE   44 ..............................
........................................................................
   1   -203.9636390 -0.203964E+03  0.564E-02    0.68       0.0  T
   2   -203.9636424 -0.333202E-05  0.314E-02    0.68       1.0  T
   3   -203.9636294  0.130045E-04  0.108E-02    0.68       1.0  T
   4   -203.9636442 -0.148487E-04  0.285E-03    0.68       3.6  T
   5   -203.9636445 -0.290230E-06  0.192E-03    0.68       5.3  T
   6   -203.9636448 -0.263313E-06  0.914E-04    0.68      11.1  T
     SCC iter.                  ...        0 min,  0.076 sec
     gradient                   ...        0 min,  0.022 sec
 * total energy  :  -201.1421331 Eh     change       -0.8321247E-04 Eh
   gradient norm :     0.0046263 Eh/α   predicted    -0.9032345E-04 (   8.55%)
   displ. norm   :     0.1636123 α      lambda       -0.2671036E-03
   maximum displ.:     0.0647497 α      in ANC's #9, #6, #7, ...

........................................................................
.............................. CYCLE   45 ..............................
........................................................................
   1   -203.9647393 -0.203965E+03  0.877E-02    0.68       0.0  T
   2   -203.9647476 -0.830720E-05  0.490E-02    0.68       1.0  T
   3   -203.9647071  0.404879E-04  0.192E-02    0.68       1.0  T
   4   -203.9647518 -0.447128E-04  0.493E-03    0.68       2.1  T
   5   -203.9647532 -0.137243E-05  0.323E-03    0.68       3.1  T
   6   -203.9647538 -0.654069E-06  0.151E-03    0.68       6.7  T
   7   -203.9647539 -0.127658E-06  0.837E-04    0.68      12.1  T
     SCC iter.                  ...        0 min,  0.093 sec
     gradient                   ...        0 min,  0.023 sec
 * total energy  :  -201.1421672 Eh     change       -0.3407329E-04 Eh
   gradient norm :     0.0065788 Eh/α   predicted    -0.1371279E-03 ( 302.45%)
   displ. norm   :     0.1586629 α      lambda       -0.3554317E-03
   maximum displ.:     0.0660915 α      in ANC's #6, #46, #11, ...

........................................................................
.............................. CYCLE   46 ..............................
........................................................................
   1   -203.9653264 -0.203965E+03  0.990E-02    0.68       0.0  T
   2   -203.9653361 -0.968797E-05  0.550E-02    0.68       1.0  T
   3   -203.9653123  0.238586E-04  0.154E-02    0.68       1.0  T
   4   -203.9653412 -0.288931E-04  0.380E-03    0.68       2.7  T
   5   -203.9653418 -0.606653E-06  0.261E-03    0.68       3.9  T
   6   -203.9653422 -0.394106E-06  0.120E-03    0.68       8.5  T
     SCC iter.                  ...        0 min,  0.076 sec
     gradient                   ...        0 min,  0.022 sec
 * total energy  :  -201.1421666 Eh     change        0.5572315E-06 Eh
   gradient norm :     0.0074195 Eh/α   predicted    -0.1821922E-03 (*******%)
   displ. norm   :     0.0767080 α      lambda       -0.3297578E-03
   maximum displ.:     0.0391410 α      in ANC's #47, #46, #61, ...

........................................................................
.............................. CYCLE   47 ..............................
........................................................................
   1   -203.9654085 -0.203965E+03  0.634E-02    0.68       0.0  T
   2   -203.9654129 -0.433171E-05  0.351E-02    0.68       1.0  T
   3   -203.9653882  0.246961E-04  0.147E-02    0.68       1.0  T
   4   -203.9654161 -0.278652E-04  0.290E-03    0.68       3.5  T
   5   -203.9654164 -0.380407E-06  0.176E-03    0.68       5.8  T
   6   -203.9654166 -0.169883E-06  0.960E-04    0.68      10.6  T
     SCC iter.                  ...        0 min,  0.077 sec
     gradient                   ...        0 min,  0.022 sec
 * total energy  :  -201.1423330 Eh     change       -0.1664052E-03 Eh
   gradient norm :     0.0030359 Eh/α   predicted    -0.1658497E-03 (  -0.33%)
   displ. norm   :     0.1023562 α      lambda       -0.9742061E-04
   maximum displ.:     0.0513754 α      in ANC's #6, #13, #11, ...

........................................................................
.............................. CYCLE   48 ..............................
........................................................................
   1   -203.9644680 -0.203964E+03  0.431E-02    0.68       0.0  T
   2   -203.9644700 -0.196701E-05  0.237E-02    0.68       1.0  T
   3   -203.9644638  0.617299E-05  0.739E-03    0.68       1.4  T
   4   -203.9644710 -0.722018E-05  0.214E-03    0.68       4.8  T
   5   -203.9644712 -0.145385E-06  0.149E-03    0.68       6.8  T
   6   -203.9644714 -0.187148E-06  0.504E-04    0.68      20.2  T
   7   -203.9644714 -0.120683E-07  0.303E-04    0.68      33.5  T
     SCC iter.                  ...        0 min,  0.087 sec
     gradient                   ...        0 min,  0.023 sec
 * total energy  :  -201.1423813 Eh     change       -0.4831789E-04 Eh
   gradient norm :     0.0025478 Eh/α   predicted    -0.4922047E-04 (   1.87%)
   displ. norm   :     0.1822941 α      lambda       -0.1036564E-03
   maximum displ.:     0.0950594 α      in ANC's #6, #13, #11, ...

........................................................................
.............................. CYCLE   49 ..............................
........................................................................
   1   -203.9641081 -0.203964E+03  0.442E-02    0.68       0.0  T
   2   -203.9641096 -0.151411E-05  0.244E-02    0.68       1.0  T
   3   -203.9641059  0.375656E-05  0.718E-03    0.68       1.4  T
   4   -203.9641100 -0.410300E-05  0.333E-03    0.68       3.0  T
   5   -203.9641102 -0.199007E-06  0.196E-03    0.68       5.2  T
   6   -203.9641106 -0.395560E-06  0.745E-04    0.68      13.6  T
   7   -203.9641106 -0.294424E-07  0.489E-04    0.68      20.7  T
     SCC iter.                  ...        0 min,  0.086 sec
     gradient                   ...        0 min,  0.023 sec
 * total energy  :  -201.1424622 Eh     change       -0.8087830E-04 Eh
   gradient norm :     0.0031971 Eh/α   predicted    -0.5355154E-04 ( -33.79%)
   displ. norm   :     0.3881794 α      lambda       -0.1913809E-03
   maximum displ.:     0.2000871 α      in ANC's #6, #13, #11, ...

........................................................................
.............................. CYCLE   50 ..............................
........................................................................
   1   -203.9632554 -0.203963E+03  0.989E-02    0.68       0.0  T
   2   -203.9632631 -0.772457E-05  0.538E-02    0.68       1.0  T
   3   -203.9632497  0.134883E-04  0.145E-02    0.68       1.0  T
   4   -203.9632641 -0.144197E-04  0.713E-03    0.68       1.4  T
   5   -203.9632650 -0.888038E-06  0.469E-03    0.68       2.2  T
   6   -203.9632674 -0.246459E-05  0.150E-03    0.68       6.8  T
   7   -203.9632675 -0.806917E-07  0.102E-03    0.68       9.9  T
   8   -203.9632675 -0.155499E-07  0.653E-04    0.68      15.6  T
   9   -203.9632675 -0.157067E-07  0.357E-04    0.68      28.4  T
     SCC iter.                  ...        0 min,  0.113 sec
     gradient                   ...        0 min,  0.023 sec
 * total energy  :  -201.1426057 Eh     change       -0.1434870E-03 Eh
   gradient norm :     0.0039683 Eh/α   predicted    -0.1101119E-03 ( -23.26%)
   displ. norm   :     0.4227643 α      lambda       -0.1668353E-03
   maximum displ.:     0.2226748 α      in ANC's #6, #13, #11, ...

........................................................................
.............................. CYCLE   51 ..............................
........................................................................
   1   -203.9639986 -0.203964E+03  0.988E-02    0.68       0.0  T
   2   -203.9640057 -0.704902E-05  0.531E-02    0.68       1.0  T
   3   -203.9639974  0.827991E-05  0.123E-02    0.68       1.0  T
   4   -203.9640057 -0.828583E-05  0.735E-03    0.68       1.4  T
   5   -203.9640078 -0.214249E-05  0.377E-03    0.68       2.7  T
   6   -203.9640092 -0.136083E-05  0.155E-03    0.68       6.6  T
   7   -203.9640093 -0.839368E-07  0.108E-03    0.68       9.4  T
   8   -203.9640093 -0.262235E-07  0.672E-04    0.68      15.1  T
   9   -203.9640093 -0.182194E-07  0.355E-04    0.68      28.6  T
     SCC iter.                  ...        0 min,  0.112 sec
     gradient                   ...        0 min,  0.023 sec
 * total energy  :  -201.1427261 Eh     change       -0.1204515E-03 Eh
   gradient norm :     0.0029324 Eh/α   predicted    -0.9832968E-04 ( -18.37%)
   displ. norm   :     0.3669909 α      lambda       -0.1136637E-03
   maximum displ.:     0.1980130 α      in ANC's #6, #13, #1, ...

........................................................................
.............................. CYCLE   52 ..............................
........................................................................
   1   -203.9643217 -0.203964E+03  0.799E-02    0.68       0.0  T
   2   -203.9643265 -0.481835E-05  0.430E-02    0.68       1.0  T
   3   -203.9643219  0.461933E-05  0.980E-03    0.67       1.0  T
   4   -203.9643260 -0.412507E-05  0.600E-03    0.68       1.7  T
   5   -203.9643279 -0.196738E-05  0.274E-03    0.67       3.7  T
   6   -203.9643287 -0.794851E-06  0.104E-03    0.68       9.7  T
   7   -203.9643288 -0.233829E-07  0.709E-04    0.67      14.3  T
   8   -203.9643288 -0.618550E-08  0.404E-04    0.68      25.1  T
     SCC iter.                  ...        0 min,  0.101 sec
     gradient                   ...        0 min,  0.023 sec
 * total energy  :  -201.1428179 Eh     change       -0.9171729E-04 Eh
   gradient norm :     0.0023538 Eh/α   predicted    -0.6448608E-04 ( -29.69%)
   displ. norm   :     0.3609137 α      lambda       -0.1059576E-03
   maximum displ.:     0.2016443 α      in ANC's #6, #1, #3, ...

........................................................................
.............................. CYCLE   53 ..............................
........................................................................
   1   -203.9654835 -0.203965E+03  0.711E-02    0.67       0.0  T
   2   -203.9654870 -0.346946E-05  0.385E-02    0.67       1.0  T
   3   -203.9654832  0.383069E-05  0.869E-03    0.67       1.2  T
   4   -203.9654860 -0.282876E-05  0.561E-03    0.67       1.8  T
   5   -203.9654880 -0.198614E-05  0.248E-03    0.67       4.1  T
   6   -203.9654886 -0.633525E-06  0.100E-03    0.67      10.1  T
   7   -203.9654886 -0.261585E-07  0.692E-04    0.67      14.7  T
   8   -203.9654886 -0.173497E-08  0.485E-04    0.67      20.9  T
     SCC iter.                  ...        0 min,  0.102 sec
     gradient                   ...        0 min,  0.023 sec
 * total energy  :  -201.1429073 Eh     change       -0.8939555E-04 Eh
   gradient norm :     0.0024151 Eh/α   predicted    -0.5988241E-04 ( -33.01%)
   displ. norm   :     0.3819400 α      lambda       -0.1122020E-03
   maximum displ.:     0.2191349 α      in ANC's #6, #1, #3, ...

........................................................................
.............................. CYCLE   54 ..............................
........................................................................
   1   -203.9660414 -0.203966E+03  0.731E-02    0.67       0.0  T
   2   -203.9660450 -0.357173E-05  0.397E-02    0.67       1.0  T
   3   -203.9660421  0.280850E-05  0.853E-03    0.67       1.2  T
   4   -203.9660439 -0.175241E-05  0.573E-03    0.67       1.8  T
   5   -203.9660460 -0.213517E-05  0.217E-03    0.67       4.7  T
   6   -203.9660465 -0.492698E-06  0.942E-04    0.67      10.8  T
   7   -203.9660466 -0.258828E-07  0.637E-04    0.67      15.9  T
     SCC iter.                  ...        0 min,  0.088 sec
     gradient                   ...        0 min,  0.023 sec
 * total energy  :  -201.1430045 Eh     change       -0.9727141E-04 Eh
   gradient norm :     0.0026138 Eh/α   predicted    -0.6428926E-04 ( -33.91%)
   displ. norm   :     0.4198348 α      lambda       -0.1290074E-03
   maximum displ.:     0.2433081 α      in ANC's #6, #1, #4, ...

........................................................................
.............................. CYCLE   55 ..............................
........................................................................
   1   -203.9663685 -0.203966E+03  0.814E-02    0.67       0.0  T
   2   -203.9663729 -0.434634E-05  0.444E-02    0.67       1.0  T
   3   -203.9663697  0.316692E-05  0.966E-03    0.67       1.1  T
   4   -203.9663723 -0.261269E-05  0.611E-03    0.67       1.7  T
   5   -203.9663742 -0.184511E-05  0.243E-03    0.67       4.2  T
   6   -203.9663748 -0.624069E-06  0.105E-03    0.67       9.7  T
   7   -203.9663748 -0.402436E-07  0.742E-04    0.67      13.7  T
   8   -203.9663748 -0.146286E-07  0.408E-04    0.67      24.9  T
     SCC iter.                  ...        0 min,  0.102 sec
     gradient                   ...        0 min,  0.023 sec
 * total energy  :  -201.1431193 Eh     change       -0.1147898E-03 Eh
   gradient norm :     0.0035047 Eh/α   predicted    -0.7587454E-04 ( -33.90%)
   displ. norm   :     0.4905540 α      lambda       -0.1580859E-03
   maximum displ.:     0.2839396 α      in ANC's #6, #1, #4, ...

........................................................................
.............................. CYCLE   56 ..............................
........................................................................
   1   -203.9655698 -0.203966E+03  0.101E-01    0.67       0.0  T
   2   -203.9655768 -0.699852E-05  0.548E-02    0.66       1.0  T
   3   -203.9655742  0.263993E-05  0.111E-02    0.66       1.0  T
   4   -203.9655764 -0.217727E-05  0.730E-03    0.67       1.4  T
   5   -203.9655793 -0.296621E-05  0.227E-03    0.66       4.5  T
   6   -203.9655798 -0.434979E-06  0.107E-03    0.66       9.4  T
   7   -203.9655798 -0.266596E-10  0.788E-04    0.66      12.9  T
   8   -203.9655798 -0.225729E-07  0.417E-04    0.66      24.4  T
     SCC iter.                  ...        0 min,  0.102 sec
     gradient                   ...        0 min,  0.023 sec
 * total energy  :  -201.1432586 Eh     change       -0.1393134E-03 Eh
   gradient norm :     0.0030053 Eh/α   predicted    -0.9806622E-04 ( -29.61%)
   displ. norm   :     0.5540970 α      lambda       -0.1764658E-03
   maximum displ.:     0.3168148 α      in ANC's #6, #1, #4, ...

........................................................................
.............................. CYCLE   57 ..............................
........................................................................
   1   -203.9650027 -0.203965E+03  0.121E-01    0.66       0.0  T
   2   -203.9650127 -0.100031E-04  0.651E-02    0.66       1.0  T
   3   -203.9650103  0.246438E-05  0.125E-02    0.66       1.0  T
   4   -203.9650123 -0.203569E-05  0.835E-03    0.66       1.2  T
   5   -203.9650162 -0.391268E-05  0.273E-03    0.66       3.7  T
   6   -203.9650168 -0.609763E-06  0.130E-03    0.66       7.8  T
   7   -203.9650168 -0.653179E-08  0.936E-04    0.66      10.9  T
   8   -203.9650169 -0.193534E-07  0.557E-04    0.66      18.2  T
     SCC iter.                  ...        0 min,  0.102 sec
     gradient                   ...        0 min,  0.023 sec
 * total energy  :  -201.1434105 Eh     change       -0.1518974E-03 Eh
   gradient norm :     0.0032404 Eh/α   predicted    -0.1153275E-03 ( -24.08%)
   displ. norm   :     0.5836117 α      lambda       -0.1740065E-03
   maximum displ.:     0.3320397 α      in ANC's #6, #1, #4, ...

........................................................................
.............................. CYCLE   58 ..............................
........................................................................
   1   -203.9634864 -0.203963E+03  0.128E-01    0.66       0.0  T
   2   -203.9634977 -0.112949E-04  0.683E-02    0.66       1.0  T
   3   -203.9634963  0.135400E-05  0.126E-02    0.66       1.0  T
   4   -203.9634939  0.239604E-05  0.945E-03    0.66       1.1  T
   5   -203.9635006 -0.669108E-05  0.358E-03    0.66       2.8  T
   6   -203.9635019 -0.129789E-05  0.159E-03    0.66       6.4  T
   7   -203.9635020 -0.625965E-07  0.114E-03    0.66       8.9  T
   8   -203.9635020 -0.336933E-07  0.634E-04    0.66      16.0  T
   9   -203.9635020 -0.170068E-07  0.383E-04    0.66      26.5  T
     SCC iter.                  ...        0 min,  0.112 sec
     gradient                   ...        0 min,  0.023 sec
 * total energy  :  -201.1435577 Eh     change       -0.1472031E-03 Eh
   gradient norm :     0.0039884 Eh/α   predicted    -0.1166425E-03 ( -20.76%)
   displ. norm   :     0.5852285 α      lambda       -0.1617528E-03
   maximum displ.:     0.3320972 α      in ANC's #6, #4, #1, ...

........................................................................
.............................. CYCLE   59 ..............................
[...]
     3   6 C      1.945     0.123    28.059     8.554
     4   7 N      0.911    -0.233    26.114     7.391
     5   6 C      1.943     0.121    28.108     8.562
     6   7 N      0.911    -0.232    26.089     7.387
     7   6 C      3.039     0.004    27.886     8.661
     8   6 C      3.041    -0.019    28.446     8.748
     9   6 C      2.910    -0.018    28.455     8.747
    10   6 C      3.149     0.009    27.554     8.586
    11   6 C      3.008     0.030    27.322     8.574
    12   6 C      2.934    -0.035    28.863     8.811
    13  16 S      2.397     0.015   140.436    19.945
    14   6 C      2.934     0.090    25.996     8.362
    15   6 C      3.101    -0.056    29.245     8.862
    16  35 Br     1.141    -0.111   188.087    22.113
    17   6 C      2.873     0.223    23.326     7.917
    18   8 O      1.009    -0.327    20.205     6.030
    19   6 C      3.009    -0.034    28.827     8.807
    20   6 C      2.915    -0.009    28.242     8.714
    21   6 C      2.977    -0.004    28.116     8.698
    22   6 C      3.052     0.108    25.568     8.293
    23   8 O      1.704    -0.248    18.108     5.745
    24   6 C      3.729     0.064    19.592     6.319
    25   6 C      3.768     0.109    18.825     6.184
    26   6 C      3.753    -0.126    22.981     6.836
    27   8 O      1.714    -0.255    18.222     5.763
    28   6 C      3.034     0.104    25.677     8.311
    29   6 C      3.033    -0.017    28.412     8.743
    30  16 S      2.397     0.106   136.809    19.686
    31   6 C      2.999     0.017    27.624     8.622
    32   6 C      3.144     0.070    26.195     8.374
    33   6 C      3.132     0.072    26.178     8.376
    34   7 N      1.843    -0.179    25.686     7.511
    35   6 C      2.963     0.061    26.641     8.466
    36   6 C      2.827     0.227    23.242     7.900
    37   8 O      0.858    -0.328    20.299     6.041
    38   6 C      2.895    -0.044    29.080     8.842
    39   6 C      2.896    -0.042    29.032     8.834
    40   6 C      2.825     0.225    23.275     7.905
    41   8 O      0.858    -0.309    19.946     5.988
    42   6 C      2.964     0.061    26.622     8.463
    43   7 N      1.842    -0.181    25.739     7.519
    44   6 C      3.018     0.008    27.817     8.652
    45  16 S      2.422     0.077   137.940    19.767
    46   6 C      3.026     0.010    27.771     8.644
    47   6 C      3.057     0.117    25.367     8.260
    48   8 O      1.704    -0.222    17.691     5.679
    49   6 C      3.731     0.061    19.649     6.328
    50   6 C      3.762     0.108    18.849     6.189
    51   6 C      3.754    -0.124    22.944     6.830
    52   8 O      1.703    -0.248    18.112     5.746
    53   6 C      3.059     0.122    25.278     8.245
    54   6 C      2.971     0.006    27.895     8.663
    55  16 S      2.406    -0.033   142.400    20.084
    56   6 C      2.923    -0.007    28.198     8.708
    57   6 C      3.012    -0.032    28.790     8.802
    58   6 C      3.020     0.033    27.240     8.561
    59   6 C      2.948     0.005    27.911     8.665
    60   6 C      1.929     0.123    28.079     8.557
    61   7 N      0.911    -0.244    26.372     7.427
    62   6 C      1.938     0.124    28.043     8.552
    63   7 N      0.911    -0.244    26.352     7.424
    64   6 C      3.040     0.006    27.841     8.654
    65   6 C      3.041    -0.021    28.483     8.754
    66   6 C      2.868     0.227    23.244     7.903
    67   8 O      0.856    -0.359    20.873     6.125
    68   6 C      2.910    -0.018    28.470     8.749
    69   6 C      3.147     0.008    27.576     8.591
    70   6 C      3.008     0.030    27.314     8.573
    71   6 C      2.932    -0.035    28.872     8.812
    72  16 S      2.396     0.011   140.603    19.957
    73   6 C      2.933     0.090    25.989     8.361
    74   6 C      3.102    -0.056    29.252     8.863
    75  35 Br     1.140    -0.110   188.086    22.113
    76   1 H      0.926     0.076     2.021     2.223
    77   1 H      0.926     0.067     2.123     2.278
    78   1 H      0.926     0.071     2.079     2.255
    79   1 H      0.925     0.085     1.931     2.173
    80   1 H      0.925     0.075     2.033     2.230
    81   1 H      0.924     0.055     2.254     2.348
    82   1 H      0.923     0.043     2.403     2.424
    83   1 H      0.925     0.074     2.046     2.237
    84   1 H      0.925     0.070     2.091     2.261
    85   1 H      0.925     0.061     2.183     2.311
    86   1 H      0.925     0.079     1.986     2.204
    87   1 H      0.925     0.081     1.971     2.195
    88   1 H      0.925     0.087     1.912     2.162
    89   1 H      0.923     0.056     2.241     2.341
    90   1 H      0.923     0.050     2.324     2.384
    91   1 H      0.925     0.063     2.163     2.300
    92   1 H      0.925     0.074     2.047     2.237
    93   1 H      0.925     0.060     2.195     2.317
    94   1 H      0.925     0.092     1.858     2.131
    95   1 H      0.926     0.070     2.084     2.257
    96   1 H      0.926     0.063     2.159     2.298
    97   1 H      0.926     0.070     2.089     2.260

 Mol. C6AA /au·bohr⁶  :     212458.025966
 Mol. C8AA /au·bohr⁸  :    6416139.320827
 Mol. α(0) /au        :        734.493060


Wiberg/Mayer (AO) data.
largest (>0.10) Wiberg bond orders for each atom
          total WBO             WBO to atom ...
     1  C   3.969        C    2 1.480    C   19 1.143    C    7 1.089
     2  C   3.929        C    1 1.480    C    5 1.098    C    3 1.097
     3  C   3.945        N    4 2.763    C    2 1.097
     4  N   2.966        C    3 2.763
     5  C   3.946        N    6 2.757    C    2 1.098
     6  N   2.966        C    5 2.757
     7  C   3.975        C   12 1.429    C    8 1.245    C    1 1.089
     8  C   3.977        C    9 1.473    C    7 1.245    C   17 1.025
     9  C   3.968        C    8 1.473    C   10 1.314    H   76 0.961
    10  C   3.974        C    9 1.314    C   11 1.268    C   15 1.204
    11  C   3.949        C   12 1.376    C   10 1.268    S   13 1.120
    12  C   3.971        C    7 1.429    C   11 1.376    H   77 0.957
    13  S   2.560        C   14 1.133    C   11 1.120
    14  C   3.901        C   15 1.610    S   13 1.133    Br  16 1.028
    15  C   3.974        C   14 1.610    C   10 1.204    H   78 0.959
    16  Br  1.168        C   14 1.028
    17  C   3.921        O   18 1.716    C   19 1.061    C    8 1.025
    18  O   2.156        C   17 1.716    S   30 0.168
    19  C   3.937        C   20 1.490    C    1 1.143    C   17 1.061
    20  C   3.950        C   19 1.490    C   21 1.314    H   79 0.937
    21  C   3.915        C   20 1.314    C   22 1.276    S   30 1.120
    22  C   3.920        C   28 1.313    C   21 1.276    O   23 1.078
    23  O   2.249        C   22 1.078    C   24 0.964
    24  C   3.938        C   25 0.980    H   80 0.968    H   81 0.965    O   23 0.964
    25  C   3.934        C   26 1.007    C   24 0.980    H   82 0.959    O   27 0.937
    26  C   3.984        C   25 1.007    H   85 0.982    H   83 0.982    H   84 0.981
    27  O   2.256        C   28 1.066    C   25 0.937
    28  C   3.906        C   22 1.313    C   29 1.295    O   27 1.066
    29  C   3.946        C   28 1.295    C   31 1.267    S   30 1.144
    30  S   2.800        C   29 1.144    C   21 1.120    O   18 0.168
    31  C   3.912        C   29 1.267    C   32 1.266    S   45 1.156
    32  C   3.962        N   43 1.336    C   31 1.266    C   33 1.134
    33  C   3.963        N   34 1.331    C   44 1.271    C   32 1.134
    34  N   3.080        C   35 1.491    C   33 1.331
    35  C   3.956        N   34 1.491    C   42 1.200    C   36 1.007
    36  C   3.929        O   37 1.789    C   38 1.046    C   35 1.007
    37  O   2.041        C   36 1.789
    38  C   3.973        C   39 1.806    C   36 1.046    H   86 0.961
    39  C   3.972        C   38 1.806    C   40 1.039    H   87 0.961
    40  C   3.929        O   41 1.802    C   39 1.039    C   42 1.006
    41  O   2.051        C   40 1.802
    42  C   3.946        N   43 1.486    C   35 1.200    C   40 1.006
    43  N   3.091        C   42 1.486    C   32 1.336
    44  C   3.914        C   33 1.271    C   46 1.248    S   45 1.158
    45  S   2.708        C   44 1.158    C   31 1.156
    46  C   3.936        C   47 1.337    C   44 1.248    S   55 1.107
    47  C   3.917        C   46 1.337    C   53 1.240    O   48 1.098
    48  O   2.272        C   47 1.098    C   49 0.963
    49  C   3.935        C   50 0.982    H   88 0.966    H   89 0.964    O   48 0.963
    50  C   3.934        C   51 1.007    C   49 0.982    H   90 0.958    O   52 0.936
    51  C   3.986        C   50 1.007    H   91 0.984    H   93 0.983    H   92 0.981
    52  O   2.259        C   53 1.100    C   50 0.936
    53  C   3.928        C   54 1.329    C   47 1.240    O   52 1.100
    54  C   3.903        C   53 1.329    C   56 1.267    S   55 1.092
    55  S   2.545        C   46 1.107    C   54 1.092
    56  C   3.950        C   57 1.530    C   54 1.267    H   94 0.943
    57  C   3.939        C   56 1.530    C   58 1.138    C   66 1.018
    58  C   3.968        C   59 1.470    C   57 1.138    C   64 1.086
    59  C   3.953        C   58 1.470    C   60 1.108    C   62 1.095
    60  C   3.945        N   61 2.757    C   59 1.108
    61  N   2.962        C   60 2.757
    62  C   3.947        N   63 2.764    C   59 1.095
    63  N   2.976        C   62 2.764
    64  C   3.975        C   71 1.430    C   65 1.244    C   58 1.086
    65  C   3.974        C   68 1.475    C   64 1.244    C   66 1.014
    66  C   3.924        O   67 1.777    C   57 1.018    C   65 1.014
    67  O   2.049        C   66 1.777
    68  C   3.971        C   65 1.475    C   69 1.314    H   95 0.962
    69  C   3.974        C   68 1.314    C   70 1.269    C   74 1.203
    70  C   3.949        C   71 1.376    C   69 1.269    S   72 1.119
    71  C   3.972        C   64 1.430    C   70 1.376    H   96 0.960
    72  S   2.556        C   73 1.131    C   70 1.119
    73  C   3.901        C   74 1.611    S   72 1.131    Br  75 1.029
    74  C   3.975        C   73 1.611    C   69 1.203    H   97 0.959
    75  Br  1.169        C   73 1.029
    76  H   0.994        C    9 0.961
    77  H   0.995        C   12 0.957
    78  H   0.995        C   15 0.959
    79  H   0.992        C   20 0.937
    80  H   0.993        C   24 0.968
    81  H   0.995        C   24 0.965
    82  H   0.996        C   25 0.959
    83  H   0.995        C   26 0.982
    84  H   0.995        C   26 0.981
    85  H   0.995        C   26 0.982
    86  H   0.993        C   38 0.961
    87  H   0.993        C   39 0.961
    88  H   0.991        C   49 0.966
    89  H   0.995        C   49 0.964
    90  H   0.995        C   50 0.958
    91  H   0.996        C   51 0.984
    92  H   0.995        C   51 0.981
    93  H   0.996        C   51 0.983
    94  H   0.989        C   56 0.943
    95  H   0.994        C   68 0.962
    96  H   0.995        C   71 0.960
    97  H   0.995        C   74 0.959

molecular dipole:
                 x           y           z       tot (Debye)
 q only:        1.087       1.306      -1.385
   full:        1.209       1.907      -2.238       8.081
molecular quadrupole (traceless):
                xx          xy          yy          xz          yz          zz
 q only:      -31.198     -35.541       3.561      34.797     -21.032      27.636
  q+dip:      -42.372     -61.340      10.767      36.298     -33.600      31.604
   full:      -39.248     -70.186      11.382      32.011     -25.639      27.866

           -------------------------------------------------
          |                Geometry Summary                 |
           -------------------------------------------------

      molecular mass/u    :     1202.9112000
   center of mass at/Å    :       -6.5708199       4.3472584      -1.0616952
  moments of inertia/u·Å² :        0.1622079E+05   0.6855466E+05   0.8337936E+05
rotational constants/cm⁻¹ :        0.1039261E-02   0.2459006E-03   0.2021799E-03

 * 93 selected distances

     #   Z        #   Z                                     value/Å
     1   6 C      2   6 C                                 1.3718503
     3   6 C      4   7 N                                 1.1481623
     5   6 C      6   7 N                                 1.1487210
     7   6 C      8   6 C                                 1.4170561
     8   6 C      9   6 C                                 1.3730743
     9   6 C     10   6 C                                 1.3988925
    10   6 C     11   6 C                                 1.4152695
     7   6 C     12   6 C                                 1.3823115
    11   6 C     12   6 C                                 1.3900894
    11   6 C     13  16 S                                 1.7375225
    13  16 S     14   6 C                                 1.7437412
    10   6 C     15   6 C                                 1.4216930
    14   6 C     15   6 C                                 1.3540807
    14   6 C     16  35 Br                                1.8751090
    17   6 C     18   8 O                                 1.2166786
    19   6 C     20   6 C                                 1.3713986
    20   6 C     21   6 C                                 1.4006422
    21   6 C     22   6 C                                 1.4075605
    22   6 C     23   8 O                                 1.3532221
    23   8 O     24   6 C                                 1.4190787
    24   6 C     25   6 C                                 1.5353296
    25   6 C     26   6 C                                 1.5187130
    25   6 C     27   8 O                                 1.4290190
    22   6 C     28   6 C                                 1.3895826
    27   8 O     28   6 C                                 1.3539386
    28   6 C     29   6 C                                 1.3961111
    21   6 C     30  16 S                                 1.7556289
    29   6 C     30  16 S                                 1.7382727
    29   6 C     31   6 C                                 1.4006202
    31   6 C     32   6 C                                 1.4028941
    32   6 C     33   6 C                                 1.4405682
    33   6 C     34   7 N                                 1.3321204
    34   7 N     35   6 C                                 1.3141466
    36   6 C     37   8 O                                 1.2137787
    38   6 C     39   6 C                                 1.3361945
    40   6 C     41   8 O                                 1.2111092
    35   6 C     42   6 C                                 1.4315063
    32   6 C     43   7 N                                 1.3321886
    42   6 C     43   7 N                                 1.3162977
    33   6 C     44   6 C                                 1.4039139
    31   6 C     45  16 S                                 1.7327597
    44   6 C     45  16 S                                 1.7378004
    44   6 C     46   6 C                                 1.4072459
    46   6 C     47   6 C                                 1.3915087
    47   6 C     48   8 O                                 1.3427687
    48   8 O     49   6 C                                 1.4149904
    49   6 C     50   6 C                                 1.5322638
    50   6 C     51   6 C                                 1.5188845
    50   6 C     52   8 O                                 1.4321459
    47   6 C     53   6 C                                 1.4114546
    52   8 O     53   6 C                                 1.3443857
    53   6 C     54   6 C                                 1.3945850
    46   6 C     55  16 S                                 1.7419942
    54   6 C     55  16 S                                 1.7465192
    54   6 C     56   6 C                                 1.4062856
    56   6 C     57   6 C                                 1.3655917
    58   6 C     59   6 C                                 1.3729428
    60   6 C     61   7 N                                 1.1489078
    62   6 C     63   7 N                                 1.1481572
    64   6 C     65   6 C                                 1.4182966
    66   6 C     67   8 O                                 1.2095445
    65   6 C     68   6 C                                 1.3732662
    68   6 C     69   6 C                                 1.3995136
    69   6 C     70   6 C                                 1.4152546
    64   6 C     71   6 C                                 1.3809933
    70   6 C     71   6 C                                 1.3896773
    70   6 C     72  16 S                                 1.7375592
    72  16 S     73   6 C                                 1.7439608
    69   6 C     74   6 C                                 1.4220857
    73   6 C     74   6 C                                 1.3539425
    73   6 C     75  35 Br                                1.8754321 (max)
     9   6 C     76   1 H                                 1.0786774
    12   6 C     77   1 H                                 1.0770359
    15   6 C     78   1 H                                 1.0746490 (min)
    20   6 C     79   1 H                                 1.0838828
    24   6 C     80   1 H                                 1.0899025
    24   6 C     81   1 H                                 1.0976486
    25   6 C     82   1 H                                 1.1009608
    26   6 C     83   1 H                                 1.0862823
    26   6 C     84   1 H                                 1.0861253
    26   6 C     85   1 H                                 1.0853477
    38   6 C     86   1 H                                 1.0818606
    39   6 C     87   1 H                                 1.0818824
    49   6 C     88   1 H                                 1.0895737
    49   6 C     89   1 H                                 1.0980369
    50   6 C     90   1 H                                 1.1000791
    51   6 C     91   1 H                                 1.0867233
    51   6 C     92   1 H                                 1.0861448
    51   6 C     93   1 H                                 1.0853773
    56   6 C     94   1 H                                 1.0852792
    68   6 C     95   1 H                                 1.0786446
    71   6 C     96   1 H                                 1.0777459
    74   6 C     97   1 H                                 1.0746725

 * 6 distinct bonds (by element types)

   Z      Z             #   av. dist./Å        max./Å        min./Å
   1 H    6 C          22     1.0857515     1.1009608     1.0746490
   6 C    6 C          39     1.4080293     1.5353296     1.3361945
   6 C    7 N           8     1.2360877     1.3321886     1.1481572
   6 C    8 O          12     1.3283883     1.4321459     1.2095445
   6 C   16 S          10     1.7415759     1.7556289     1.7327597
   6 C   35 Br          2     1.8752705     1.8754321     1.8751090


optimized geometry written to: xtbopt.xyz


           -------------------------------------------------
          | TOTAL ENERGY             -201.146016372522 Eh   |
          | GRADIENT NORM               0.000597575371 Eh/α |
          | HOMO-LUMO GAP               0.645474776399 eV   |
           -------------------------------------------------

------------------------------------------------------------------------
 * finished run on 2021/05/14 at 19:31:19.601     
------------------------------------------------------------------------
 total:
 * wall-time:     0 d,  0 h,  0 min, 21.132 sec
 *  cpu-time:     0 d,  0 h,  4 min, 13.450 sec
 * ratio c/w:    11.994 speedup
 SCF:
 * wall-time:     0 d,  0 h,  0 min,  0.285 sec
 *  cpu-time:     0 d,  0 h,  0 min,  3.407 sec
 * ratio c/w:    11.940 speedup
 ANC optimizer:
 * wall-time:     0 d,  0 h,  0 min, 20.794 sec
 *  cpu-time:     0 d,  0 h,  4 min,  9.507 sec
 * ratio c/w:    11.999 speedup

