      -----------------------------------------------------------      
     |                   =====================                   |     
     |                           x T B                           |     
     |                   =====================                   |     
     |                         S. Grimme                         |     
     |          Mulliken Center for Theoretical Chemistry        |     
     |                    University of Bonn                     |     
     |                Version 6.2 RC2 (SAW190805)                |     
      -----------------------------------------------------------      

   This program is distributed in the hope that it will be useful,
   but WITHOUT ANY WARRANTY; without even the implied warranty of
   MERCHANTABILITY or FITNESS FOR A PARTICULAR PURPOSE.
   
   FOR NON-COMMERCIAL, ACADEMIA USE ONLY.
   
   Cite this work as:
   * S. Grimme, C. Bannwarth, P. Shushkov, J. Chem. Theory Comput., 2017,
     13, 1989-2009. DOI: 10.1021/acs.jctc.7b00118
   * C. Bannwarth, S. Ehlert and S. Grimme., J. Chem. Theory Comput., 2019,
     15, 1652-1671. DOI: 10.1021/acs.jctc.8b01176
   * P. Pracht, E. Caldeweyher, S. Ehlert, S. Grimme, ChemRxiv, 2019, preprint.
     DOI: 10.26434/chemrxiv.8326202.v1
   
   for DFT-D4:
   * E. Caldeweyher, C. Bannwarth and S. Grimme, J. Chem. Phys., 2017,
     147, 034112. DOI: 10.1063/1.4993215
   * E. Caldeweyher, S. Ehlert, A. Hansen, H. Neugebauer, S. Spicher,
     C. Bannwarth and S. Grimme, J. Chem. Phys., 2019, 150, 154122.
     DOI: 10.1063/1.5090222
   
   for sTDA-xTB:
   * S. Grimme and C. Bannwarth, J. Chem. Phys., 2016, 145, 054103.
     DOI: 10.1063/1.4959605
   
   in the mass-spec context:
   * V. Asgeirsson, C. Bauer and S. Grimme, Chem. Sci., 2017, 8, 4879.
     DOI: 10.1039/c7sc00601b
   
   for metadynamics refer to:
   * S. Grimme, J. Chem. Theory Comput., 2019, 155, 2847-2862
     DOI: 10.1021/acs.jctc.9b00143
   
   with help from (in alphabetical order)
   C. Bannwarth, F. Bohle, G. Brandenburg, E. Caldeweyher, M. Checinski,
   S. Dohm, S. Ehlert, S. Ehrlich, F. März, H. Neugebauer, J. Pisarek,
   P. Pracht, P. Shushkov, and S. Spicher.
   
 * started run on 2021/05/15 at 02:16:35.824     

           -------------------------------------------------
          |                Calculation Setup                |
           -------------------------------------------------

          program call               : /ihome/ghutchison/geoffh/xtb/xtb /ihome/ghutchison/blp62/GA/running_GA/generations/80/69_48_34_48_69.xyz -opt
          hostname                   : smp-n6
          coordinate file            : /ihome/ghutchison/blp62/GA/running_GA/generations/80/69_48_34_48_69.xyz
          omp threads                :                    12
          number of atoms            :                   106
          number of electrons        :                   444
          charge                     :                     0
          spin                       :                   0.0
          first test random number   :      0.91335947328971


########################################################################
# WARNING! Please study the warnings concerning your input carefully
#  - XTBPATH is not set, using XTBHOME instead
#  - the use of '-opt' is discouraged, please use '--opt' next time
########################################################################

           ------------------------------------------------- 
          |                 G F N 2 - x T B                 |
          | Geometry, Frequencies, Noncovalent interactions |
          |            JCTC 2019 parametrisation            |
           ------------------------------------------------- 
             KAB for C  - Si     :                1.0500
             KAB for H  - Pd     :                0.9500
             k(s)              :                1.8500
             k(p)              :                2.2300
             k(d)              :                2.2300
             k(f)              :                2.0000
             kEN (H0ij)        :               -2.0000
             D4 a1             :                0.5200
             D4 a2             :                5.0000
             D4 s6             :                1.0000
             D4 s8             :                2.7000
             D4 s9             :                5.0000
             alphaj            :                2.0000

  Z AO/shell   Hii/eV     exponent
  1     Wed Apr 25 08:07:45 CEST 2018   EN: 2.200 GM2: 0.406  GM3: 0.0800  RAES: 1.40
     1s    -10.707211    1.230000
  6     Wed Apr 25 08:07:45 CEST 2018   EN: 2.550 GM2: 0.538  GM3: 0.1500  RAES: 3.00
     2s    -13.970922    2.096432
     2p    -10.063292    1.800000
  7     Wed Apr 25 08:07:45 CEST 2018   EN: 3.040 GM2: 0.461  GM3:-0.0640  RAES: 1.90
     2s    -16.686243    2.339881
     2p    -12.523956    2.014332
  8     Wed Apr 25 08:07:45 CEST 2018   EN: 3.440 GM2: 0.452  GM3:-0.0517  RAES: 1.80
     2s    -20.229985    2.439742
     2p    -15.503117    2.137023
  9     Mon Apr 23 13:58:50 CEST 2018   EN: 3.980 GM2: 0.532  GM3: 0.1426  RAES: 2.40
     2s    -23.458179    2.416361
     2p    -15.746583    2.308399
 16     Tue Apr 24 11:44:34 CEST 2018   EN: 2.580 GM2: 0.340  GM3:-0.0502  RAES: 3.10
     3s    -20.029654    1.981333
     3p    -11.377694    2.025643
     3d     -0.420282    1.702555
 35     Tue Apr 24 12:21:41 CEST 2018   EN: 2.960 GM2: 0.261  GM3: 0.1300  RAES: 4.00
     4s    -23.583718    2.077587
     4p    -12.588824    2.263120
     4d      0.047980    1.845038

           ------------------------------------------------- 
          |        Self-Consistent Charge Iterations        |
           ------------------------------------------------- 

          ...................................................
          :                      SETUP                      :
          :.................................................:
          :  # basis functions                 448          :
          :  # atomic orbitals                 438          :
          :  # shells                          210          :
          :  # electrons                       444          :
          :  max. iterations                   250          :
          :  Hamiltonian                  GFN2-xTB          :
          :  restarted?                      false          :
          :  GBSA solvation                  false          :
          :  PC potential                    false          :
          :  electronic temp.          300.0000000     K    :
          :  accuracy                    1.0000000          :
          :  -> integral cutoff          0.2500000E+02      :
          :  -> integral neglect         0.1000000E-07      :
          :  -> SCF convergence          0.1000000E-05 Eh   :
          :  -> wf. convergence          0.1000000E-03 e    :
          :  Broyden damping             0.4000000          :
          ...................................................

 iter      E             dE          RMSdq      gap      omega  full diag
   1   -252.0985281 -0.252099E+03  0.591E+00    1.43       0.0  T
   2   -252.2044683 -0.105940E+00  0.404E+00    1.12       1.0  T
   3   -252.1575863  0.468819E-01  0.262E+00    1.08       1.0  T
   4   -252.6040577 -0.446471E+00  0.779E-01    1.19       1.0  T
   5   -252.6476123 -0.435546E-01  0.263E-01    1.14       1.0  T
   6   -252.6488951 -0.128278E-02  0.175E-01    1.14       1.0  T
   7   -252.6506654 -0.177032E-02  0.793E-02    1.15       1.0  T
   8   -252.6508257 -0.160343E-03  0.574E-02    1.15       1.0  T
   9   -252.6508833 -0.575342E-04  0.433E-02    1.15       1.0  T
  10   -252.6509119 -0.286195E-04  0.310E-02    1.15       1.0  T
  11   -252.6509403 -0.283803E-04  0.169E-02    1.15       1.0  T
  12   -252.6509505 -0.102747E-04  0.932E-03    1.15       1.0  T
  13   -252.6509535 -0.300176E-05  0.457E-03    1.15       2.1  T
  14   -252.6509543 -0.783141E-06  0.233E-03    1.15       4.2  T
  15   -252.6509545 -0.223046E-06  0.111E-03    1.15       8.8  T
  16   -252.6509546 -0.174771E-07  0.727E-04    1.15      13.4  T
  17   -252.6509546 -0.195795E-07  0.421E-04    1.15      23.1  T

   *** convergence criteria satisfied after 17 iterations ***

         #    Occupation            Energy/Eh            Energy/eV
      -------------------------------------------------------------
         1        2.0000           -0.9003832             -24.5007
       ...           ...                  ...                  ...
       216        2.0000           -0.4306662             -11.7190
       217        2.0000           -0.4240248             -11.5383
       218        2.0000           -0.4227563             -11.5038
       219        2.0000           -0.4175645             -11.3625
       220        2.0000           -0.4162956             -11.3280
       221        2.0000           -0.4121648             -11.2156
       222        2.0000           -0.4057693             -11.0415 (HOMO)
       223                         -0.3635560              -9.8929 (LUMO)
       224                         -0.3630684              -9.8796
       225                         -0.3553223              -9.6688
       226                         -0.3528819              -9.6024
       227                         -0.3460774              -9.4172
       ...                                ...                  ...
       438                          1.0718256              29.1659
      -------------------------------------------------------------
                  HL-Gap            0.0422134 Eh            1.1487 eV
             Fermi-level           -0.3848810 Eh          -10.4731 eV

 SCC (total)                   0 d,  0 h,  0 min,  0.322 sec
 SCC setup                      ...        0 min,  0.003 sec (  0.914%)
 Dispersion                     ...        0 min,  0.006 sec (  1.769%)
 integral evaluation            ...        0 min,  0.035 sec ( 10.723%)
 zeroth order Hamiltonian       ...        0 min,  0.002 sec (  0.501%)
 iterations                     ...        0 min,  0.254 sec ( 78.747%)
 molecular gradient             ...        0 min,  0.022 sec (  6.963%)
 printout                       ...        0 min,  0.001 sec (  0.354%)

         :::::::::::::::::::::::::::::::::::::::::::::::::::::
         ::                     SUMMARY                     ::
         :::::::::::::::::::::::::::::::::::::::::::::::::::::
         :: total energy            -249.183472168345 Eh    ::
         :: gradient norm              0.215458805860 Eh/a0 ::
         :: HOMO-LUMO gap              1.148684266036 eV    ::
         ::.................................................::
         :: SCC energy              -252.650954570927 Eh    ::
         :: -> isotropic ES            0.260159076084 Eh    ::
         :: -> anisotropic ES          0.021622814166 Eh    ::
         :: -> anisotropic XC          0.138198918578 Eh    ::
         :: -> dispersion             -0.194986417478 Eh    ::
         :: repulsion energy           3.469211324962 Eh    ::
         :: add. restraining           0.000000000000 Eh    ::
         :::::::::::::::::::::::::::::::::::::::::::::::::::::

      ----------------------------------------------------------- 
     |                   =====================                   |
     |                        A N C O P T                        |
     |                   =====================                   |
     |               Approximate Normal Coordinate               |
     |                Rational Function Optimizer                |
      ----------------------------------------------------------- 

          ...................................................
          :                      SETUP                      :
          :.................................................:
          :   optimization level            normal          :
          :   max. optcycles                   318          :
          :   ANC micro-cycles                  20          :
          :   degrees of freedom               312          :
          :.................................................:
          :   RF solver                   davidson          :
          :   input Hessian                  false          :
          :   write xtbopt.log                true          :
          :   linear?                        false          :
          :   energy convergence         0.5000000E-05 Eh   :
          :   grad. convergence          0.1000000E-02 Eh/α :
          :   maximium RF displ.         2.0000000          :
          :   Hlow (freq-cutoff)         0.5000000E-02      :
          :   Hmax (freq-cutoff)         5.0000000          :
          :   S6 in model hess.         20.0000000          :
          ...................................................

generating ANC from model Hessian ...
Using Lindh-Hessian (1995)
 Shifting diagonal of input Hessian by   5.020124024762468E-003
 Lowest  eigenvalues of input Hessian
    0.005000   -0.000000   -0.000000   -0.000000   -0.000000   -0.000000
    0.000000    0.005029    0.005040    0.005070    0.005103    0.005117
    0.005179    0.005202    0.005237    0.005282    0.005329    0.005388
 Highest eigenvalues
    2.512045    2.518110    2.569511    2.575713    2.587472    2.588974
 

........................................................................
.............................. CYCLE    1 ..............................
........................................................................
   1   -252.6509546 -0.252651E+03  0.243E-04    1.15       0.0  T
   2   -252.6509546  0.224048E-09  0.210E-04    1.15      46.3  T
   3   -252.6509546 -0.199310E-08  0.155E-04    1.15      62.9  T
     SCC iter.                  ...        0 min,  0.047 sec
     gradient                   ...        0 min,  0.022 sec
 * total energy  :  -249.1834722 Eh     change        0.1478244E-07 Eh
   gradient norm :     0.2154577 Eh/α   predicted     0.0000000E+00 (-100.00%)
   displ. norm   :     0.4284301 α      lambda       -0.5208682E-01
   maximum displ.:     0.0965361 α      in ANC's #132, #59, #166, ...

........................................................................
.............................. CYCLE    2 ..............................
........................................................................
   1   -252.7796705 -0.252780E+03  0.331E-01    1.07       0.0  T
   2   -252.7799627 -0.292249E-03  0.190E-01    1.09       1.0  T
   3   -252.7786620  0.130072E-02  0.132E-01    1.07       1.0  T
   4   -252.7804347 -0.177266E-02  0.404E-02    1.08       1.0  T
   5   -252.7805354 -0.100696E-03  0.217E-02    1.08       1.0  T
   6   -252.7805642 -0.288627E-04  0.802E-03    1.08       1.2  T
   7   -252.7805696 -0.537200E-05  0.246E-03    1.08       3.9  T
   8   -252.7805699 -0.270405E-06  0.131E-03    1.08       7.4  T
     SCC iter.                  ...        0 min,  0.120 sec
     gradient                   ...        0 min,  0.021 sec
 * total energy  :  -249.2188356 Eh     change       -0.3536344E-01 Eh
   gradient norm :     0.0867682 Eh/α   predicted    -0.3082396E-01 ( -12.84%)
   displ. norm   :     0.4858808 α      lambda       -0.1903407E-01
   maximum displ.:     0.1494022 α      in ANC's #59, #61, #85, ...

........................................................................
.............................. CYCLE    3 ..............................
........................................................................
   1   -252.8002457 -0.252800E+03  0.340E-01    0.99       0.0  T
   2   -252.8005097 -0.263974E-03  0.177E-01    1.00       1.0  T
   3   -252.7997324  0.777291E-03  0.984E-02    0.99       1.0  T
   4   -252.8006854 -0.952998E-03  0.327E-02    1.00       1.0  T
   5   -252.8007156 -0.301766E-04  0.200E-02    1.00       1.0  T
   6   -252.8007494 -0.338432E-04  0.718E-03    1.00       1.4  T
   7   -252.8007539 -0.450079E-05  0.239E-03    1.00       4.1  T
   8   -252.8007542 -0.263985E-06  0.133E-03    1.00       7.3  T
     SCC iter.                  ...        0 min,  0.119 sec
     gradient                   ...        0 min,  0.021 sec
 * total energy  :  -249.2311642 Eh     change       -0.1232855E-01 Eh
   gradient norm :     0.0283251 Eh/α   predicted    -0.1176383E-01 (  -4.58%)
   displ. norm   :     0.5641309 α      lambda       -0.7109970E-02
   maximum displ.:     0.1622605 α      in ANC's #33, #37, #59, ...

........................................................................
.............................. CYCLE    4 ..............................
........................................................................
   1   -252.8043868 -0.252804E+03  0.326E-01    0.95       0.0  T
   2   -252.8045402 -0.153349E-03  0.170E-01    0.95       1.0  T
   3   -252.8041809  0.359304E-03  0.677E-02    0.95       1.0  T
   4   -252.8046036 -0.422747E-03  0.241E-02    0.95       1.0  T
   5   -252.8046178 -0.141731E-04  0.144E-02    0.95       1.0  T
   6   -252.8046318 -0.139880E-04  0.560E-03    0.95       1.7  T
   7   -252.8046346 -0.283735E-05  0.254E-03    0.95       3.8  T
   8   -252.8046348 -0.150917E-06  0.177E-03    0.95       5.5  T
     SCC iter.                  ...        0 min,  0.125 sec
     gradient                   ...        0 min,  0.024 sec
 * total energy  :  -249.2345405 Eh     change       -0.3376302E-02 Eh
   gradient norm :     0.0327460 Eh/α   predicted    -0.4686334E-02 (  38.80%)
   displ. norm   :     0.6333506 α      lambda       -0.8276574E-02
   maximum displ.:     0.1770335 α      in ANC's #59, #20, #11, ...

........................................................................
.............................. CYCLE    5 ..............................
........................................................................
   1   -252.8203537 -0.252820E+03  0.400E-01    0.91       0.0  T
   2   -252.8205655 -0.211775E-03  0.213E-01    0.91       1.0  T
   3   -252.8201077  0.457715E-03  0.788E-02    0.91       1.0  T
   4   -252.8206507 -0.542980E-03  0.267E-02    0.91       1.0  T
   5   -252.8206677 -0.169561E-04  0.173E-02    0.91       1.0  T
   6   -252.8206916 -0.239584E-04  0.626E-03    0.91       1.6  T
   7   -252.8206948 -0.321161E-05  0.299E-03    0.91       3.2  T
   8   -252.8206949 -0.748393E-07  0.208E-03    0.91       4.7  T
     SCC iter.                  ...        0 min,  0.119 sec
     gradient                   ...        0 min,  0.021 sec
 * total energy  :  -249.2369774 Eh     change       -0.2436981E-02 Eh
   gradient norm :     0.0350832 Eh/α   predicted    -0.5798303E-02 ( 137.93%)
   displ. norm   :     0.3923434 α      lambda       -0.4745283E-02
   maximum displ.:     0.1486582 α      in ANC's #20, #37, #16, ...

........................................................................
.............................. CYCLE    6 ..............................
........................................................................
   1   -252.8205756 -0.252821E+03  0.272E-01    0.92       0.0  T
   2   -252.8206515 -0.759181E-04  0.151E-01    0.92       1.0  T
   3   -252.8200346  0.616866E-03  0.745E-02    0.92       1.0  T
   4   -252.8207316 -0.696948E-03  0.117E-02    0.92       1.0  T
   5   -252.8207390 -0.741438E-05  0.732E-03    0.92       1.3  T
   6   -252.8207423 -0.332072E-05  0.314E-03    0.92       3.1  T
   7   -252.8207428 -0.525737E-06  0.164E-03    0.92       5.9  T
     SCC iter.                  ...        0 min,  0.105 sec
     gradient                   ...        0 min,  0.021 sec
 * total energy  :  -249.2384284 Eh     change       -0.1450976E-02 Eh
   gradient norm :     0.0390047 Eh/α   predicted    -0.2737871E-02 (  88.69%)
   displ. norm   :     0.3766814 α      lambda       -0.4793676E-02
   maximum displ.:     0.1645974 α      in ANC's #33, #28, #10, ...

........................................................................
.............................. CYCLE    7 ..............................
........................................................................
   1   -252.8249118 -0.252825E+03  0.217E-01    0.94       0.0  T
   2   -252.8249953 -0.834363E-04  0.121E-01    0.94       1.0  T
   3   -252.8245089  0.486397E-03  0.656E-02    0.94       1.0  T
   4   -252.8250565 -0.547609E-03  0.158E-02    0.94       1.0  T
   5   -252.8250767 -0.201871E-04  0.807E-03    0.94       1.2  T
   6   -252.8250815 -0.479762E-05  0.360E-03    0.94       2.7  T
   7   -252.8250823 -0.803023E-06  0.172E-03    0.94       5.7  T
     SCC iter.                  ...        0 min,  0.105 sec
     gradient                   ...        0 min,  0.021 sec
 * total energy  :  -249.2401706 Eh     change       -0.1742190E-02 Eh
   gradient norm :     0.0266281 Eh/α   predicted    -0.2736923E-02 (  57.10%)
   displ. norm   :     0.3756288 α      lambda       -0.2381549E-02
   maximum displ.:     0.1193526 α      in ANC's #20, #11, #10, ...

........................................................................
.............................. CYCLE    8 ..............................
........................................................................
   1   -252.8210697 -0.252821E+03  0.210E-01    0.93       0.0  T
   2   -252.8211310 -0.612974E-04  0.113E-01    0.93       1.0  T
   3   -252.8209967  0.134307E-03  0.453E-02    0.93       1.0  T
   4   -252.8211631 -0.166401E-03  0.128E-02    0.93       1.0  T
   5   -252.8211642 -0.117654E-05  0.825E-03    0.93       1.2  T
   6   -252.8211698 -0.558353E-05  0.317E-03    0.93       3.1  T
   7   -252.8211706 -0.833228E-06  0.155E-03    0.93       6.3  T
     SCC iter.                  ...        0 min,  0.104 sec
     gradient                   ...        0 min,  0.021 sec
 * total energy  :  -249.2412008 Eh     change       -0.1030202E-02 Eh
   gradient norm :     0.0192879 Eh/α   predicted    -0.1358790E-02 (  31.90%)
   displ. norm   :     0.5076821 α      lambda       -0.3155162E-02
   maximum displ.:     0.1665979 α      in ANC's #10, #20, #11, ...

........................................................................
.............................. CYCLE    9 ..............................
........................................................................
   1   -252.8136491 -0.252814E+03  0.301E-01    0.91       0.0  T
   2   -252.8137740 -0.124924E-03  0.162E-01    0.90       1.0  T
   3   -252.8136300  0.144064E-03  0.495E-02    0.91       1.0  T
   4   -252.8138239 -0.193892E-03  0.174E-02    0.90       1.0  T
   5   -252.8138278 -0.390591E-05  0.101E-02    0.90       1.0  T
   6   -252.8138360 -0.819352E-05  0.401E-03    0.90       2.4  T
   7   -252.8138372 -0.128706E-05  0.195E-03    0.90       5.0  T
   8   -252.8138373 -0.490272E-07  0.119E-03    0.90       8.1  T
     SCC iter.                  ...        0 min,  0.119 sec
     gradient                   ...        0 min,  0.021 sec
 * total energy  :  -249.2411968 Eh     change        0.3996615E-05 Eh
   gradient norm :     0.0492562 Eh/α   predicted    -0.1984192E-02 (*******%)
   displ. norm   :     0.2936039 α      lambda       -0.3877089E-02
   maximum displ.:     0.0913174 α      in ANC's #39, #54, #34, ...

........................................................................
.............................. CYCLE   10 ..............................
........................................................................
   1   -252.8232413 -0.252823E+03  0.197E-01    0.91       0.0  T
   2   -252.8232924 -0.511055E-04  0.110E-01    0.91       1.0  T
   3   -252.8230844  0.208047E-03  0.447E-02    0.91       1.0  T
   4   -252.8233267 -0.242302E-03  0.776E-03    0.91       1.3  T
   5   -252.8233286 -0.187959E-05  0.487E-03    0.91       2.0  T
   6   -252.8233302 -0.164475E-05  0.224E-03    0.91       4.3  T
     SCC iter.                  ...        0 min,  0.090 sec
     gradient                   ...        0 min,  0.021 sec
 * total energy  :  -249.2430285 Eh     change       -0.1831729E-02 Eh
   gradient norm :     0.0217627 Eh/α   predicted    -0.2105655E-02 (  14.95%)
   displ. norm   :     0.3705274 α      lambda       -0.2258410E-02
   maximum displ.:     0.1156581 α      in ANC's #10, #11, #25, ...

........................................................................
.............................. CYCLE   11 ..............................
........................................................................
   1   -252.8318791 -0.252832E+03  0.192E-01    0.92       0.0  T
   2   -252.8319296 -0.505642E-04  0.105E-01    0.92       1.0  T
   3   -252.8317502  0.179388E-03  0.410E-02    0.92       1.0  T
   4   -252.8319530 -0.202804E-03  0.120E-02    0.92       1.0  T
   5   -252.8319614 -0.835612E-05  0.661E-03    0.92       1.5  T
   6   -252.8319645 -0.310778E-05  0.293E-03    0.92       3.3  T
   7   -252.8319653 -0.798689E-06  0.115E-03    0.92       8.5  T
     SCC iter.                  ...        0 min,  0.105 sec
     gradient                   ...        0 min,  0.021 sec
 * total energy  :  -249.2435865 Eh     change       -0.5579945E-03 Eh
   gradient norm :     0.0255135 Eh/α   predicted    -0.1284236E-02 ( 130.15%)
   displ. norm   :     0.4240926 α      lambda       -0.1899428E-02
   maximum displ.:     0.1514313 α      in ANC's #10, #11, #20, ...

........................................................................
.............................. CYCLE   12 ..............................
........................................................................
   1   -252.8262927 -0.252826E+03  0.179E-01    0.92       0.0  T
   2   -252.8263315 -0.387690E-04  0.977E-02    0.92       1.0  T
   3   -252.8262251  0.106411E-03  0.359E-02    0.92       1.0  T
   4   -252.8263503 -0.125187E-03  0.115E-02    0.92       1.0  T
   5   -252.8263529 -0.260296E-05  0.665E-03    0.92       1.5  T
   6   -252.8263565 -0.363085E-05  0.260E-03    0.92       3.7  T
   7   -252.8263570 -0.531518E-06  0.129E-03    0.92       7.5  T
     SCC iter.                  ...        0 min,  0.105 sec
     gradient                   ...        0 min,  0.021 sec
 * total energy  :  -249.2448172 Eh     change       -0.1230671E-02 Eh
   gradient norm :     0.0154888 Eh/α   predicted    -0.1120529E-02 (  -8.95%)
   displ. norm   :     0.5561458 α      lambda       -0.1758498E-02
   maximum displ.:     0.2224296 α      in ANC's #10, #11, #9, ...

........................................................................
.............................. CYCLE   13 ..............................
........................................................................
   1   -252.8192846 -0.252819E+03  0.218E-01    0.90       0.0  T
   2   -252.8193501 -0.654432E-04  0.116E-01    0.90       1.0  T
   3   -252.8192169  0.133133E-03  0.426E-02    0.90       1.0  T
   4   -252.8193717 -0.154815E-03  0.169E-02    0.90       1.0  T
   5   -252.8193778 -0.610427E-05  0.100E-02    0.90       1.0  T
   6   -252.8193882 -0.103141E-04  0.311E-03    0.90       3.1  T
   7   -252.8193889 -0.721577E-06  0.158E-03    0.90       6.1  T
   8   -252.8193889 -0.431141E-07  0.108E-03    0.90       9.0  T
     SCC iter.                  ...        0 min,  0.120 sec
     gradient                   ...        0 min,  0.021 sec
 * total energy  :  -249.2458375 Eh     change       -0.1020253E-02 Eh
   gradient norm :     0.0232767 Eh/α   predicted    -0.1151203E-02 (  12.84%)
   displ. norm   :     0.5574448 α      lambda       -0.1456768E-02
   maximum displ.:     0.2324286 α      in ANC's #10, #11, #14, ...

........................................................................
.............................. CYCLE   14 ..............................
........................................................................
   1   -252.8268516 -0.252827E+03  0.171E-01    0.90       0.0  T
   2   -252.8268918 -0.401576E-04  0.924E-02    0.90       1.0  T
   3   -252.8267748  0.116939E-03  0.368E-02    0.90       1.0  T
   4   -252.8269090 -0.134205E-03  0.132E-02    0.90       1.0  T
   5   -252.8269125 -0.348580E-05  0.755E-03    0.90       1.3  T
   6   -252.8269176 -0.510850E-05  0.277E-03    0.90       3.5  T
   7   -252.8269183 -0.676866E-06  0.129E-03    0.90       7.5  T
     SCC iter.                  ...        0 min,  0.105 sec
     gradient                   ...        0 min,  0.021 sec
 * total energy  :  -249.2468602 Eh     change       -0.1022776E-02 Eh
   gradient norm :     0.0143301 Eh/α   predicted    -0.9547319E-03 (  -6.65%)
   displ. norm   :     0.6688678 α      lambda       -0.1863450E-02
   maximum displ.:     0.2803389 α      in ANC's #10, #11, #14, ...

........................................................................
.............................. CYCLE   15 ..............................
........................................................................
   1   -252.8324623 -0.252832E+03  0.214E-01    0.90       0.0  T
   2   -252.8325118 -0.494838E-04  0.116E-01    0.90       1.0  T
   3   -252.8323400  0.171846E-03  0.433E-02    0.90       1.0  T
   4   -252.8325366 -0.196586E-03  0.157E-02    0.90       1.0  T
   5   -252.8325405 -0.399484E-05  0.809E-03    0.90       1.2  T
   6   -252.8325475 -0.691272E-05  0.289E-03    0.90       3.4  T
   7   -252.8325481 -0.639954E-06  0.155E-03    0.90       6.2  T
   8   -252.8325482 -0.768917E-07  0.939E-04    0.90      10.3  T
     SCC iter.                  ...        0 min,  0.120 sec
     gradient                   ...        0 min,  0.021 sec
 * total energy  :  -249.2480401 Eh     change       -0.1179869E-02 Eh
   gradient norm :     0.0195315 Eh/α   predicted    -0.1348574E-02 (  14.30%)
   displ. norm   :     0.6532480 α      lambda       -0.1643702E-02
   maximum displ.:     0.2828387 α      in ANC's #10, #11, #9, ...

........................................................................
.............................. CYCLE   16 ..............................
........................................................................
   1   -252.8315679 -0.252832E+03  0.203E-01    0.90       0.0  T
   2   -252.8316325 -0.646097E-04  0.111E-01    0.90       1.0  T
   3   -252.8315153  0.117237E-03  0.371E-02    0.90       1.0  T
   4   -252.8316457 -0.130403E-03  0.168E-02    0.90       1.0  T
   5   -252.8316564 -0.107233E-04  0.100E-02    0.90       1.0  T
   6   -252.8316653 -0.885660E-05  0.333E-03    0.90       2.9  T
   7   -252.8316662 -0.883551E-06  0.158E-03    0.90       6.1  T
   8   -252.8316662 -0.616981E-07  0.981E-04    0.90       9.9  T
     SCC iter.                  ...        0 min,  0.120 sec
     gradient                   ...        0 min,  0.021 sec
 * total energy  :  -249.2489503 Eh     change       -0.9101981E-03 Eh
   gradient norm :     0.0285924 Eh/α   predicted    -0.1172570E-02 (  28.83%)
   displ. norm   :     0.5624313 α      lambda       -0.1568344E-02
   maximum displ.:     0.2544459 α      in ANC's #10, #9, #11, ...

........................................................................
.............................. CYCLE   17 ..............................
........................................................................
   1   -252.8318714 -0.252832E+03  0.159E-01    0.90       0.0  T
   2   -252.8319144 -0.430180E-04  0.846E-02    0.90       1.0  T
   3   -252.8317699  0.144533E-03  0.382E-02    0.90       1.0  T
   4   -252.8319298 -0.159911E-03  0.137E-02    0.90       1.0  T
   5   -252.8319369 -0.704472E-05  0.801E-03    0.90       1.2  T
   6   -252.8319422 -0.533464E-05  0.314E-03    0.90       3.1  T
   7   -252.8319430 -0.778607E-06  0.144E-03    0.90       6.8  T
     SCC iter.                  ...        0 min,  0.106 sec
     gradient                   ...        0 min,  0.021 sec
 * total energy  :  -249.2501695 Eh     change       -0.1219235E-02 Eh
   gradient norm :     0.0155022 Eh/α   predicted    -0.1032235E-02 ( -15.34%)
   displ. norm   :     0.7223193 α      lambda       -0.1589899E-02
   maximum displ.:     0.3248648 α      in ANC's #10, #9, #11, ...

........................................................................
.............................. CYCLE   18 ..............................
........................................................................
   1   -252.8330906 -0.252833E+03  0.189E-01    0.89       0.0  T
   2   -252.8331332 -0.426906E-04  0.104E-01    0.89       1.0  T
   3   -252.8329335  0.199714E-03  0.455E-02    0.89       1.0  T
   4   -252.8331533 -0.219756E-03  0.167E-02    0.89       1.0  T
   5   -252.8331602 -0.693374E-05  0.991E-03    0.89       1.0  T
   6   -252.8331696 -0.940213E-05  0.294E-03    0.89       3.3  T
   7   -252.8331702 -0.600820E-06  0.159E-03    0.89       6.1  T
   8   -252.8331703 -0.757571E-07  0.106E-03    0.89       9.2  T
     SCC iter.                  ...        0 min,  0.125 sec
     gradient                   ...        0 min,  0.024 sec
 * total energy  :  -249.2512849 Eh     change       -0.1115363E-02 Eh
   gradient norm :     0.0211187 Eh/α   predicted    -0.1209720E-02 (   8.46%)
   displ. norm   :     0.6687303 α      lambda       -0.1690423E-02
   maximum displ.:     0.2778982 α      in ANC's #10, #9, #7, ...

........................................................................
.............................. CYCLE   19 ..............................
........................................................................
   1   -252.8418300 -0.252842E+03  0.178E-01    0.89       0.0  T
   2   -252.8418875 -0.575130E-04  0.952E-02    0.89       1.0  T
   3   -252.8417718  0.115676E-03  0.372E-02    0.89       1.0  T
   4   -252.8418955 -0.123617E-03  0.165E-02    0.89       1.0  T
   5   -252.8419093 -0.138393E-04  0.888E-03    0.89       1.1  T
   6   -252.8419149 -0.556717E-05  0.395E-03    0.89       2.5  T
   7   -252.8419163 -0.148278E-05  0.154E-03    0.89       6.3  T
     SCC iter.                  ...        0 min,  0.106 sec
     gradient                   ...        0 min,  0.021 sec
 * total energy  :  -249.2522587 Eh     change       -0.9738520E-03 Eh
   gradient norm :     0.0247491 Eh/α   predicted    -0.1223194E-02 (  25.60%)
   displ. norm   :     0.6824013 α      lambda       -0.1798418E-02
   maximum displ.:     0.3052870 α      in ANC's #10, #9, #11, ...

........................................................................
.............................. CYCLE   20 ..............................
........................................................................
   1   -252.8295618 -0.252830E+03  0.179E-01    0.90       0.0  T
   2   -252.8296076 -0.457872E-04  0.989E-02    0.89       1.0  T
   3   -252.8294642  0.143437E-03  0.404E-02    0.90       1.0  T
   4   -252.8296220 -0.157763E-03  0.157E-02    0.89       1.0  T
   5   -252.8296311 -0.918006E-05  0.816E-03    0.90       1.2  T
   6   -252.8296369 -0.574445E-05  0.331E-03    0.89       2.9  T
   7   -252.8296380 -0.113841E-05  0.139E-03    0.89       7.0  T
     SCC iter.                  ...        0 min,  0.105 sec
     gradient                   ...        0 min,  0.021 sec
 * total energy  :  -249.2534391 Eh     change       -0.1180359E-02 Eh
   gradient norm :     0.0223504 Eh/α   predicted    -0.1317944E-02 (  11.66%)
   displ. norm   :     0.5802168 α      lambda       -0.1792291E-02
   maximum displ.:     0.2528706 α      in ANC's #9, #10, #7, ...
 * RMSD in coord.:     0.7768636 α      energy gain  -0.6996694E-01 Eh

generating ANC from model Hessian ...
Using Lindh-Hessian (1995)
 Shifting diagonal of input Hessian by   5.031435502873023E-003
 Lowest  eigenvalues of input Hessian
    0.005000    0.005027   -0.000000   -0.000000   -0.000000    0.000000
    0.000000    0.000000    0.005055    0.005083    0.005113    0.005173
    0.005182    0.005246    0.005307    0.005361    0.005392    0.005468
 Highest eigenvalues
    2.587430    2.615785    2.634162    2.659147    2.665538    2.685176
 

........................................................................
.............................. CYCLE   21 ..............................
........................................................................
   1   -252.8344380 -0.252834E+03  0.172E-01    0.90       0.0  T
   2   -252.8345195 -0.815074E-04  0.946E-02    0.90       1.0  T
   3   -252.8343606  0.158905E-03  0.415E-02    0.89       1.0  T
   4   -252.8345422 -0.181533E-03  0.147E-02    0.90       1.0  T
   5   -252.8345541 -0.119560E-04  0.785E-03    0.90       1.2  T
   6   -252.8345575 -0.342089E-05  0.411E-03    0.90       2.4  T
   7   -252.8345592 -0.165743E-05  0.176E-03    0.90       5.5  T
   8   -252.8345594 -0.172721E-06  0.102E-03    0.90       9.5  T
   9   -252.8345594 -0.180927E-07  0.685E-04    0.90      14.2  T
  10   -252.8345594 -0.158975E-07  0.391E-04    0.90      24.8  T
     SCC iter.                  ...        0 min,  0.151 sec
     gradient                   ...        0 min,  0.022 sec
 * total energy  :  -249.2539890 Eh     change       -0.5498481E-03 Eh
   gradient norm :     0.0440881 Eh/α   predicted     0.0000000E+00 (-100.00%)
   displ. norm   :     0.2756454 α      lambda       -0.2175358E-02
   maximum displ.:     0.1244308 α      in ANC's #10, #31, #32, ...

........................................................................
.............................. CYCLE   22 ..............................
........................................................................
   1   -252.8318517 -0.252832E+03  0.151E-01    0.89       0.0  T
   2   -252.8318917 -0.399977E-04  0.834E-02    0.89       1.0  T
   3   -252.8318401  0.516364E-04  0.268E-02    0.90       1.0  T
   4   -252.8319067 -0.666490E-04  0.913E-03    0.89       1.1  T
   5   -252.8319086 -0.184596E-05  0.530E-03    0.89       1.8  T
   6   -252.8319105 -0.191270E-05  0.235E-03    0.89       4.1  T
     SCC iter.                  ...        0 min,  0.091 sec
     gradient                   ...        0 min,  0.021 sec
 * total energy  :  -249.2545870 Eh     change       -0.5980859E-03 Eh
   gradient norm :     0.0174902 Eh/α   predicted    -0.1170324E-02 (  95.68%)
   displ. norm   :     0.4276827 α      lambda       -0.3192462E-02
   maximum displ.:     0.1965619 α      in ANC's #13, #24, #32, ...

........................................................................
.............................. CYCLE   23 ..............................
........................................................................
   1   -252.8294227 -0.252829E+03  0.316E-01    0.89       0.0  T
   2   -252.8295615 -0.138770E-03  0.175E-01    0.89       1.0  T
   3   -252.8294792  0.822478E-04  0.382E-02    0.90       1.0  T
   4   -252.8296139 -0.134712E-03  0.133E-02    0.89       1.0  T
   5   -252.8296197 -0.580309E-05  0.813E-03    0.89       1.2  T
   6   -252.8296238 -0.403018E-05  0.372E-03    0.89       2.6  T
   7   -252.8296250 -0.118013E-05  0.159E-03    0.89       6.1  T
   8   -252.8296250 -0.903000E-07  0.888E-04    0.89      10.9  T
     SCC iter.                  ...        0 min,  0.121 sec
     gradient                   ...        0 min,  0.021 sec
 * total energy  :  -249.2539365 Eh     change        0.6505060E-03 Eh
   gradient norm :     0.0625559 Eh/α   predicted    -0.1888202E-02 (-390.27%)
   displ. norm   :     0.1918492 α      lambda       -0.3530376E-02
   maximum displ.:     0.0749637 α      in ANC's #13, #25, #24, ...

........................................................................
.............................. CYCLE   24 ..............................
........................................................................
   1   -252.8406101 -0.252841E+03  0.166E-01    0.89       0.0  T
   2   -252.8406545 -0.443726E-04  0.912E-02    0.89       1.0  T
   3   -252.8405664  0.881053E-04  0.301E-02    0.89       1.0  T
   4   -252.8406760 -0.109604E-03  0.570E-03    0.89       1.7  T
   5   -252.8406778 -0.183459E-05  0.324E-03    0.89       3.0  T
   6   -252.8406786 -0.762660E-06  0.151E-03    0.89       6.4  T
     SCC iter.                  ...        0 min,  0.091 sec
     gradient                   ...        0 min,  0.021 sec
 * total energy  :  -249.2557812 Eh     change       -0.1844688E-02 Eh
   gradient norm :     0.0194129 Eh/α   predicted    -0.1830171E-02 (  -0.79%)
   displ. norm   :     0.2692875 α      lambda       -0.1560893E-02
   maximum displ.:     0.0965723 α      in ANC's #10, #26, #42, ...

........................................................................
.............................. CYCLE   25 ..............................
........................................................................
   1   -252.8366875 -0.252837E+03  0.192E-01    0.89       0.0  T
   2   -252.8367334 -0.458692E-04  0.107E-01    0.89       1.0  T
   3   -252.8366196  0.113766E-03  0.328E-02    0.89       1.0  T
   4   -252.8367590 -0.139425E-03  0.728E-03    0.89       1.3  T
   5   -252.8367612 -0.217852E-05  0.456E-03    0.89       2.1  T
   6   -252.8367624 -0.116161E-05  0.218E-03    0.89       4.5  T
   7   -252.8367628 -0.391770E-06  0.905E-04    0.89      10.7  T
     SCC iter.                  ...        0 min,  0.107 sec
     gradient                   ...        0 min,  0.021 sec
 * total energy  :  -249.2555873 Eh     change        0.1939273E-03 Eh
   gradient norm :     0.0272996 Eh/α   predicted    -0.8370475E-03 (-531.63%)
   displ. norm   :     0.2365310 α      lambda       -0.1798313E-02
   maximum displ.:     0.0900275 α      in ANC's #32, #10, #44, ...

........................................................................
.............................. CYCLE   26 ..............................
........................................................................
   1   -252.8370463 -0.252837E+03  0.145E-01    0.89       0.0  T
   2   -252.8370720 -0.257037E-04  0.807E-02    0.89       1.0  T
   3   -252.8370463  0.257414E-04  0.197E-02    0.89       1.0  T
   4   -252.8370847 -0.384029E-04  0.606E-03    0.89       1.6  T
   5   -252.8370848 -0.128551E-06  0.408E-03    0.89       2.4  T
   6   -252.8370862 -0.139638E-05  0.156E-03    0.89       6.2  T
     SCC iter.                  ...        0 min,  0.090 sec
     gradient                   ...        0 min,  0.021 sec
 * total energy  :  -249.2565606 Eh     change       -0.9733258E-03 Eh
   gradient norm :     0.0167507 Eh/α   predicted    -0.9494724E-03 (  -2.45%)
   displ. norm   :     0.3778538 α      lambda       -0.1738534E-02
   maximum displ.:     0.1474459 α      in ANC's #10, #9, #32, ...

........................................................................
.............................. CYCLE   27 ..............................
........................................................................
   1   -252.8299421 -0.252830E+03  0.225E-01    0.89       0.0  T
   2   -252.8300056 -0.635048E-04  0.125E-01    0.89       1.0  T
   3   -252.8299332  0.724141E-04  0.311E-02    0.89       1.0  T
   4   -252.8300369 -0.103746E-03  0.959E-03    0.89       1.0  T
   5   -252.8300379 -0.100658E-05  0.556E-03    0.89       1.7  T
   6   -252.8300401 -0.215641E-05  0.260E-03    0.89       3.7  T
   7   -252.8300406 -0.542094E-06  0.127E-03    0.89       7.7  T
     SCC iter.                  ...        0 min,  0.106 sec
     gradient                   ...        0 min,  0.021 sec
 * total energy  :  -249.2561953 Eh     change        0.3653105E-03 Eh
   gradient norm :     0.0348734 Eh/α   predicted    -0.9933851E-03 (-371.93%)
   displ. norm   :     0.2073723 α      lambda       -0.2357623E-02
   maximum displ.:     0.0716006 α      in ANC's #8, #12, #21, ...

........................................................................
.............................. CYCLE   28 ..............................
........................................................................
   1   -252.8383349 -0.252838E+03  0.138E-01    0.89       0.0  T
   2   -252.8383598 -0.248773E-04  0.760E-02    0.89       1.0  T
   3   -252.8383419  0.179390E-04  0.155E-02    0.89       1.0  T
   4   -252.8383703 -0.284563E-04  0.496E-03    0.89       2.0  T
   5   -252.8383713 -0.993016E-06  0.289E-03    0.89       3.4  T
   6   -252.8383719 -0.592988E-06  0.131E-03    0.89       7.4  T
     SCC iter.                  ...        0 min,  0.091 sec
     gradient                   ...        0 min,  0.021 sec
 * total energy  :  -249.2574974 Eh     change       -0.1302109E-02 Eh
   gradient norm :     0.0152137 Eh/α   predicted    -0.1229512E-02 (  -5.58%)
   displ. norm   :     0.3571083 α      lambda       -0.1410430E-02
   maximum displ.:     0.1703120 α      in ANC's #10, #9, #17, ...

........................................................................
.............................. CYCLE   29 ..............................
........................................................................
   1   -252.8346585 -0.252835E+03  0.197E-01    0.89       0.0  T
   2   -252.8347071 -0.485595E-04  0.108E-01    0.89       1.0  T
   3   -252.8346461  0.609704E-04  0.262E-02    0.89       1.0  T
   4   -252.8347284 -0.822978E-04  0.885E-03    0.89       1.1  T
   5   -252.8347312 -0.282058E-05  0.503E-03    0.89       1.9  T
   6   -252.8347330 -0.176882E-05  0.232E-03    0.89       4.2  T
   7   -252.8347334 -0.437214E-06  0.106E-03    0.89       9.2  T
     SCC iter.                  ...        0 min,  0.107 sec
     gradient                   ...        0 min,  0.021 sec
 * total energy  :  -249.2572067 Eh     change        0.2907595E-03 Eh
   gradient norm :     0.0241995 Eh/α   predicted    -0.7951536E-03 (-373.47%)
   displ. norm   :     0.2817081 α      lambda       -0.2204848E-02
   maximum displ.:     0.1145581 α      in ANC's #8, #10, #9, ...

........................................................................
.............................. CYCLE   30 ..............................
........................................................................
   1   -252.8378160 -0.252838E+03  0.150E-01    0.89       0.0  T
   2   -252.8378426 -0.265694E-04  0.826E-02    0.89       1.0  T
   3   -252.8378372  0.534654E-05  0.140E-02    0.89       1.0  T
   4   -252.8378536 -0.164058E-04  0.631E-03    0.89       1.5  T
   5   -252.8378548 -0.123699E-05  0.284E-03    0.89       3.4  T
   6   -252.8378555 -0.649072E-06  0.138E-03    0.89       7.0  T
     SCC iter.                  ...        0 min,  0.091 sec
     gradient                   ...        0 min,  0.021 sec
 * total energy  :  -249.2585212 Eh     change       -0.1314566E-02 Eh
   gradient norm :     0.0148209 Eh/α   predicted    -0.1189921E-02 (  -9.48%)
   displ. norm   :     0.4670016 α      lambda       -0.1316006E-02
   maximum displ.:     0.2148437 α      in ANC's #10, #8, #9, ...

........................................................................
.............................. CYCLE   31 ..............................
........................................................................
   1   -252.8350063 -0.252835E+03  0.187E-01    0.89       0.0  T
   2   -252.8350526 -0.463636E-04  0.103E-01    0.89       1.0  T
   3   -252.8350222  0.304867E-04  0.257E-02    0.89       1.0  T
   4   -252.8350712 -0.490545E-04  0.107E-02    0.89       1.0  T
   5   -252.8350721 -0.865170E-06  0.623E-03    0.89       1.6  T
   6   -252.8350762 -0.410535E-05  0.252E-03    0.89       3.9  T
   7   -252.8350767 -0.511314E-06  0.126E-03    0.89       7.7  T
   8   -252.8350767 -0.473722E-07  0.706E-04    0.89      13.8  T
     SCC iter.                  ...        0 min,  0.121 sec
     gradient                   ...        0 min,  0.021 sec
 * total energy  :  -249.2587981 Eh     change       -0.2768994E-03 Eh
   gradient norm :     0.0226907 Eh/α   predicted    -0.8015107E-03 ( 189.46%)
   displ. norm   :     0.4064351 α      lambda       -0.1610976E-02
   maximum displ.:     0.2019287 α      in ANC's #10, #9, #8, ...

........................................................................
.............................. CYCLE   32 ..............................
........................................................................
   1   -252.8386912 -0.252839E+03  0.148E-01    0.89       0.0  T
   2   -252.8387176 -0.263506E-04  0.813E-02    0.89       1.0  T
   3   -252.8386839  0.337112E-04  0.232E-02    0.89       1.0  T
   4   -252.8387294 -0.454952E-04  0.911E-03    0.89       1.1  T
   5   -252.8387309 -0.148764E-05  0.431E-03    0.89       2.3  T
   6   -252.8387326 -0.170606E-05  0.190E-03    0.89       5.1  T
     SCC iter.                  ...        0 min,  0.091 sec
     gradient                   ...        0 min,  0.021 sec
 * total energy  :  -249.2599033 Eh     change       -0.1105164E-02 Eh
   gradient norm :     0.0137619 Eh/α   predicted    -0.9385520E-03 ( -15.08%)
   displ. norm   :     0.5677165 α      lambda       -0.1328244E-02
   maximum displ.:     0.2947633 α      in ANC's #10, #9, #8, ...

........................................................................
.............................. CYCLE   33 ..............................
........................................................................
   1   -252.8394597 -0.252839E+03  0.176E-01    0.89       0.0  T
   2   -252.8395007 -0.410037E-04  0.952E-02    0.89       1.0  T
   3   -252.8394411  0.596223E-04  0.287E-02    0.88       1.0  T
   4   -252.8395087 -0.676132E-04  0.139E-02    0.88       1.0  T
   5   -252.8395185 -0.975308E-05  0.593E-03    0.89       1.6  T
   6   -252.8395209 -0.241776E-05  0.309E-03    0.88       3.1  T
   7   -252.8395218 -0.958930E-06  0.137E-03    0.88       7.1  T
   8   -252.8395219 -0.263480E-07  0.885E-04    0.88      11.0  T
     SCC iter.                  ...        0 min,  0.119 sec
     gradient                   ...        0 min,  0.021 sec
 * total energy  :  -249.2606995 Eh     change       -0.7961783E-03 Eh
   gradient norm :     0.0145371 Eh/α   predicted    -0.8781796E-03 (  10.30%)
   displ. norm   :     0.7127351 α      lambda       -0.1473385E-02
   maximum displ.:     0.3615584 α      in ANC's #10, #9, #8, ...

........................................................................
.............................. CYCLE   34 ..............................
........................................................................
   1   -252.8356170 -0.252836E+03  0.209E-01    0.88       0.0  T
   2   -252.8356823 -0.653055E-04  0.116E-01    0.88       1.0  T
   3   -252.8356425  0.397790E-04  0.307E-02    0.88       1.0  T
   4   -252.8356888 -0.462272E-04  0.182E-02    0.88       1.0  T
   5   -252.8357078 -0.190515E-04  0.736E-03    0.88       1.3  T
   6   -252.8357118 -0.402251E-05  0.346E-03    0.88       2.8  T
   7   -252.8357130 -0.116936E-05  0.171E-03    0.88       5.7  T
   8   -252.8357131 -0.910255E-07  0.102E-03    0.88       9.5  T
     SCC iter.                  ...        0 min,  0.119 sec
     gradient                   ...        0 min,  0.021 sec
 * total energy  :  -249.2616180 Eh     change       -0.9185760E-03 Eh
   gradient norm :     0.0217899 Eh/α   predicted    -0.1110924E-02 (  20.94%)
   displ. norm   :     0.5349374 α      lambda       -0.1547654E-02
   maximum displ.:     0.2675290 α      in ANC's #10, #9, #8, ...

........................................................................
.............................. CYCLE   35 ..............................
........................................................................
   1   -252.8439517 -0.252844E+03  0.166E-01    0.88       0.0  T
   2   -252.8440100 -0.582920E-04  0.894E-02    0.88       1.0  T
   3   -252.8439636  0.463050E-04  0.272E-02    0.89       1.0  T
   4   -252.8440145 -0.508478E-04  0.137E-02    0.88       1.0  T
   5   -252.8440257 -0.112086E-04  0.701E-03    0.88       1.4  T
   6   -252.8440286 -0.286514E-05  0.347E-03    0.88       2.8  T
   7   -252.8440297 -0.117208E-05  0.137E-03    0.88       7.1  T
     SCC iter.                  ...        0 min,  0.105 sec
     gradient                   ...        0 min,  0.021 sec
 * total energy  :  -249.2621598 Eh     change       -0.5417383E-03 Eh
   gradient norm :     0.0195909 Eh/α   predicted    -0.9952728E-03 (  83.72%)
   displ. norm   :     0.5677724 α      lambda       -0.2009157E-02
   maximum displ.:     0.2705034 α      in ANC's #10, #9, #8, ...

........................................................................
.............................. CYCLE   36 ..............................
........................................................................
   1   -252.8404317 -0.252840E+03  0.200E-01    0.88       0.0  T
   2   -252.8405026 -0.709453E-04  0.111E-01    0.88       1.0  T
   3   -252.8404871  0.154763E-04  0.255E-02    0.88       1.0  T
   4   -252.8405195 -0.323228E-04  0.133E-02    0.88       1.0  T
   5   -252.8405254 -0.597933E-05  0.725E-03    0.88       1.3  T
   6   -252.8405289 -0.346908E-05  0.299E-03    0.88       3.3  T
   7   -252.8405296 -0.699055E-06  0.144E-03    0.88       6.7  T
   8   -252.8405296 -0.393862E-07  0.817E-04    0.88      11.9  T
     SCC iter.                  ...        0 min,  0.127 sec
     gradient                   ...        0 min,  0.024 sec
 * total energy  :  -249.2629745 Eh     change       -0.8147440E-03 Eh
   gradient norm :     0.0272254 Eh/α   predicted    -0.1328421E-02 (  63.05%)
   displ. norm   :     0.5025254 α      lambda       -0.1385539E-02
   maximum displ.:     0.2472780 α      in ANC's #10, #9, #8, ...

........................................................................
.............................. CYCLE   37 ..............................
........................................................................
   1   -252.8364636 -0.252836E+03  0.162E-01    0.88       0.0  T
   2   -252.8364951 -0.315228E-04  0.880E-02    0.88       1.0  T
   3   -252.8364071  0.879718E-04  0.322E-02    0.88       1.0  T
   4   -252.8365107 -0.103588E-03  0.111E-02    0.88       1.0  T
   5   -252.8365140 -0.335080E-05  0.524E-03    0.88       1.9  T
   6   -252.8365162 -0.213751E-05  0.242E-03    0.88       4.0  T
     SCC iter.                  ...        0 min,  0.091 sec
     gradient                   ...        0 min,  0.021 sec
 * total energy  :  -249.2639506 Eh     change       -0.9760857E-03 Eh
   gradient norm :     0.0138745 Eh/α   predicted    -0.8677180E-03 ( -11.10%)
   displ. norm   :     0.6441378 α      lambda       -0.1209320E-02
   maximum displ.:     0.3093276 α      in ANC's #10, #9, #8, ...

........................................................................
.............................. CYCLE   38 ..............................
........................................................................
   1   -252.8385739 -0.252839E+03  0.176E-01    0.88       0.0  T
   2   -252.8386299 -0.560589E-04  0.953E-02    0.88       1.0  T
   3   -252.8385876  0.423285E-04  0.279E-02    0.88       1.0  T
   4   -252.8386269 -0.392701E-04  0.168E-02    0.88       1.0  T
   5   -252.8386456 -0.187539E-04  0.721E-03    0.88       1.3  T
   6   -252.8386486 -0.297513E-05  0.332E-03    0.88       2.9  T
   7   -252.8386497 -0.108232E-05  0.157E-03    0.88       6.2  T
   8   -252.8386497 -0.365586E-08  0.112E-03    0.88       8.7  T
     SCC iter.                  ...        0 min,  0.120 sec
     gradient                   ...        0 min,  0.021 sec
 * total energy  :  -249.2645179 Eh     change       -0.5672709E-03 Eh
   gradient norm :     0.0240455 Eh/α   predicted    -0.8555401E-03 (  50.82%)
   displ. norm   :     0.6010517 α      lambda       -0.1507629E-02
   maximum displ.:     0.2847130 α      in ANC's #10, #9, #8, ...

........................................................................
.............................. CYCLE   39 ..............................
........................................................................
   1   -252.8408348 -0.252841E+03  0.163E-01    0.88       0.0  T
   2   -252.8408837 -0.489155E-04  0.890E-02    0.88       1.0  T
   3   -252.8408317  0.520217E-04  0.279E-02    0.88       1.0  T
   4   -252.8408818 -0.500806E-04  0.160E-02    0.88       1.0  T
   5   -252.8408992 -0.174111E-04  0.692E-03    0.88       1.4  T
   6   -252.8409021 -0.291374E-05  0.336E-03    0.88       2.9  T
   7   -252.8409032 -0.107441E-05  0.132E-03    0.88       7.4  T
     SCC iter.                  ...        0 min,  0.106 sec
     gradient                   ...        0 min,  0.021 sec
 * total energy  :  -249.2655380 Eh     change       -0.1020094E-02 Eh
   gradient norm :     0.0175519 Eh/α   predicted    -0.1026107E-02 (   0.59%)
   displ. norm   :     0.7539206 α      lambda       -0.1197100E-02
   maximum displ.:     0.3634738 α      in ANC's #10, #9, #8, ...

........................................................................
.............................. CYCLE   40 ..............................
........................................................................
   1   -252.8361339 -0.252836E+03  0.209E-01    0.88       0.0  T
   2   -252.8361946 -0.606748E-04  0.114E-01    0.89       1.0  T
   3   -252.8361172  0.773782E-04  0.348E-02    0.88       1.0  T
   4   -252.8362073 -0.901509E-04  0.178E-02    0.89       1.0  T
   5   -252.8362211 -0.137657E-04  0.761E-03    0.89       1.3  T
   6   -252.8362254 -0.432098E-05  0.274E-03    0.89       3.5  T
   7   -252.8362256 -0.224948E-06  0.185E-03    0.89       5.2  T
   8   -252.8362258 -0.109164E-06  0.107E-03    0.89       9.1  T
     SCC iter.                  ...        0 min,  0.119 sec
     gradient                   ...        0 min,  0.021 sec
 * total energy  :  -249.2664085 Eh     change       -0.8705544E-03 Eh
   gradient norm :     0.0160982 Eh/α   predicted    -0.9387700E-03 (   7.84%)
   displ. norm   :     0.6119368 α      lambda       -0.1224986E-02
   maximum displ.:     0.2866975 α      in ANC's #9, #10, #8, ...

........................................................................
.............................. CYCLE   41 ..............................
........................................................................
   1   -252.8492440 -0.252849E+03  0.186E-01    0.90       0.0  T
   2   -252.8492897 -0.456962E-04  0.100E-01    0.90       1.0  T
   3   -252.8490943  0.195448E-03  0.436E-02    0.89       1.0  T
   4   -252.8493058 -0.211496E-03  0.160E-02    0.90       1.0  T
   5   -252.8493192 -0.134359E-04  0.798E-03    0.90       1.2  T
   6   -252.8493232 -0.397081E-05  0.366E-03    0.90       2.7  T
   7   -252.8493244 -0.124569E-05  0.164E-03    0.90       5.9  T
   8   -252.8493245 -0.461726E-07  0.115E-03    0.90       8.4  T
     SCC iter.                  ...        0 min,  0.120 sec
     gradient                   ...        0 min,  0.021 sec
 * total energy  :  -249.2670205 Eh     change       -0.6120157E-03 Eh
   gradient norm :     0.0264006 Eh/α   predicted    -0.8418535E-03 (  37.55%)
   displ. norm   :     0.6994033 α      lambda       -0.1545258E-02
   maximum displ.:     0.3312694 α      in ANC's #10, #9, #8, ...

........................................................................
.............................. CYCLE   42 ..............................
........................................................................
   1   -252.8423702 -0.252842E+03  0.196E-01    0.90       0.0  T
   2   -252.8424199 -0.496359E-04  0.107E-01    0.91       1.0  T
   3   -252.8423061  0.113763E-03  0.363E-02    0.90       1.0  T
   4   -252.8424257 -0.119582E-03  0.176E-02    0.91       1.0  T
   5   -252.8424423 -0.166092E-04  0.797E-03    0.91       1.2  T
   6   -252.8424472 -0.493706E-05  0.349E-03    0.91       2.8  T
   7   -252.8424483 -0.110765E-05  0.172E-03    0.91       5.6  T
     SCC iter.                  ...        0 min,  0.106 sec
     gradient                   ...        0 min,  0.021 sec
 * total energy  :  -249.2680847 Eh     change       -0.1064170E-02 Eh
   gradient norm :     0.0134478 Eh/α   predicted    -0.1150554E-02 (   8.12%)
   displ. norm   :     0.7992933 α      lambda       -0.1067635E-02
   maximum displ.:     0.3690066 α      in ANC's #10, #9, #8, ...
 * RMSD in coord.:     0.9009150 α      energy gain  -0.1464561E-01 Eh

generating ANC from model Hessian ...
Using Lindh-Hessian (1995)
 Shifting diagonal of input Hessian by   5.005131041102308E-003
 Lowest  eigenvalues of input Hessian
    0.005000   -0.000000   -0.000000   -0.000000   -0.000000    0.000000
    0.000000    0.005030    0.005040    0.005063    0.005088    0.005142
    0.005202    0.005244    0.005326    0.005336    0.005385    0.005516
 Highest eigenvalues
    2.601255    2.607404    2.638230    2.654856    2.662905    2.670383
 

........................................................................
.............................. CYCLE   43 ..............................
........................................................................
   1   -252.8356650 -0.252836E+03  0.220E-01    0.92       0.0  T
   2   -252.8357233 -0.582576E-04  0.119E-01    0.92       1.0  T
   3   -252.8355371  0.186153E-03  0.452E-02    0.91       1.0  T
   4   -252.8357446 -0.207425E-03  0.193E-02    0.92       1.0  T
   5   -252.8357563 -0.117164E-04  0.984E-03    0.92       1.0  T
   6   -252.8357646 -0.832499E-05  0.391E-03    0.92       2.5  T
   7   -252.8357661 -0.152380E-05  0.212E-03    0.92       4.6  T
   8   -252.8357663 -0.162665E-06  0.128E-03    0.92       7.6  T
   9   -252.8357663 -0.437710E-07  0.791E-04    0.92      12.3  T
  10   -252.8357663 -0.158650E-07  0.486E-04    0.92      20.0  T
     SCC iter.                  ...        0 min,  0.149 sec
     gradient                   ...        0 min,  0.022 sec
 * total energy  :  -249.2689291 Eh     change       -0.8444105E-03 Eh
   gradient norm :     0.0173161 Eh/α   predicted     0.0000000E+00 (-100.00%)
   displ. norm   :     0.1948750 α      lambda       -0.6472024E-03
   maximum displ.:     0.0678705 α      in ANC's #13, #11, #10, ...

........................................................................
.............................. CYCLE   44 ..............................
........................................................................
   1   -252.8432904 -0.252843E+03  0.831E-02    0.93       0.0  T
   2   -252.8433000 -0.958471E-05  0.458E-02    0.93       1.0  T
   3   -252.8432005  0.994767E-04  0.273E-02    0.93       1.0  T
   4   -252.8433113 -0.110754E-03  0.687E-03    0.93       1.4  T
   5   -252.8433139 -0.264084E-05  0.381E-03    0.93       2.5  T
   6   -252.8433145 -0.623345E-06  0.187E-03    0.93       5.2  T
   7   -252.8433149 -0.316451E-06  0.772E-04    0.93      12.6  T
     SCC iter.                  ...        0 min,  0.105 sec
     gradient                   ...        0 min,  0.021 sec
 * total energy  :  -249.2693798 Eh     change       -0.4507225E-03 Eh
   gradient norm :     0.0060741 Eh/α   predicted    -0.3358906E-03 ( -25.48%)
   displ. norm   :     0.2619246 α      lambda       -0.6262640E-03
   maximum displ.:     0.0793291 α      in ANC's #10, #13, #11, ...

........................................................................
.............................. CYCLE   45 ..............................
........................................................................
   1   -252.8514891 -0.252851E+03  0.132E-01    0.95       0.0  T
   2   -252.8515098 -0.207655E-04  0.735E-02    0.95       1.0  T
   3   -252.8513584  0.151415E-03  0.347E-02    0.94       1.0  T
   4   -252.8515271 -0.168679E-03  0.926E-03    0.95       1.0  T
   5   -252.8515306 -0.353954E-05  0.554E-03    0.95       1.8  T
   6   -252.8515324 -0.177327E-05  0.241E-03    0.95       4.0  T
   7   -252.8515329 -0.465448E-06  0.112E-03    0.95       8.6  T
     SCC iter.                  ...        0 min,  0.105 sec
     gradient                   ...        0 min,  0.021 sec
 * total energy  :  -249.2694623 Eh     change       -0.8246754E-04 Eh
   gradient norm :     0.0137927 Eh/α   predicted    -0.3346225E-03 ( 305.76%)
   displ. norm   :     0.2856091 α      lambda       -0.9120554E-03
   maximum displ.:     0.0980019 α      in ANC's #13, #11, #14, ...

........................................................................
.............................. CYCLE   46 ..............................
........................................................................
   1   -252.8553649 -0.252855E+03  0.137E-01    0.96       0.0  T
   2   -252.8553865 -0.216066E-04  0.759E-02    0.96       1.0  T
   3   -252.8553361  0.503340E-04  0.235E-02    0.96       1.0  T
   4   -252.8553962 -0.600289E-04  0.872E-03    0.96       1.1  T
   5   -252.8553982 -0.204854E-05  0.533E-03    0.96       1.8  T
   6   -252.8554008 -0.264593E-05  0.180E-03    0.96       5.4  T
   7   -252.8554010 -0.192685E-06  0.101E-03    0.96       9.6  T
     SCC iter.                  ...        0 min,  0.105 sec
     gradient                   ...        0 min,  0.021 sec
 * total energy  :  -249.2698457 Eh     change       -0.3833688E-03 Eh
   gradient norm :     0.0129909 Eh/α   predicted    -0.4932275E-03 (  28.66%)
   displ. norm   :     0.3003618 α      lambda       -0.9226236E-03
   maximum displ.:     0.1057303 α      in ANC's #13, #10, #11, ...

........................................................................
.............................. CYCLE   47 ..............................
........................................................................
   1   -252.8479180 -0.252848E+03  0.150E-01    0.96       0.0  T
   2   -252.8479491 -0.310694E-04  0.836E-02    0.97       1.0  T
   3   -252.8478469  0.102125E-03  0.300E-02    0.96       1.0  T
   4   -252.8479664 -0.119483E-03  0.870E-03    0.97       1.1  T
   5   -252.8479700 -0.354826E-05  0.500E-03    0.97       1.9  T
   6   -252.8479710 -0.107552E-05  0.263E-03    0.97       3.7  T
   7   -252.8479717 -0.675089E-06  0.111E-03    0.97       8.8  T
     SCC iter.                  ...        0 min,  0.106 sec
     gradient                   ...        0 min,  0.021 sec
 * total energy  :  -249.2700818 Eh     change       -0.2360872E-03 Eh
   gradient norm :     0.0104916 Eh/α   predicted    -0.5029302E-03 ( 113.03%)
   displ. norm   :     0.3112224 α      lambda       -0.9839535E-03
   maximum displ.:     0.1047901 α      in ANC's #13, #11, #10, ...

........................................................................
.............................. CYCLE   48 ..............................
........................................................................
   1   -252.8420367 -0.252842E+03  0.155E-01    0.97       0.0  T
   2   -252.8420665 -0.297520E-04  0.863E-02    0.97       1.0  T
   3   -252.8419924  0.740516E-04  0.272E-02    0.97       1.0  T
   4   -252.8420833 -0.909184E-04  0.773E-03    0.97       1.3  T
   5   -252.8420852 -0.190386E-05  0.424E-03    0.97       2.3  T
   6   -252.8420862 -0.937415E-06  0.189E-03    0.97       5.1  T
   7   -252.8420864 -0.239875E-06  0.101E-03    0.97       9.6  T
     SCC iter.                  ...        0 min,  0.105 sec
     gradient                   ...        0 min,  0.021 sec
 * total energy  :  -249.2702935 Eh     change       -0.2116845E-03 Eh
   gradient norm :     0.0126488 Eh/α   predicted    -0.5396367E-03 ( 154.93%)
   displ. norm   :     0.2801579 α      lambda       -0.1119883E-02
   maximum displ.:     0.1042359 α      in ANC's #13, #10, #11, ...

........................................................................
.............................. CYCLE   49 ..............................
........................................................................
   1   -252.8445399 -0.252845E+03  0.140E-01    0.98       0.0  T
   2   -252.8445612 -0.213376E-04  0.775E-02    0.98       1.0  T
   3   -252.8445107  0.505149E-04  0.219E-02    0.97       1.0  T
   4   -252.8445722 -0.614952E-04  0.665E-03    0.98       1.5  T
   5   -252.8445730 -0.762824E-06  0.424E-03    0.98       2.3  T
   6   -252.8445749 -0.194487E-05  0.146E-03    0.98       6.6  T
   7   -252.8445751 -0.137721E-06  0.799E-04    0.98      12.2  T
     SCC iter.                  ...        0 min,  0.105 sec
     gradient                   ...        0 min,  0.021 sec
 * total energy  :  -249.2707691 Eh     change       -0.4756217E-03 Eh
   gradient norm :     0.0095744 Eh/α   predicted    -0.6038927E-03 (  26.97%)
   displ. norm   :     0.3537755 α      lambda       -0.7569970E-03
   maximum displ.:     0.1413950 α      in ANC's #13, #10, #11, ...

........................................................................
.............................. CYCLE   50 ..............................
........................................................................
   1   -252.8473197 -0.252847E+03  0.141E-01    0.98       0.0  T
   2   -252.8473402 -0.205254E-04  0.776E-02    0.98       1.0  T
   3   -252.8472832  0.569667E-04  0.245E-02    0.98       1.0  T
   4   -252.8473492 -0.659547E-04  0.878E-03    0.98       1.1  T
   5   -252.8473506 -0.144485E-05  0.532E-03    0.98       1.8  T
   6   -252.8473540 -0.340198E-05  0.165E-03    0.98       5.9  T
   7   -252.8473542 -0.145437E-06  0.970E-04    0.98      10.0  T
   8   -252.8473542 -0.309883E-07  0.480E-04    0.98      20.2  T
     SCC iter.                  ...        0 min,  0.119 sec
     gradient                   ...        0 min,  0.021 sec
 * total energy  :  -249.2710853 Eh     change       -0.3162639E-03 Eh
   gradient norm :     0.0091311 Eh/α   predicted    -0.4258706E-03 (  34.66%)
   displ. norm   :     0.4490008 α      lambda       -0.7973294E-03
   maximum displ.:     0.1754202 α      in ANC's #13, #10, #11, ...

........................................................................
.............................. CYCLE   51 ..............................
........................................................................
   1   -252.8440535 -0.252844E+03  0.167E-01    0.98       0.0  T
   2   -252.8440831 -0.296507E-04  0.918E-02    0.99       1.0  T
   3   -252.8440323  0.508317E-04  0.255E-02    0.98       1.0  T
   4   -252.8440954 -0.631105E-04  0.103E-02    0.99       1.0  T
   5   -252.8440976 -0.222960E-05  0.533E-03    0.99       1.8  T
   6   -252.8441006 -0.297821E-05  0.197E-03    0.99       4.9  T
   7   -252.8441008 -0.221023E-06  0.119E-03    0.99       8.1  T
     SCC iter.                  ...        0 min,  0.105 sec
     gradient                   ...        0 min,  0.021 sec
 * total energy  :  -249.2713054 Eh     change       -0.2200279E-03 Eh
   gradient norm :     0.0114801 Eh/α   predicted    -0.4790394E-03 ( 117.72%)
   displ. norm   :     0.3698078 α      lambda       -0.9262871E-03
   maximum displ.:     0.1559663 α      in ANC's #13, #10, #11, ...

........................................................................
.............................. CYCLE   52 ..............................
........................................................................
   1   -252.8401964 -0.252840E+03  0.144E-01    0.99       0.0  T
   2   -252.8402176 -0.212606E-04  0.788E-02    0.99       1.0  T
   3   -252.8401753  0.423269E-04  0.207E-02    0.99       1.0  T
   4   -252.8402274 -0.520798E-04  0.811E-03    0.99       1.2  T
   5   -252.8402294 -0.204390E-05  0.400E-03    0.99       2.4  T
   6   -252.8402307 -0.124418E-05  0.163E-03    0.99       6.0  T
   7   -252.8402308 -0.141553E-06  0.995E-04    0.99       9.8  T
     SCC iter.                  ...        0 min,  0.106 sec
     gradient                   ...        0 min,  0.021 sec
 * total energy  :  -249.2718437 Eh     change       -0.5383694E-03 Eh
   gradient norm :     0.0105009 Eh/α   predicted    -0.5264831E-03 (  -2.21%)
   displ. norm   :     0.4298495 α      lambda       -0.6253460E-03
   maximum displ.:     0.1738607 α      in ANC's #13, #10, #11, ...

........................................................................
.............................. CYCLE   53 ..............................
........................................................................
   1   -252.8418048 -0.252842E+03  0.140E-01    0.99       0.0  T
   2   -252.8418243 -0.195489E-04  0.762E-02    0.98       1.0  T
   3   -252.8417206  0.103740E-03  0.289E-02    0.98       1.0  T
   4   -252.8418340 -0.113486E-03  0.980E-03    0.99       1.0  T
   5   -252.8418378 -0.376214E-05  0.548E-03    0.98       1.8  T
   6   -252.8418406 -0.282466E-05  0.203E-03    0.99       4.8  T
   7   -252.8418410 -0.344019E-06  0.103E-03    0.99       9.4  T
     SCC iter.                  ...        0 min,  0.106 sec
     gradient                   ...        0 min,  0.021 sec
 * total energy  :  -249.2721381 Eh     change       -0.2943333E-03 Eh
   gradient norm :     0.0096424 Eh/α   predicted    -0.3704488E-03 (  25.86%)
   displ. norm   :     0.5418187 α      lambda       -0.8080419E-03
   maximum displ.:     0.2271055 α      in ANC's #13, #10, #11, ...

........................................................................
.............................. CYCLE   54 ..............................
........................................................................
   1   -252.8496391 -0.252850E+03  0.167E-01    0.98       0.0  T
   2   -252.8496646 -0.254149E-04  0.905E-02    0.99       1.0  T
   3   -252.8495579  0.106694E-03  0.308E-02    0.98       1.0  T
   4   -252.8496737 -0.115874E-03  0.122E-02    0.99       1.0  T
   5   -252.8496788 -0.508171E-05  0.669E-03    0.98       1.5  T
   6   -252.8496836 -0.479018E-05  0.230E-03    0.98       4.2  T
   7   -252.8496840 -0.430176E-06  0.120E-03    0.98       8.1  T
   8   -252.8496841 -0.307201E-07  0.718E-04    0.98      13.5  T
     SCC iter.                  ...        0 min,  0.120 sec
     gradient                   ...        0 min,  0.021 sec
 * total energy  :  -249.2724840 Eh     change       -0.3458930E-03 Eh
   gradient norm :     0.0137670 Eh/α   predicted    -0.5226298E-03 (  51.10%)
   displ. norm   :     0.5460972 α      lambda       -0.7774394E-03
   maximum displ.:     0.2076065 α      in ANC's #10, #13, #11, ...

........................................................................
.............................. CYCLE   55 ..............................
........................................................................
   1   -252.8425379 -0.252843E+03  0.181E-01    0.99       0.0  T
   2   -252.8425904 -0.524558E-04  0.994E-02    0.99       1.0  T
   3   -252.8424437  0.146701E-03  0.368E-02    0.99       1.0  T
   4   -252.8426069 -0.163261E-03  0.147E-02    0.99       1.0  T
   5   -252.8426166 -0.968890E-05  0.830E-03    0.99       1.2  T
   6   -252.8426220 -0.535233E-05  0.360E-03    0.99       2.7  T
   7   -252.8426234 -0.145450E-05  0.155E-03    0.99       6.3  T
   8   -252.8426235 -0.108684E-06  0.889E-04    0.99      10.9  T
     SCC iter.                  ...        0 min,  0.120 sec
     gradient                   ...        0 min,  0.021 sec
 * total energy  :  -249.2728720 Eh     change       -0.3879950E-03 Eh
   gradient norm :     0.0137973 Eh/α   predicted    -0.5046466E-03 (  30.07%)
   displ. norm   :     0.4014595 α      lambda       -0.5482495E-03
   maximum displ.:     0.1613876 α      in ANC's #10, #13, #4, ...

........................................................................
.............................. CYCLE   56 ..............................
........................................................................
   1   -252.8453044 -0.252845E+03  0.117E-01    0.99       0.0  T
   2   -252.8453185 -0.141158E-04  0.631E-02    0.99       1.0  T
   3   -252.8452622  0.563014E-04  0.225E-02    0.99       1.0  T
   4   -252.8453231 -0.608594E-04  0.876E-03    0.99       1.1  T
   5   -252.8453268 -0.367902E-05  0.409E-03    0.99       2.4  T
   6   -252.8453281 -0.128895E-05  0.173E-03    0.99       5.6  T
   7   -252.8453284 -0.307016E-06  0.828E-04    0.99      11.7  T
     SCC iter.                  ...        0 min,  0.105 sec
     gradient                   ...        0 min,  0.021 sec
 * total energy  :  -249.2732201 Eh     change       -0.3481361E-03 Eh
   gradient norm :     0.0104470 Eh/α   predicted    -0.3183030E-03 (  -8.57%)
   displ. norm   :     0.5846313 α      lambda       -0.4826357E-03
   maximum displ.:     0.2295173 α      in ANC's #10, #13, #4, ...

........................................................................
.............................. CYCLE   57 ..............................
........................................................................
   1   -252.8456500 -0.252846E+03  0.164E-01    0.99       0.0  T
   2   -252.8456764 -0.263581E-04  0.880E-02    0.99       1.0  T
   3   -252.8455530  0.123410E-03  0.315E-02    0.99       1.0  T
   4   -252.8456852 -0.132188E-03  0.127E-02    0.99       1.0  T
   5   -252.8456924 -0.729009E-05  0.665E-03    0.99       1.5  T
   6   -252.8456965 -0.401398E-05  0.251E-03    0.99       3.9  T
   7   -252.8456971 -0.612627E-06  0.118E-03    0.99       8.2  T
   8   -252.8456971 -0.356905E-07  0.771E-04    0.99      12.6  T
     SCC iter.                  ...        0 min,  0.119 sec
     gradient                   ...        0 min,  0.021 sec
 * total energy  :  -249.2735415 Eh     change       -0.3213987E-03 Eh
   gradient norm :     0.0082504 Eh/α   predicted    -0.3237992E-03 (   0.75%)
   displ. norm   :     0.6111183 α      lambda       -0.4226278E-03
   maximum displ.:     0.2430637 α      in ANC's #10, #4, #11, ...

........................................................................
.............................. CYCLE   58 ..............................
........................................................................
   1   -252.8482644 -0.252848E+03  0.170E-01    0.99       0.0  T
   2   -252.8482892 -0.248326E-04  0.906E-02    0.99       1.0  T
   3   -252.8482702  0.190218E-04  0.218E-02    0.99       1.0  T
   4   -252.8482884 -0.182189E-04  0.135E-02    0.99       1.0  T
   5   -252.8482965 -0.809016E-05  0.498E-03    0.99       1.9  T
   6   -252.8482997 -0.315429E-05  0.188E-03    0.99       5.2  T
   7   -252.8482999 -0.273836E-06  0.115E-03    0.99       8.4  T
   8   -252.8483000 -0.406770E-07  0.698E-04    0.99      13.9  T
     SCC iter.                  ...        0 min,  0.119 sec
     gradient                   ...        0 min,  0.021 sec
 * total energy  :  -249.2738544 Eh     change       -0.3129274E-03 Eh
   gradient norm :     0.0062527 Eh/α   predicted    -0.2902348E-03 (  -7.25%)
   displ. norm   :     0.5876550 α      lambda       -0.3101412E-03
   maximum displ.:     0.2292034 α      in ANC's #10, #4, #11, ...

........................................................................
.............................. CYCLE   59 ..............................
........................................................................
   1   -252.8482119 -0.252848E+03  0.169E-01    0.99       0.0  T
   2   -252.8482361 -0.241711E-04  0.899E-02    0.99       1.0  T
   3   -252.8482250  0.110624E-04  0.194E-02    0.99       1.0  T
   4   -252.8482355 -0.104684E-04  0.127E-02    0.99       1.0  T
   5   -252.8482439 -0.840063E-05  0.391E-03    0.99       2.5  T
   6   -252.8482457 -0.182837E-05  0.160E-03    0.99       6.1  T
   7   -252.8482458 -0.141288E-06  0.101E-03    0.99       9.6  T
     SCC iter.                  ...        0 min,  0.105 sec
     gradient                   ...        0 min,  0.021 sec
 * total energy  :  -249.2740622 Eh     change       -0.2077660E-03 Eh
   gradient norm :     0.0084465 Eh/α   predicted    -0.2086267E-03 (   0.41%)
   displ. norm   :     0.5770493 α      lambda       -0.3238308E-03
   maximum displ.:     0.2240326 α      in ANC's #4, #10, #11, ...

........................................................................
.............................. CYCLE   60 ..............................
[...]
    25  16 S      2.279     0.066   138.390    19.799
    26   6 C      3.081    -0.001    27.963     8.669
    27   6 C      3.228    -0.012    27.505     8.518
    28   6 C      3.035     0.038    27.126     8.543
    29   6 C      2.946     0.028    27.381     8.582
    30   6 C      1.920     0.124    28.055     8.554
    31   7 N      0.911    -0.194    25.212     7.262
    32   6 C      1.923     0.124    28.046     8.553
    33   7 N      0.911    -0.205    25.467     7.299
    34   6 C      3.053    -0.041    28.959     8.825
    35   6 C      3.051     0.011    27.722     8.635
    36  16 S      2.389     0.132   135.775    19.612
    37   6 C      2.991     0.041    27.072     8.535
    38   6 C      3.133    -0.038    28.715     8.772
    39   6 C      2.824     0.225    23.275     7.905
    40   8 O      1.036    -0.357    20.749     6.111
    41   6 C      3.152    -0.014    28.059     8.663
    42   6 C      3.152    -0.013    28.058     8.663
    43   6 C      2.995    -0.026    28.641     8.779
    44  16 S      2.319     0.191   133.501    19.447
    45   6 C      2.995    -0.026    28.639     8.779
    46   6 C      3.359     0.500    16.768     6.431
    47   9 F      0.791    -0.181    11.045     3.926
    48   9 F      0.791    -0.182    11.055     3.928
    49   9 F      0.794    -0.201    11.245     3.961
    50   6 C      3.359     0.500    16.769     6.431
    51   9 F      0.791    -0.182    11.049     3.927
    52   9 F      0.794    -0.201    11.246     3.961
    53   9 F      0.791    -0.182    11.053     3.927
    54   6 C      2.824     0.225    23.277     7.906
    55   8 O      1.033    -0.357    20.757     6.113
    56   6 C      3.133    -0.038    28.724     8.774
    57   6 C      2.991     0.041    27.065     8.534
    58  16 S      2.379     0.036   139.574    19.884
    59   6 C      3.052     0.010    27.743     8.638
    60   6 C      3.052    -0.039    28.922     8.820
    61   6 C      3.231    -0.012    27.465     8.509
    62   6 C      3.083     0.001    27.908     8.660
    63  16 S      2.388     0.138   135.562    19.596
    64   6 C      3.086     0.022    27.411     8.582
    65   6 C      3.250    -0.011    27.247     8.450
    66   6 C      3.039     0.040    27.061     8.532
    67   6 C      2.947     0.026    27.415     8.588
    68   6 C      1.918     0.125    28.041     8.552
    69   7 N      0.911    -0.202    25.390     7.288
    70   6 C      1.920     0.129    27.939     8.536
    71   7 N      0.911    -0.217    25.727     7.336
    72   6 C      3.051    -0.031    28.730     8.791
    73   6 C      2.997     0.023    27.473     8.598
    74  16 S      2.266     0.085   137.646    19.746
    75   6 C      2.938    -0.014    28.365     8.735
    76   6 C      3.007    -0.027    28.670     8.783
    77   6 C      3.013     0.034    27.231     8.560
    78   6 C      2.947     0.010    27.796     8.647
    79   6 C      1.934     0.124    28.054     8.554
    80   7 N      0.911    -0.219    25.784     7.344
    81   6 C      1.934     0.125    28.024     8.549
    82   7 N      0.911    -0.238    26.226     7.407
    83   6 C      3.041     0.006    27.837     8.654
    84   6 C      3.036    -0.021    28.496     8.756
    85   6 C      2.871     0.228    23.227     7.900
    86   8 O      0.856    -0.353    20.757     6.108
    87   6 C      2.909    -0.017    28.438     8.744
    88   6 C      3.147     0.009    27.540     8.585
    89   6 C      3.008     0.031    27.300     8.571
    90   6 C      2.933    -0.032    28.803     8.802
    91  16 S      2.396     0.027   139.946    19.910
    92   6 C      2.933     0.090    25.990     8.361
    93   6 C      3.101    -0.056    29.256     8.863
    94  35 Br     1.141    -0.105   187.926    22.103
    95   1 H      0.926     0.074     2.041     2.234
    96   1 H      0.926     0.067     2.114     2.273
    97   1 H      0.926     0.072     2.061     2.245
    98   1 H      0.925     0.072     2.067     2.248
    99   1 H      0.926     0.113     1.672     2.022
   100   1 H      0.926     0.075     2.035     2.231
   101   1 H      0.926     0.075     2.033     2.230
   102   1 H      0.926     0.061     2.186     2.312
   103   1 H      0.925     0.086     1.915     2.164
   104   1 H      0.926     0.072     2.067     2.248
   105   1 H      0.926     0.070     2.088     2.260
   106   1 H      0.926     0.072     2.068     2.249

 Mol. C6AA /au·bohr⁶  :     313899.531875
 Mol. C8AA /au·bohr⁸  :    9831484.214469
 Mol. α(0) /au        :        898.565023


Wiberg/Mayer (AO) data.
largest (>0.10) Wiberg bond orders for each atom
          total WBO             WBO to atom ...
     1  C   3.972        C    2 1.492    C   19 1.124    C    7 1.097
     2  C   3.933        C    1 1.492    C    5 1.095    C    3 1.093
     3  C   3.946        N    4 2.768    C    2 1.093
     4  N   2.973        C    3 2.768
     5  C   3.946        N    6 2.757    C    2 1.095
     6  N   2.966        C    5 2.757
     7  C   3.976        C   12 1.422    C    8 1.244    C    1 1.097
     8  C   3.978        C    9 1.468    C    7 1.244    C   17 1.026
     9  C   3.971        C    8 1.468    C   10 1.318    H   95 0.961
    10  C   3.974        C    9 1.318    C   11 1.262    C   15 1.206
    11  C   3.950        C   12 1.382    C   10 1.262    S   13 1.122
    12  C   3.972        C    7 1.422    C   11 1.382    H   96 0.957
    13  S   2.563        C   14 1.134    C   11 1.122
    14  C   3.901        C   15 1.607    S   13 1.134    Br  16 1.032
    15  C   3.974        C   14 1.607    C   10 1.206    H   97 0.959
    16  Br  1.173        C   14 1.032
    17  C   3.922        O   18 1.763    C   19 1.026    C    8 1.026
    18  O   2.059        C   17 1.763
    19  C   3.949        C   20 1.548    C    1 1.124    C   17 1.026
    20  C   3.954        C   19 1.548    C   21 1.255    H   98 0.941
    21  C   3.903        C   22 1.407    C   20 1.255    S   25 1.090
    22  C   3.946        C   21 1.407    C   23 1.368    H   99 0.934
    23  C   3.949        C   22 1.368    C   24 1.277    C   28 1.098
    24  C   3.926        C   23 1.277    S   25 1.234    C   26 1.200
    25  S   2.643        C   24 1.234    C   21 1.090
    26  C   3.942        C   27 1.269    S   36 1.239    C   24 1.200
    27  C   3.951        C   34 1.393    C   26 1.269    C   28 1.090
    28  C   3.982        C   29 1.523    C   23 1.098    C   27 1.090
    29  C   3.987        C   28 1.523    C   32 1.090    C   30 1.090
    30  C   3.950        N   31 2.793    C   29 1.090
    31  N   2.985        C   30 2.793
    32  C   3.948        N   33 2.788    C   29 1.090
    33  N   2.981        C   32 2.788
    34  C   3.964        C   27 1.393    C   35 1.380    H  100 0.949
    35  C   3.914        C   34 1.380    C   37 1.246    S   36 1.117
    36  S   2.840        C   26 1.239    C   35 1.117    O   40 0.162
    37  C   3.939        C   38 1.366    C   35 1.246    S   58 1.124
    38  C   3.956        C   37 1.366    C   56 1.193    C   39 1.118
    39  C   3.930        O   40 1.657    C   38 1.118    C   41 1.027
    40  O   2.117        C   39 1.657    S   36 0.162
    41  C   3.974        C   45 1.497    C   42 1.221    C   39 1.027
    42  C   3.974        C   43 1.497    C   41 1.221    C   54 1.027
    43  C   3.933        C   42 1.497    S   44 1.226    C   50 0.964
    44  S   2.774        C   45 1.226    C   43 1.226
    45  C   3.933        C   41 1.497    S   44 1.226    C   46 0.964
    46  C   3.853        C   45 0.964    F   47 0.960    F   48 0.959    F   49 0.944
    47  F   1.097        C   46 0.960
    48  F   1.096        C   46 0.959
    49  F   1.077        C   46 0.944
    50  C   3.853        C   43 0.964    F   51 0.960    F   53 0.959    F   52 0.944
    51  F   1.096        C   50 0.960
    52  F   1.076        C   50 0.944
    53  F   1.096        C   50 0.959
    54  C   3.930        O   55 1.657    C   56 1.118    C   42 1.027
    55  O   2.116        C   54 1.657    S   63 0.161
    56  C   3.956        C   57 1.365    C   38 1.193    C   54 1.118
    57  C   3.939        C   56 1.365    C   59 1.247    S   58 1.124
    58  S   2.603        C   37 1.124    C   57 1.124
    59  C   3.916        C   60 1.381    C   57 1.247    S   63 1.114
    60  C   3.965        C   61 1.393    C   59 1.381    H  101 0.950
    61  C   3.954        C   60 1.393    C   62 1.268    C   66 1.092
    62  C   3.943        C   61 1.268    S   63 1.246    C   64 1.195
    63  S   2.843        C   62 1.246    C   59 1.114    O   55 0.161
    64  C   3.932        C   65 1.292    S   74 1.224    C   62 1.195
    65  C   3.951        C   72 1.356    C   64 1.292    C   66 1.098
    66  C   3.982        C   67 1.516    C   65 1.098    C   61 1.092
    67  C   3.987        C   66 1.516    C   70 1.093    C   68 1.092
    68  C   3.949        N   69 2.790    C   67 1.092
    69  N   2.982        C   68 2.790
    70  C   3.947        N   71 2.785    C   67 1.093
    71  N   2.978        C   70 2.785
    72  C   3.974        C   73 1.418    C   65 1.356    H  102 0.955
    73  C   3.906        C   72 1.418    C   75 1.227    S   74 1.109
    74  S   2.645        C   64 1.224    C   73 1.109
    75  C   3.954        C   76 1.575    C   73 1.227    H  103 0.948
    76  C   3.951        C   75 1.575    C   77 1.126    C   85 0.999
    77  C   3.974        C   78 1.490    C   76 1.126    C   83 1.088
    78  C   3.960        C   77 1.490    C   81 1.101    C   79 1.092
    79  C   3.948        N   80 2.776    C   78 1.092
    80  N   2.976        C   79 2.776
    81  C   3.945        N   82 2.762    C   78 1.101
    82  N   2.976        C   81 2.762
    83  C   3.978        C   90 1.428    C   84 1.241    C   77 1.088
    84  C   3.977        C   87 1.468    C   83 1.241    C   85 1.024
    85  C   3.925        O   86 1.787    C   84 1.024    C   76 0.999
    86  O   2.057        C   85 1.787
    87  C   3.972        C   84 1.468    C   88 1.318    H  104 0.962
    88  C   3.975        C   87 1.318    C   89 1.262    C   93 1.206
    89  C   3.951        C   90 1.378    C   88 1.262    S   91 1.125
    90  C   3.973        C   83 1.428    C   89 1.378    H  105 0.959
    91  S   2.567        C   92 1.134    C   89 1.125
    92  C   3.902        C   93 1.607    S   91 1.134    Br  94 1.033
    93  C   3.974        C   92 1.607    C   88 1.206    H  106 0.959
    94  Br  1.174        C   92 1.033
    95  H   0.994        C    9 0.961
    96  H   0.995        C   12 0.957
    97  H   0.994        C   15 0.959
    98  H   0.994        C   20 0.941
    99  H   0.987        C   22 0.934
   100  H   0.994        C   34 0.949
   101  H   0.994        C   60 0.950
   102  H   0.996        C   72 0.955
   103  H   0.990        C   75 0.948
   104  H   0.994        C   87 0.962
   105  H   0.994        C   90 0.959
   106  H   0.995        C   93 0.959

molecular dipole:
                 x           y           z       tot (Debye)
 q only:       -1.657       0.620       0.730
   full:       -2.463       0.055       0.676       6.495
molecular quadrupole (traceless):
                xx          xy          yy          xz          yz          zz
 q only:       70.411     -57.700     -43.183     -45.141      44.863     -27.229
  q+dip:      122.363     -55.461     -86.783     -64.617      55.549     -35.580
   full:      120.996     -56.243     -95.673     -77.694      61.240     -25.323

           -------------------------------------------------
          |                Geometry Summary                 |
           -------------------------------------------------

      molecular mass/u    :     1511.1504000
   center of mass at/Å    :      -10.1311726       8.4697827       1.9375958
  moments of inertia/u·Å² :        0.3091378E+05   0.1524572E+06   0.1811175E+06
rotational constants/cm⁻¹ :        0.5453112E-03   0.1105729E-03   0.9307567E-04

 * 94 selected distances

     #   Z        #   Z                                     value/Å
     1   6 C      2   6 C                                 1.3707169
     3   6 C      4   7 N                                 1.1477013
     5   6 C      6   7 N                                 1.1485856
     7   6 C      8   6 C                                 1.4155421
     8   6 C      9   6 C                                 1.3740190
     9   6 C     10   6 C                                 1.3982220
    10   6 C     11   6 C                                 1.4163801
     7   6 C     12   6 C                                 1.3833432
    11   6 C     12   6 C                                 1.3890580
    11   6 C     13  16 S                                 1.7370057
    13  16 S     14   6 C                                 1.7439178
    10   6 C     15   6 C                                 1.4212839
    14   6 C     15   6 C                                 1.3545999
    14   6 C     16  35 Br                                1.8746532 (max)
    17   6 C     18   8 O                                 1.2117237
    19   6 C     20   6 C                                 1.3664758
    20   6 C     21   6 C                                 1.4113697
    21   6 C     22   6 C                                 1.3895713
    22   6 C     23   6 C                                 1.3885418
    23   6 C     24   6 C                                 1.4140497
    24   6 C     25  16 S                                 1.6971508
    24   6 C     26   6 C                                 1.4162657
    26   6 C     27   6 C                                 1.4125640
    28   6 C     29   6 C                                 1.3626637
    30   6 C     31   7 N                                 1.1458878
    32   6 C     33   7 N                                 1.1463560
    27   6 C     34   6 C                                 1.3826523
    34   6 C     35   6 C                                 1.3974729
    26   6 C     36  16 S                                 1.7048247
    35   6 C     36  16 S                                 1.7606183
    35   6 C     37   6 C                                 1.4139537
    37   6 C     38   6 C                                 1.3960012
    39   6 C     40   8 O                                 1.2244533
    41   6 C     42   6 C                                 1.4189886
    42   6 C     43   6 C                                 1.3758739
    43   6 C     44  16 S                                 1.7169641
    41   6 C     45   6 C                                 1.3759224
    44  16 S     45   6 C                                 1.7168113
    46   6 C     47   9 F                                 1.3352563
    46   6 C     48   9 F                                 1.3358422
    46   6 C     49   9 F                                 1.3447957
    50   6 C     51   9 F                                 1.3353306
    50   6 C     52   9 F                                 1.3448817
    50   6 C     53   9 F                                 1.3358557
    54   6 C     55   8 O                                 1.2244948
    38   6 C     56   6 C                                 1.4321446
    56   6 C     57   6 C                                 1.3960591
    37   6 C     58  16 S                                 1.7462578
    57   6 C     58  16 S                                 1.7461262
    57   6 C     59   6 C                                 1.4135182
    59   6 C     60   6 C                                 1.3973279
    60   6 C     61   6 C                                 1.3823943
    61   6 C     62   6 C                                 1.4133824
    59   6 C     63  16 S                                 1.7615921
    62   6 C     63  16 S                                 1.7032798
    62   6 C     64   6 C                                 1.4181887
    64   6 C     65   6 C                                 1.4100628
    65   6 C     66   6 C                                 1.4515600
    66   6 C     67   6 C                                 1.3635295
    68   6 C     69   7 N                                 1.1460748
    70   6 C     71   7 N                                 1.1466332
    65   6 C     72   6 C                                 1.3886393
    72   6 C     73   6 C                                 1.3873580
    64   6 C     74  16 S                                 1.7007367
    73   6 C     74  16 S                                 1.7582936
    73   6 C     75   6 C                                 1.4142883
    75   6 C     76   6 C                                 1.3600207
    77   6 C     78   6 C                                 1.3703493
    79   6 C     80   7 N                                 1.1471170
    81   6 C     82   7 N                                 1.1480959
    83   6 C     84   6 C                                 1.4183624
    85   6 C     86   8 O                                 1.2082041
    84   6 C     87   6 C                                 1.3741759
    87   6 C     88   6 C                                 1.3987963
    88   6 C     89   6 C                                 1.4166701
    83   6 C     90   6 C                                 1.3815663
    89   6 C     90   6 C                                 1.3894995
    89   6 C     91  16 S                                 1.7360424
    91  16 S     92   6 C                                 1.7437768
    88   6 C     93   6 C                                 1.4214161
    92   6 C     93   6 C                                 1.3546410
    92   6 C     94  35 Br                                1.8745215
     9   6 C     95   1 H                                 1.0786766
    12   6 C     96   1 H                                 1.0769085
    15   6 C     97   1 H                                 1.0746500
    20   6 C     98   1 H                                 1.0838937
    22   6 C     99   1 H                                 1.0751673
    34   6 C    100   1 H                                 1.0758930
    60   6 C    101   1 H                                 1.0760863
    72   6 C    102   1 H                                 1.0746633
    75   6 C    103   1 H                                 1.0859200
    87   6 C    104   1 H                                 1.0786243
    90   6 C    105   1 H                                 1.0774538
    93   6 C    106   1 H                                 1.0746452 (min)

 * 7 distinct bonds (by element types)

   Z      Z             #   av. dist./Å        max./Å        min./Å
   1 H    6 C          12     1.0777152     1.0859200     1.0746452
   6 C    6 C          47     1.3957337     1.4515600     1.3545999
   6 C    7 N           8     1.1470565     1.1485856     1.1458878
   6 C    8 O           4     1.2172190     1.2244948     1.2082041
   6 C    9 F           6     1.3386604     1.3448817     1.3352563
   6 C   16 S          15     1.7315599     1.7615921     1.6971508
   6 C   35 Br          2     1.8745874     1.8746532     1.8745215


optimized geometry written to: xtbopt.xyz


           -------------------------------------------------
          | TOTAL ENERGY             -249.276526386368 Eh   |
          | GRADIENT NORM               0.000538259777 Eh/α |
          | HOMO-LUMO GAP               0.989693807083 eV   |
           -------------------------------------------------

------------------------------------------------------------------------
 * finished run on 2021/05/15 at 02:17:00.387     
------------------------------------------------------------------------
 total:
 * wall-time:     0 d,  0 h,  0 min, 24.563 sec
 *  cpu-time:     0 d,  0 h,  4 min, 54.636 sec
 * ratio c/w:    11.995 speedup
 SCF:
 * wall-time:     0 d,  0 h,  0 min,  0.323 sec
 *  cpu-time:     0 d,  0 h,  0 min,  3.863 sec
 * ratio c/w:    11.953 speedup
 ANC optimizer:
 * wall-time:     0 d,  0 h,  0 min, 24.176 sec
 *  cpu-time:     0 d,  0 h,  4 min, 50.104 sec
 * ratio c/w:    12.000 speedup

