      -----------------------------------------------------------      
     |                   =====================                   |     
     |                           x T B                           |     
     |                   =====================                   |     
     |                         S. Grimme                         |     
     |          Mulliken Center for Theoretical Chemistry        |     
     |                    University of Bonn                     |     
     |                Version 6.2 RC2 (SAW190805)                |     
      -----------------------------------------------------------      

   This program is distributed in the hope that it will be useful,
   but WITHOUT ANY WARRANTY; without even the implied warranty of
   MERCHANTABILITY or FITNESS FOR A PARTICULAR PURPOSE.
   
   FOR NON-COMMERCIAL, ACADEMIA USE ONLY.
   
   Cite this work as:
   * S. Grimme, C. Bannwarth, P. Shushkov, J. Chem. Theory Comput., 2017,
     13, 1989-2009. DOI: 10.1021/acs.jctc.7b00118
   * C. Bannwarth, S. Ehlert and S. Grimme., J. Chem. Theory Comput., 2019,
     15, 1652-1671. DOI: 10.1021/acs.jctc.8b01176
   * P. Pracht, E. Caldeweyher, S. Ehlert, S. Grimme, ChemRxiv, 2019, preprint.
     DOI: 10.26434/chemrxiv.8326202.v1
   
   for DFT-D4:
   * E. Caldeweyher, C. Bannwarth and S. Grimme, J. Chem. Phys., 2017,
     147, 034112. DOI: 10.1063/1.4993215
   * E. Caldeweyher, S. Ehlert, A. Hansen, H. Neugebauer, S. Spicher,
     C. Bannwarth and S. Grimme, J. Chem. Phys., 2019, 150, 154122.
     DOI: 10.1063/1.5090222
   
   for sTDA-xTB:
   * S. Grimme and C. Bannwarth, J. Chem. Phys., 2016, 145, 054103.
     DOI: 10.1063/1.4959605
   
   in the mass-spec context:
   * V. Asgeirsson, C. Bauer and S. Grimme, Chem. Sci., 2017, 8, 4879.
     DOI: 10.1039/c7sc00601b
   
   for metadynamics refer to:
   * S. Grimme, J. Chem. Theory Comput., 2019, 155, 2847-2862
     DOI: 10.1021/acs.jctc.9b00143
   
   with help from (in alphabetical order)
   C. Bannwarth, F. Bohle, G. Brandenburg, E. Caldeweyher, M. Checinski,
   S. Dohm, S. Ehlert, S. Ehrlich, F. März, H. Neugebauer, J. Pisarek,
   P. Pracht, P. Shushkov, and S. Spicher.
   
 * started run on 2021/05/14 at 11:47:58.887     

           -------------------------------------------------
          |                Calculation Setup                |
           -------------------------------------------------

          program call               : /ihome/ghutchison/geoffh/xtb/xtb /ihome/ghutchison/blp62/GA/running_GA/generations/52/69_48_6_48_69.xyz -opt
          hostname                   : smp-n168
          coordinate file            : /ihome/ghutchison/blp62/GA/running_GA/generations/52/69_48_6_48_69.xyz
          omp threads                :                    12
          number of atoms            :                    99
          number of electrons        :                   398
          charge                     :                     0
          spin                       :                   0.0
          first test random number   :      0.26095854452880


########################################################################
# WARNING! Please study the warnings concerning your input carefully
#  - XTBPATH is not set, using XTBHOME instead
#  - the use of '-opt' is discouraged, please use '--opt' next time
########################################################################

           ------------------------------------------------- 
          |                 G F N 2 - x T B                 |
          | Geometry, Frequencies, Noncovalent interactions |
          |            JCTC 2019 parametrisation            |
           ------------------------------------------------- 
             KAB for C  - Si     :                1.0500
             KAB for H  - Pd     :                0.9500
             k(s)              :                1.8500
             k(p)              :                2.2300
             k(d)              :                2.2300
             k(f)              :                2.0000
             kEN (H0ij)        :               -2.0000
             D4 a1             :                0.5200
             D4 a2             :                5.0000
             D4 s6             :                1.0000
             D4 s8             :                2.7000
             D4 s9             :                5.0000
             alphaj            :                2.0000

  Z AO/shell   Hii/eV     exponent
  1     Wed Apr 25 08:07:45 CEST 2018   EN: 2.200 GM2: 0.406  GM3: 0.0800  RAES: 1.40
     1s    -10.707211    1.230000
  6     Wed Apr 25 08:07:45 CEST 2018   EN: 2.550 GM2: 0.538  GM3: 0.1500  RAES: 3.00
     2s    -13.970922    2.096432
     2p    -10.063292    1.800000
  7     Wed Apr 25 08:07:45 CEST 2018   EN: 3.040 GM2: 0.461  GM3:-0.0640  RAES: 1.90
     2s    -16.686243    2.339881
     2p    -12.523956    2.014332
  8     Wed Apr 25 08:07:45 CEST 2018   EN: 3.440 GM2: 0.452  GM3:-0.0517  RAES: 1.80
     2s    -20.229985    2.439742
     2p    -15.503117    2.137023
 16     Tue Apr 24 11:44:34 CEST 2018   EN: 2.580 GM2: 0.340  GM3:-0.0502  RAES: 3.10
     3s    -20.029654    1.981333
     3p    -11.377694    2.025643
     3d     -0.420282    1.702555
 35     Tue Apr 24 12:21:41 CEST 2018   EN: 2.960 GM2: 0.261  GM3: 0.1300  RAES: 4.00
     4s    -23.583718    2.077587
     4p    -12.588824    2.263120
     4d      0.047980    1.845038

           ------------------------------------------------- 
          |        Self-Consistent Charge Iterations        |
           ------------------------------------------------- 

          ...................................................
          :                      SETUP                      :
          :.................................................:
          :  # basis functions                 426          :
          :  # atomic orbitals                 415          :
          :  # shells                          197          :
          :  # electrons                       398          :
          :  max. iterations                   250          :
          :  Hamiltonian                  GFN2-xTB          :
          :  restarted?                      false          :
          :  GBSA solvation                  false          :
          :  PC potential                    false          :
          :  electronic temp.          300.0000000     K    :
          :  accuracy                    1.0000000          :
          :  -> integral cutoff          0.2500000E+02      :
          :  -> integral neglect         0.1000000E-07      :
          :  -> SCF convergence          0.1000000E-05 Eh   :
          :  -> wf. convergence          0.1000000E-03 e    :
          :  Broyden damping             0.4000000          :
          ...................................................

 iter      E             dE          RMSdq      gap      omega  full diag
   1   -220.4787360 -0.220479E+03  0.636E+00    1.41       0.0  T
   2   -220.4459350  0.328010E-01  0.450E+00    1.19       1.0  T
   3   -220.4123711  0.335638E-01  0.286E+00    1.08       1.0  T
   4   -220.9387040 -0.526333E+00  0.640E-01    1.16       1.0  T
   5   -220.9587623 -0.200583E-01  0.300E-01    1.14       1.0  T
   6   -220.9610018 -0.223957E-02  0.170E-01    1.13       1.0  T
   7   -220.9626400 -0.163821E-02  0.862E-02    1.15       1.0  T
   8   -220.9627830 -0.142925E-03  0.622E-02    1.14       1.0  T
   9   -220.9628789 -0.958855E-04  0.445E-02    1.14       1.0  T
  10   -220.9628999 -0.210887E-04  0.310E-02    1.14       1.0  T
  11   -220.9629293 -0.293805E-04  0.173E-02    1.14       1.0  T
  12   -220.9629358 -0.651709E-05  0.103E-02    1.14       1.0  T
  13   -220.9629401 -0.423277E-05  0.477E-03    1.14       2.1  T
  14   -220.9629410 -0.914832E-06  0.221E-03    1.14       4.5  T
  15   -220.9629411 -0.926384E-07  0.125E-03    1.14       8.1  T
  16   -220.9629411 -0.312247E-07  0.789E-04    1.14      12.7  T
  17   -220.9629411 -0.241482E-07  0.390E-04    1.14      25.8  T

   *** convergence criteria satisfied after 17 iterations ***

         #    Occupation            Energy/Eh            Energy/eV
      -------------------------------------------------------------
         1        2.0000           -0.8655116             -23.5518
       ...           ...                  ...                  ...
       193        2.0000           -0.4218725             -11.4797
       194        2.0000           -0.4191792             -11.4064
       195        2.0000           -0.4180936             -11.3769
       196        2.0000           -0.4151942             -11.2980
       197        2.0000           -0.4141070             -11.2684
       198        2.0000           -0.4010278             -10.9125
       199        2.0000           -0.3991163             -10.8605 (HOMO)
       200                         -0.3571623              -9.7189 (LUMO)
       201                         -0.3563744              -9.6974
       202                         -0.3441470              -9.3647
       203                         -0.3421896              -9.3115
       204                         -0.3282162              -8.9312
       ...                                ...                  ...
       415                          1.0863903              29.5622
      -------------------------------------------------------------
                  HL-Gap            0.0419540 Eh            1.1416 eV
             Fermi-level           -0.3782512 Eh          -10.2927 eV

 SCC (total)                   0 d,  0 h,  0 min,  1.110 sec
 SCC setup                      ...        0 min,  0.003 sec (  0.292%)
 Dispersion                     ...        0 min,  0.005 sec (  0.476%)
 integral evaluation            ...        0 min,  0.047 sec (  4.253%)
 zeroth order Hamiltonian       ...        0 min,  0.002 sec (  0.136%)
 iterations                     ...        0 min,  1.013 sec ( 91.255%)
 molecular gradient             ...        0 min,  0.035 sec (  3.188%)
 printout                       ...        0 min,  0.004 sec (  0.386%)

         :::::::::::::::::::::::::::::::::::::::::::::::::::::
         ::                     SUMMARY                     ::
         :::::::::::::::::::::::::::::::::::::::::::::::::::::
         :: total energy            -217.388336020790 Eh    ::
         :: gradient norm              0.229350220842 Eh/a0 ::
         :: HOMO-LUMO gap              1.141626508604 eV    ::
         ::.................................................::
         :: SCC energy              -220.962941132701 Eh    ::
         :: -> isotropic ES            0.137485125100 Eh    ::
         :: -> anisotropic ES          0.024101825852 Eh    ::
         :: -> anisotropic XC          0.210195134098 Eh    ::
         :: -> dispersion             -0.186778774605 Eh    ::
         :: repulsion energy           3.576800875097 Eh    ::
         :: add. restraining           0.000000000000 Eh    ::
         :::::::::::::::::::::::::::::::::::::::::::::::::::::

      ----------------------------------------------------------- 
     |                   =====================                   |
     |                        A N C O P T                        |
     |                   =====================                   |
     |               Approximate Normal Coordinate               |
     |                Rational Function Optimizer                |
      ----------------------------------------------------------- 

          ...................................................
          :                      SETUP                      :
          :.................................................:
          :   optimization level            normal          :
          :   max. optcycles                   297          :
          :   ANC micro-cycles                  20          :
          :   degrees of freedom               291          :
          :.................................................:
          :   RF solver                   davidson          :
          :   input Hessian                  false          :
          :   write xtbopt.log                true          :
          :   linear?                        false          :
          :   energy convergence         0.5000000E-05 Eh   :
          :   grad. convergence          0.1000000E-02 Eh/α :
          :   maximium RF displ.         2.0000000          :
          :   Hlow (freq-cutoff)         0.5000000E-02      :
          :   Hmax (freq-cutoff)         5.0000000          :
          :   S6 in model hess.         20.0000000          :
          ...................................................

generating ANC from model Hessian ...
Using Lindh-Hessian (1995)
 Shifting diagonal of input Hessian by   5.064079629716787E-003
 Lowest  eigenvalues of input Hessian
    0.005000    0.005039    0.005055   -0.000000   -0.000000    0.000000
    0.000000    0.000000    0.000000    0.005075    0.005089    0.005137
    0.005152    0.005163    0.005220    0.005263    0.005371    0.005461
 Highest eigenvalues
    2.540873    2.549435    2.561236    2.577576    2.592667    2.593065
 

........................................................................
.............................. CYCLE    1 ..............................
........................................................................
   1   -220.9629411 -0.220963E+03  0.249E-04    1.14       0.0  T
   2   -220.9629411  0.293511E-09  0.219E-04    1.14      45.8  T
   3   -220.9629411 -0.200893E-08  0.158E-04    1.14      63.8  T
     SCC iter.                  ...        0 min,  0.137 sec
     gradient                   ...        0 min,  0.035 sec
 * total energy  :  -217.3883360 Eh     change        0.2235507E-07 Eh
   gradient norm :     0.2293494 Eh/α   predicted     0.0000000E+00 (-100.00%)
   displ. norm   :     0.4098823 α      lambda       -0.5812318E-01
   maximum displ.:     0.1005287 α      in ANC's #57, #66, #202, ...

........................................................................
.............................. CYCLE    2 ..............................
........................................................................
   1   -221.0788826 -0.221079E+03  0.336E-01    1.07       0.0  T
   2   -221.0790932 -0.210558E-03  0.217E-01    1.08       1.0  T
   3   -221.0787978  0.295393E-03  0.140E-01    1.07       1.0  T
   4   -221.0803291 -0.153136E-02  0.402E-02    1.07       1.0  T
   5   -221.0804243 -0.951765E-04  0.209E-02    1.07       1.0  T
   6   -221.0804400 -0.156532E-04  0.941E-03    1.07       1.1  T
   7   -221.0804462 -0.619931E-05  0.271E-03    1.07       3.7  T
   8   -221.0804464 -0.262969E-06  0.162E-03    1.07       6.2  T
   9   -221.0804466 -0.130647E-06  0.813E-04    1.07      12.4  T
     SCC iter.                  ...        0 min,  0.441 sec
     gradient                   ...        0 min,  0.034 sec
 * total energy  :  -217.4270608 Eh     change       -0.3872482E-01 Eh
   gradient norm :     0.0887590 Eh/α   predicted    -0.3394416E-01 ( -12.35%)
   displ. norm   :     0.4729638 α      lambda       -0.1940798E-01
   maximum displ.:     0.1489028 α      in ANC's #57, #66, #46, ...

........................................................................
.............................. CYCLE    3 ..............................
........................................................................
   1   -221.0842220 -0.221084E+03  0.340E-01    1.01       0.0  T
   2   -221.0844372 -0.215193E-03  0.191E-01    1.01       1.0  T
   3   -221.0834001  0.103715E-02  0.136E-01    1.01       1.0  T
   4   -221.0850454 -0.164536E-02  0.318E-02    1.01       1.0  T
   5   -221.0850809 -0.354991E-04  0.189E-02    1.01       1.0  T
   6   -221.0850964 -0.155026E-04  0.790E-03    1.01       1.3  T
   7   -221.0851008 -0.440291E-05  0.258E-03    1.01       3.9  T
   8   -221.0851011 -0.280711E-06  0.148E-03    1.01       6.8  T
     SCC iter.                  ...        0 min,  0.380 sec
     gradient                   ...        0 min,  0.029 sec
 * total energy  :  -217.4390038 Eh     change       -0.1194300E-01 Eh
   gradient norm :     0.0309450 Eh/α   predicted    -0.1187493E-01 (  -0.57%)
   displ. norm   :     0.6288166 α      lambda       -0.9568947E-02
   maximum displ.:     0.1756748 α      in ANC's #41, #28, #57, ...

........................................................................
.............................. CYCLE    4 ..............................
........................................................................
   1   -221.0583016 -0.221058E+03  0.419E-01    0.95       0.0  T
   2   -221.0585345 -0.232954E-03  0.227E-01    0.97       1.0  T
   3   -221.0569969  0.153764E-02  0.130E-01    0.95       1.0  T
   4   -221.0587749 -0.177799E-02  0.285E-02    0.96       1.0  T
   5   -221.0588008 -0.258663E-04  0.174E-02    0.96       1.0  T
   6   -221.0588155 -0.147071E-04  0.683E-03    0.96       1.5  T
   7   -221.0588196 -0.409774E-05  0.290E-03    0.96       3.5  T
   8   -221.0588198 -0.234072E-06  0.196E-03    0.96       5.1  T
     SCC iter.                  ...        0 min,  0.547 sec
     gradient                   ...        0 min,  0.030 sec
 * total energy  :  -217.4385749 Eh     change        0.4289249E-03 Eh
   gradient norm :     0.0742041 Eh/α   predicted    -0.6676322E-02 (*******%)
   displ. norm   :     0.4177967 α      lambda       -0.1358770E-01
   maximum displ.:     0.1398994 α      in ANC's #18, #19, #17, ...

........................................................................
.............................. CYCLE    5 ..............................
........................................................................
   1   -221.0953914 -0.221095E+03  0.306E-01    0.98       0.0  T
   2   -221.0955289 -0.137424E-03  0.169E-01    0.96       1.0  T
   3   -221.0948834  0.645444E-03  0.877E-02    0.98       1.0  T
   4   -221.0956386 -0.755210E-03  0.168E-02    0.97       1.0  T
   5   -221.0956564 -0.178127E-04  0.806E-03    0.97       1.2  T
   6   -221.0956586 -0.214741E-05  0.393E-03    0.97       2.6  T
   7   -221.0956597 -0.114456E-05  0.196E-03    0.97       5.1  T
     SCC iter.                  ...        0 min,  0.338 sec
     gradient                   ...        0 min,  0.031 sec
 * total energy  :  -217.4449837 Eh     change       -0.6408803E-02 Eh
   gradient norm :     0.0324217 Eh/α   predicted    -0.7979754E-02 (  24.51%)
   displ. norm   :     0.4433388 α      lambda       -0.3815516E-02
   maximum displ.:     0.1555954 α      in ANC's #38, #19, #43, ...

........................................................................
.............................. CYCLE    6 ..............................
........................................................................
   1   -221.0864718 -0.221086E+03  0.288E-01    0.98       0.0  T
   2   -221.0865544 -0.825751E-04  0.159E-01    0.98       1.0  T
   3   -221.0858855  0.668892E-03  0.799E-02    0.98       1.0  T
   4   -221.0866431 -0.757628E-03  0.126E-02    0.98       1.0  T
   5   -221.0866494 -0.623701E-05  0.772E-03    0.98       1.3  T
   6   -221.0866524 -0.306001E-05  0.322E-03    0.98       3.1  T
   7   -221.0866530 -0.567288E-06  0.186E-03    0.98       5.4  T
     SCC iter.                  ...        0 min,  0.307 sec
     gradient                   ...        0 min,  0.028 sec
 * total energy  :  -217.4453120 Eh     change       -0.3283061E-03 Eh
   gradient norm :     0.0292416 Eh/α   predicted    -0.2282733E-02 ( 595.31%)
   displ. norm   :     0.4134887 α      lambda       -0.4812108E-02
   maximum displ.:     0.1635479 α      in ANC's #28, #34, #37, ...

........................................................................
.............................. CYCLE    7 ..............................
........................................................................
   1   -221.0882485 -0.221088E+03  0.232E-01    0.99       0.0  T
   2   -221.0883088 -0.603174E-04  0.127E-01    0.99       1.0  T
   3   -221.0879123  0.396457E-03  0.626E-02    0.99       1.0  T
   4   -221.0883611 -0.448706E-03  0.122E-02    0.98       1.0  T
   5   -221.0883679 -0.679875E-05  0.715E-03    0.99       1.4  T
   6   -221.0883706 -0.275825E-05  0.277E-03    0.98       3.6  T
   7   -221.0883710 -0.347768E-06  0.172E-03    0.98       5.8  T
     SCC iter.                  ...        0 min,  0.325 sec
     gradient                   ...        0 min,  0.026 sec
 * total energy  :  -217.4474718 Eh     change       -0.2159777E-02 Eh
   gradient norm :     0.0365019 Eh/α   predicted    -0.2817427E-02 (  30.45%)
   displ. norm   :     0.3687496 α      lambda       -0.2710643E-02
   maximum displ.:     0.1293493 α      in ANC's #28, #38, #31, ...

........................................................................
.............................. CYCLE    8 ..............................
........................................................................
   1   -221.0892025 -0.221089E+03  0.221E-01    0.97       0.0  T
   2   -221.0892685 -0.659664E-04  0.121E-01    0.98       1.0  T
   3   -221.0890902  0.178233E-03  0.447E-02    0.97       1.0  T
   4   -221.0893062 -0.215964E-03  0.103E-02    0.98       1.0  T
   5   -221.0893097 -0.346754E-05  0.631E-03    0.98       1.6  T
   6   -221.0893117 -0.201094E-05  0.286E-03    0.98       3.5  T
   7   -221.0893123 -0.603072E-06  0.141E-03    0.98       7.1  T
     SCC iter.                  ...        0 min,  0.315 sec
     gradient                   ...        0 min,  0.033 sec
 * total energy  :  -217.4474415 Eh     change        0.3026741E-04 Eh
   gradient norm :     0.0262789 Eh/α   predicted    -0.1539615E-02 (*******%)
   displ. norm   :     0.3158459 α      lambda       -0.3260742E-02
   maximum displ.:     0.1119217 α      in ANC's #22, #28, #19, ...

........................................................................
.............................. CYCLE    9 ..............................
........................................................................
   1   -221.0951120 -0.221095E+03  0.225E-01    0.97       0.0  T
   2   -221.0951732 -0.612233E-04  0.124E-01    0.97       1.0  T
   3   -221.0951033  0.699347E-04  0.311E-02    0.97       1.0  T
   4   -221.0952036 -0.100345E-03  0.696E-03    0.97       1.4  T
   5   -221.0952043 -0.679699E-06  0.476E-03    0.97       2.1  T
   6   -221.0952058 -0.151045E-05  0.175E-03    0.97       5.7  T
     SCC iter.                  ...        0 min,  0.498 sec
     gradient                   ...        0 min,  0.035 sec
 * total energy  :  -217.4483064 Eh     change       -0.8648453E-03 Eh
   gradient norm :     0.0394340 Eh/α   predicted    -0.1793019E-02 ( 107.32%)
   displ. norm   :     0.2818438 α      lambda       -0.2663654E-02
   maximum displ.:     0.0748707 α      in ANC's #19, #38, #48, ...

........................................................................
.............................. CYCLE   10 ..............................
........................................................................
   1   -221.0881238 -0.221088E+03  0.212E-01    0.99       0.0  T
   2   -221.0881847 -0.608993E-04  0.118E-01    0.99       1.0  T
   3   -221.0879831  0.201575E-03  0.471E-02    0.99       1.0  T
   4   -221.0882186 -0.235434E-03  0.875E-03    0.99       1.1  T
   5   -221.0882214 -0.281854E-05  0.583E-03    0.99       1.7  T
   6   -221.0882241 -0.275203E-05  0.222E-03    0.99       4.5  T
     SCC iter.                  ...        0 min,  0.290 sec
     gradient                   ...        0 min,  0.033 sec
 * total energy  :  -217.4484257 Eh     change       -0.1193856E-03 Eh
   gradient norm :     0.0393636 Eh/α   predicted    -0.1437623E-02 (1104.18%)
   displ. norm   :     0.2707102 α      lambda       -0.3062432E-02
   maximum displ.:     0.0914402 α      in ANC's #37, #26, #42, ...

........................................................................
.............................. CYCLE   11 ..............................
........................................................................
   1   -221.0920704 -0.221092E+03  0.211E-01    0.99       0.0  T
   2   -221.0921379 -0.675851E-04  0.116E-01    0.99       1.0  T
   3   -221.0919727  0.165229E-03  0.421E-02    0.99       1.0  T
   4   -221.0921704 -0.197724E-03  0.819E-03    0.99       1.2  T
   5   -221.0921753 -0.484498E-05  0.441E-03    0.99       2.3  T
   6   -221.0921765 -0.124452E-05  0.214E-03    0.99       4.7  T
     SCC iter.                  ...        0 min,  0.268 sec
     gradient                   ...        0 min,  0.025 sec
 * total energy  :  -217.4488453 Eh     change       -0.4195526E-03 Eh
   gradient norm :     0.0433141 Eh/α   predicted    -0.1643440E-02 ( 291.71%)
   displ. norm   :     0.2192059 α      lambda       -0.2182424E-02
   maximum displ.:     0.0651023 α      in ANC's #41, #11, #28, ...

........................................................................
.............................. CYCLE   12 ..............................
........................................................................
   1   -221.0950685 -0.221095E+03  0.141E-01    0.98       0.0  T
   2   -221.0950992 -0.306881E-04  0.788E-02    0.98       1.0  T
   3   -221.0949886  0.110546E-03  0.352E-02    0.98       1.0  T
   4   -221.0951197 -0.131037E-03  0.608E-03    0.98       1.7  T
   5   -221.0951208 -0.110294E-05  0.387E-03    0.98       2.6  T
   6   -221.0951216 -0.840134E-06  0.177E-03    0.98       5.7  T
     SCC iter.                  ...        0 min,  0.307 sec
     gradient                   ...        0 min,  0.032 sec
 * total energy  :  -217.4494261 Eh     change       -0.5807937E-03 Eh
   gradient norm :     0.0203399 Eh/α   predicted    -0.1143648E-02 (  96.91%)
   displ. norm   :     0.2983591 α      lambda       -0.1673884E-02
   maximum displ.:     0.0980486 α      in ANC's #2, #14, #19, ...

........................................................................
.............................. CYCLE   13 ..............................
........................................................................
   1   -221.0857188 -0.221086E+03  0.220E-01    0.97       0.0  T
   2   -221.0857804 -0.616008E-04  0.121E-01    0.97       1.0  T
   3   -221.0856825  0.978678E-04  0.360E-02    0.97       1.0  T
   4   -221.0858121 -0.129603E-03  0.656E-03    0.97       1.5  T
   5   -221.0858130 -0.848454E-06  0.469E-03    0.97       2.1  T
   6   -221.0858145 -0.150504E-05  0.168E-03    0.97       6.0  T
     SCC iter.                  ...        0 min,  0.254 sec
     gradient                   ...        0 min,  0.032 sec
 * total energy  :  -217.4487232 Eh     change        0.7028624E-03 Eh
   gradient norm :     0.0455983 Eh/α   predicted    -0.9114459E-03 (-229.68%)
   displ. norm   :     0.1932663 α      lambda       -0.3142101E-02
   maximum displ.:     0.0624833 α      in ANC's #2, #11, #24, ...

........................................................................
.............................. CYCLE   14 ..............................
........................................................................
   1   -221.0936837 -0.221094E+03  0.152E-01    0.98       0.0  T
   2   -221.0937171 -0.334396E-04  0.843E-02    0.98       1.0  T
   3   -221.0936120  0.105174E-03  0.342E-02    0.98       1.0  T
   4   -221.0937375 -0.125506E-03  0.565E-03    0.98       1.8  T
   5   -221.0937381 -0.665046E-06  0.390E-03    0.98       2.6  T
   6   -221.0937392 -0.107104E-05  0.153E-03    0.98       6.6  T
     SCC iter.                  ...        0 min,  0.292 sec
     gradient                   ...        0 min,  0.028 sec
 * total energy  :  -217.4501405 Eh     change       -0.1417278E-02 Eh
   gradient norm :     0.0110264 Eh/α   predicted    -0.1629738E-02 (  14.99%)
   displ. norm   :     0.2521883 α      lambda       -0.7759726E-03
   maximum displ.:     0.0743860 α      in ANC's #14, #11, #6, ...

........................................................................
.............................. CYCLE   15 ..............................
........................................................................
   1   -221.0898800 -0.221090E+03  0.152E-01    0.98       0.0  T
   2   -221.0899025 -0.225230E-04  0.838E-02    0.98       1.0  T
   3   -221.0897764  0.126109E-03  0.373E-02    0.98       1.0  T
   4   -221.0899236 -0.147221E-03  0.565E-03    0.98       1.8  T
   5   -221.0899236  0.466673E-07  0.423E-03    0.98       2.4  T
   6   -221.0899250 -0.145427E-05  0.145E-03    0.98       6.9  T
   7   -221.0899251 -0.118731E-06  0.827E-04    0.98      12.1  T
     SCC iter.                  ...        0 min,  0.406 sec
     gradient                   ...        0 min,  0.025 sec
 * total energy  :  -217.4500625 Eh     change        0.7797247E-04 Eh
   gradient norm :     0.0167330 Eh/α   predicted    -0.4126613E-03 (-629.24%)
   displ. norm   :     0.2241506 α      lambda       -0.1004089E-02
   maximum displ.:     0.0935443 α      in ANC's #11, #6, #19, ...

........................................................................
.............................. CYCLE   16 ..............................
........................................................................
   1   -221.0928575 -0.221093E+03  0.118E-01    0.98       0.0  T
   2   -221.0928731 -0.156723E-04  0.648E-02    0.98       1.0  T
   3   -221.0928188  0.543982E-04  0.265E-02    0.98       1.0  T
   4   -221.0928845 -0.657859E-04  0.457E-03    0.98       2.2  T
   5   -221.0928848 -0.298707E-06  0.314E-03    0.98       3.2  T
   6   -221.0928855 -0.646720E-06  0.114E-03    0.98       8.8  T
   7   -221.0928856 -0.733063E-07  0.659E-04    0.98      15.2  T
     SCC iter.                  ...        0 min,  0.291 sec
     gradient                   ...        0 min,  0.024 sec
 * total energy  :  -217.4506631 Eh     change       -0.6006000E-03 Eh
   gradient norm :     0.0072122 Eh/α   predicted    -0.5272704E-03 ( -12.21%)
   displ. norm   :     0.3396302 α      lambda       -0.5668630E-03
   maximum displ.:     0.1466429 α      in ANC's #11, #6, #14, ...

........................................................................
.............................. CYCLE   17 ..............................
........................................................................
   1   -221.0914651 -0.221091E+03  0.128E-01    0.98       0.0  T
   2   -221.0914832 -0.181157E-04  0.690E-02    0.97       1.0  T
   3   -221.0914396  0.436054E-04  0.242E-02    0.98       1.0  T
   4   -221.0914919 -0.523586E-04  0.736E-03    0.98       1.4  T
   5   -221.0914926 -0.639645E-06  0.491E-03    0.98       2.0  T
   6   -221.0914945 -0.192391E-05  0.152E-03    0.98       6.6  T
   7   -221.0914946 -0.118471E-06  0.926E-04    0.98      10.9  T
     SCC iter.                  ...        0 min,  0.269 sec
     gradient                   ...        0 min,  0.024 sec
 * total energy  :  -217.4509511 Eh     change       -0.2879389E-03 Eh
   gradient norm :     0.0113010 Eh/α   predicted    -0.3161291E-03 (   9.79%)
   displ. norm   :     0.4648248 α      lambda       -0.6631438E-03
   maximum displ.:     0.2140777 α      in ANC's #11, #6, #14, ...

........................................................................
.............................. CYCLE   18 ..............................
........................................................................
   1   -221.0919552 -0.221092E+03  0.164E-01    0.97       0.0  T
   2   -221.0919810 -0.258961E-04  0.865E-02    0.97       1.0  T
   3   -221.0919081  0.729368E-04  0.299E-02    0.97       1.0  T
   4   -221.0919918 -0.836941E-04  0.108E-02    0.97       1.0  T
   5   -221.0919939 -0.213089E-05  0.650E-03    0.97       1.5  T
   6   -221.0919972 -0.330783E-05  0.195E-03    0.97       5.1  T
   7   -221.0919974 -0.137572E-06  0.134E-03    0.97       7.5  T
   8   -221.0919974 -0.372244E-07  0.895E-04    0.97      11.2  T
     SCC iter.                  ...        0 min,  0.352 sec
     gradient                   ...        0 min,  0.025 sec
 * total energy  :  -217.4512356 Eh     change       -0.2845209E-03 Eh
   gradient norm :     0.0137655 Eh/α   predicted    -0.4032131E-03 (  41.72%)
   displ. norm   :     0.4816683 α      lambda       -0.9124106E-03
   maximum displ.:     0.2132177 α      in ANC's #11, #6, #10, ...

........................................................................
.............................. CYCLE   19 ..............................
........................................................................
   1   -221.0931245 -0.221093E+03  0.162E-01    0.97       0.0  T
   2   -221.0931492 -0.246416E-04  0.852E-02    0.97       1.0  T
   3   -221.0930730  0.761294E-04  0.311E-02    0.97       1.0  T
   4   -221.0931609 -0.878306E-04  0.108E-02    0.97       1.0  T
   5   -221.0931615 -0.666613E-06  0.683E-03    0.97       1.5  T
   6   -221.0931656 -0.410285E-05  0.214E-03    0.97       4.7  T
   7   -221.0931658 -0.183532E-06  0.147E-03    0.97       6.8  T
   8   -221.0931659 -0.545978E-07  0.937E-04    0.97      10.7  T
     SCC iter.                  ...        0 min,  0.322 sec
     gradient                   ...        0 min,  0.025 sec
 * total energy  :  -217.4517929 Eh     change       -0.5573250E-03 Eh
   gradient norm :     0.0085444 Eh/α   predicted    -0.5620469E-03 (   0.85%)
   displ. norm   :     0.5268766 α      lambda       -0.6040361E-03
   maximum displ.:     0.2535782 α      in ANC's #11, #6, #10, ...

........................................................................
.............................. CYCLE   20 ..............................
........................................................................
   1   -221.0927659 -0.221093E+03  0.160E-01    0.97       0.0  T
   2   -221.0927898 -0.238853E-04  0.832E-02    0.97       1.0  T
   3   -221.0927492  0.405390E-04  0.256E-02    0.97       1.0  T
   4   -221.0927953 -0.460851E-04  0.116E-02    0.96       1.0  T
   5   -221.0927966 -0.126119E-05  0.747E-03    0.97       1.3  T
   6   -221.0928018 -0.528058E-05  0.198E-03    0.97       5.1  T
   7   -221.0928019 -0.882838E-07  0.144E-03    0.97       7.0  T
   8   -221.0928020 -0.325424E-07  0.957E-04    0.97      10.5  T
     SCC iter.                  ...        0 min,  0.541 sec
     gradient                   ...        0 min,  0.033 sec
 * total energy  :  -217.4521924 Eh     change       -0.3995172E-03 Eh
   gradient norm :     0.0154106 Eh/α   predicted    -0.3858627E-03 (  -3.42%)
   displ. norm   :     0.6099928 α      lambda       -0.6564887E-03
   maximum displ.:     0.3051533 α      in ANC's #11, #6, #10, ...
 * RMSD in coord.:     0.4964544 α      energy gain  -0.6385641E-01 Eh

generating ANC from model Hessian ...
Using Lindh-Hessian (1995)
 Shifting diagonal of input Hessian by   5.037754746072502E-003
 Lowest  eigenvalues of input Hessian
    0.005000   -0.000000   -0.000000   -0.000000    0.000000    0.000000
    0.000000    0.005047    0.005054    0.005094    0.005101    0.005127
    0.005192    0.005232    0.005293    0.005355    0.005464    0.005606
 Highest eigenvalues
    2.624971    2.638988    2.643684    2.653605    2.657200    2.665791
 

........................................................................
.............................. CYCLE   21 ..............................
........................................................................
   1   -221.0869361 -0.221087E+03  0.198E-01    0.97       0.0  T
   2   -221.0869689 -0.328389E-04  0.104E-01    0.96       1.0  T
   3   -221.0868494  0.119539E-03  0.364E-02    0.97       1.0  T
   4   -221.0869832 -0.133844E-03  0.134E-02    0.96       1.0  T
   5   -221.0869869 -0.361082E-05  0.756E-03    0.97       1.3  T
   6   -221.0869914 -0.457892E-05  0.262E-03    0.96       3.8  T
   7   -221.0869917 -0.226000E-06  0.187E-03    0.97       5.4  T
   8   -221.0869917 -0.496231E-07  0.116E-03    0.96       8.6  T
   9   -221.0869917 -0.352099E-07  0.634E-04    0.96      15.8  T
  10   -221.0869917 -0.309581E-08  0.419E-04    0.96      24.0  T
     SCC iter.                  ...        0 min,  0.393 sec
     gradient                   ...        0 min,  0.026 sec
 * total energy  :  -217.4525560 Eh     change       -0.3635443E-03 Eh
   gradient norm :     0.0152680 Eh/α   predicted     0.0000000E+00 (-100.00%)
   displ. norm   :     0.2346871 α      lambda       -0.6766381E-03
   maximum displ.:     0.1074466 α      in ANC's #9, #24, #4, ...

........................................................................
.............................. CYCLE   22 ..............................
........................................................................
   1   -221.0889330 -0.221089E+03  0.160E-01    0.97       0.0  T
   2   -221.0889631 -0.300583E-04  0.871E-02    0.97       1.0  T
   3   -221.0889153  0.478111E-04  0.253E-02    0.97       1.0  T
   4   -221.0889788 -0.635406E-04  0.581E-03    0.97       1.7  T
   5   -221.0889788  0.283935E-07  0.400E-03    0.97       2.5  T
   6   -221.0889805 -0.171275E-05  0.129E-03    0.97       7.8  T
   7   -221.0889806 -0.840329E-07  0.781E-04    0.97      12.9  T
     SCC iter.                  ...        0 min,  0.313 sec
     gradient                   ...        0 min,  0.024 sec
 * total energy  :  -217.4521423 Eh     change        0.4137057E-03 Eh
   gradient norm :     0.0179779 Eh/α   predicted    -0.3569532E-03 (-186.28%)
   displ. norm   :     0.1856864 α      lambda       -0.1624894E-02
   maximum displ.:     0.0849013 α      in ANC's #14, #24, #23, ...

........................................................................
.............................. CYCLE   23 ..............................
........................................................................
   1   -221.1002651 -0.221100E+03  0.141E-01    0.97       0.0  T
   2   -221.1002907 -0.255984E-04  0.772E-02    0.97       1.0  T
   3   -221.1002703  0.204268E-04  0.180E-02    0.97       1.0  T
   4   -221.1003032 -0.329289E-04  0.410E-03    0.97       2.5  T
   5   -221.1003036 -0.388947E-06  0.236E-03    0.97       4.3  T
   6   -221.1003039 -0.351694E-06  0.105E-03    0.97       9.5  T
     SCC iter.                  ...        0 min,  0.260 sec
     gradient                   ...        0 min,  0.025 sec
 * total energy  :  -217.4528821 Eh     change       -0.7397976E-03 Eh
   gradient norm :     0.0156775 Eh/α   predicted    -0.8404615E-03 (  13.61%)
   displ. norm   :     0.1602518 α      lambda       -0.5452540E-03
   maximum displ.:     0.0660624 α      in ANC's #55, #9, #6, ...

........................................................................
.............................. CYCLE   24 ..............................
........................................................................
   1   -221.0945645 -0.221095E+03  0.115E-01    0.97       0.0  T
   2   -221.0945801 -0.155646E-04  0.630E-02    0.97       1.0  T
   3   -221.0945442  0.359026E-04  0.209E-02    0.97       1.0  T
   4   -221.0945896 -0.454276E-04  0.363E-03    0.97       2.8  T
   5   -221.0945898 -0.254678E-06  0.237E-03    0.97       4.2  T
   6   -221.0945902 -0.362718E-06  0.855E-04    0.97      11.7  T
     SCC iter.                  ...        0 min,  0.220 sec
     gradient                   ...        0 min,  0.025 sec
 * total energy  :  -217.4528085 Eh     change        0.7356471E-04 Eh
   gradient norm :     0.0082951 Eh/α   predicted    -0.2796287E-03 (-480.11%)
   displ. norm   :     0.1502288 α      lambda       -0.6965081E-03
   maximum displ.:     0.0749245 α      in ANC's #9, #5, #25, ...

........................................................................
.............................. CYCLE   25 ..............................
........................................................................
   1   -221.0931455 -0.221093E+03  0.106E-01    0.97       0.0  T
   2   -221.0931590 -0.135214E-04  0.577E-02    0.97       1.0  T
   3   -221.0931542  0.483163E-05  0.113E-02    0.97       1.0  T
   4   -221.0931654 -0.112152E-04  0.283E-03    0.97       3.5  T
   5   -221.0931653  0.802109E-07  0.187E-03    0.97       5.4  T
   6   -221.0931657 -0.323217E-06  0.583E-04    0.97      17.2  T
     SCC iter.                  ...        0 min,  0.416 sec
     gradient                   ...        0 min,  0.028 sec
 * total energy  :  -217.4530529 Eh     change       -0.2443599E-03 Eh
   gradient norm :     0.0105643 Eh/α   predicted    -0.3561141E-03 (  45.73%)
   displ. norm   :     0.2634382 α      lambda       -0.9075887E-03
   maximum displ.:     0.0965030 α      in ANC's #23, #55, #9, ...

........................................................................
.............................. CYCLE   26 ..............................
........................................................................
   1   -221.0912121 -0.221091E+03  0.180E-01    0.97       0.0  T
   2   -221.0912502 -0.380967E-04  0.985E-02    0.97       1.0  T
   3   -221.0911624  0.877161E-04  0.330E-02    0.97       1.0  T
   4   -221.0912735 -0.111110E-03  0.596E-03    0.97       1.7  T
   5   -221.0912733  0.203681E-06  0.437E-03    0.97       2.3  T
   6   -221.0912752 -0.185523E-05  0.131E-03    0.97       7.7  T
   7   -221.0912753 -0.986361E-07  0.770E-04    0.97      13.1  T
     SCC iter.                  ...        0 min,  0.283 sec
     gradient                   ...        0 min,  0.025 sec
 * total energy  :  -217.4526274 Eh     change        0.4254954E-03 Eh
   gradient norm :     0.0148809 Eh/α   predicted    -0.4852888E-03 (-214.05%)
   displ. norm   :     0.1451054 α      lambda       -0.1454605E-02
   maximum displ.:     0.0788273 α      in ANC's #55, #9, #14, ...

........................................................................
.............................. CYCLE   27 ..............................
........................................................................
   1   -221.0985969 -0.221099E+03  0.121E-01    0.97       0.0  T
   2   -221.0986153 -0.183201E-04  0.666E-02    0.97       1.0  T
   3   -221.0985946  0.206630E-04  0.177E-02    0.97       1.0  T
   4   -221.0986252 -0.306386E-04  0.277E-03    0.97       3.6  T
   5   -221.0986253 -0.700362E-07  0.199E-03    0.97       5.1  T
   6   -221.0986256 -0.274257E-06  0.732E-04    0.97      13.7  T
     SCC iter.                  ...        0 min,  0.287 sec
     gradient                   ...        0 min,  0.024 sec
 * total energy  :  -217.4533594 Eh     change       -0.7320460E-03 Eh
   gradient norm :     0.0072480 Eh/α   predicted    -0.7426159E-03 (   1.44%)
   displ. norm   :     0.2047486 α      lambda       -0.4021837E-03
   maximum displ.:     0.0968374 α      in ANC's #9, #6, #4, ...

........................................................................
.............................. CYCLE   28 ..............................
........................................................................
   1   -221.0933072 -0.221093E+03  0.124E-01    0.97       0.0  T
   2   -221.0933241 -0.168187E-04  0.678E-02    0.97       1.0  T
   3   -221.0932761  0.479894E-04  0.245E-02    0.97       1.0  T
   4   -221.0933353 -0.592256E-04  0.434E-03    0.97       2.3  T
   5   -221.0933352  0.637945E-07  0.316E-03    0.97       3.2  T
   6   -221.0933361 -0.829769E-06  0.101E-03    0.97       9.9  T
   7   -221.0933361 -0.623909E-07  0.585E-04    0.97      17.2  T
     SCC iter.                  ...        0 min,  0.318 sec
     gradient                   ...        0 min,  0.029 sec
 * total energy  :  -217.4532495 Eh     change        0.1098874E-03 Eh
   gradient norm :     0.0110386 Eh/α   predicted    -0.2095229E-03 (-290.67%)
   displ. norm   :     0.1742248 α      lambda       -0.6578792E-03
   maximum displ.:     0.0900450 α      in ANC's #9, #4, #6, ...

........................................................................
.............................. CYCLE   29 ..............................
........................................................................
   1   -221.0933196 -0.221093E+03  0.942E-02    0.97       0.0  T
   2   -221.0933291 -0.948417E-05  0.509E-02    0.97       1.0  T
   3   -221.0933228  0.621748E-05  0.110E-02    0.97       1.0  T
   4   -221.0933329 -0.100634E-04  0.406E-03    0.97       2.5  T
   5   -221.0933330 -0.101454E-06  0.255E-03    0.97       3.9  T
   6   -221.0933337 -0.673471E-06  0.831E-04    0.97      12.1  T
     SCC iter.                  ...        0 min,  0.243 sec
     gradient                   ...        0 min,  0.032 sec
 * total energy  :  -217.4535933 Eh     change       -0.3437754E-03 Eh
   gradient norm :     0.0071615 Eh/α   predicted    -0.3389235E-03 (  -1.41%)
   displ. norm   :     0.2646194 α      lambda       -0.4416879E-03
   maximum displ.:     0.1345526 α      in ANC's #9, #4, #6, ...

........................................................................
.............................. CYCLE   30 ..............................
........................................................................
   1   -221.0945273 -0.221095E+03  0.134E-01    0.97       0.0  T
   2   -221.0945450 -0.176942E-04  0.723E-02    0.97       1.0  T
   3   -221.0944704  0.745521E-04  0.301E-02    0.97       1.0  T
   4   -221.0945590 -0.886354E-04  0.603E-03    0.97       1.7  T
   5   -221.0945586  0.404500E-06  0.408E-03    0.97       2.5  T
   6   -221.0945602 -0.154248E-05  0.134E-03    0.97       7.5  T
   7   -221.0945603 -0.832365E-07  0.854E-04    0.97      11.8  T
     SCC iter.                  ...        0 min,  0.298 sec
     gradient                   ...        0 min,  0.159 sec
 * total energy  :  -217.4536066 Eh     change       -0.1331163E-04 Eh
   gradient norm :     0.0096918 Eh/α   predicted    -0.2363081E-03 (1675.20%)
   displ. norm   :     0.2240639 α      lambda       -0.5061021E-03
   maximum displ.:     0.1204621 α      in ANC's #9, #6, #4, ...

........................................................................
.............................. CYCLE   31 ..............................
........................................................................
   1   -221.0963588 -0.221096E+03  0.104E-01    0.97       0.0  T
   2   -221.0963693 -0.105602E-04  0.557E-02    0.97       1.0  T
   3   -221.0963619  0.740322E-05  0.120E-02    0.97       1.0  T
   4   -221.0963733 -0.113781E-04  0.494E-03    0.97       2.0  T
   5   -221.0963738 -0.510978E-06  0.251E-03    0.97       4.0  T
   6   -221.0963744 -0.566413E-06  0.945E-04    0.97      10.6  T
     SCC iter.                  ...        0 min,  0.260 sec
     gradient                   ...        0 min,  0.024 sec
 * total energy  :  -217.4539045 Eh     change       -0.2978822E-03 Eh
   gradient norm :     0.0056674 Eh/α   predicted    -0.2657559E-03 ( -10.78%)
   displ. norm   :     0.3807042 α      lambda       -0.5161031E-03
   maximum displ.:     0.2100213 α      in ANC's #9, #4, #6, ...

........................................................................
.............................. CYCLE   32 ..............................
........................................................................
   1   -221.0947108 -0.221095E+03  0.146E-01    0.97       0.0  T
   2   -221.0947308 -0.199532E-04  0.777E-02    0.97       1.0  T
   3   -221.0946685  0.623204E-04  0.284E-02    0.97       1.0  T
   4   -221.0947426 -0.741396E-04  0.833E-03    0.97       1.2  T
   5   -221.0947424  0.193819E-06  0.527E-03    0.97       1.9  T
   6   -221.0947450 -0.259698E-05  0.164E-03    0.97       6.1  T
   7   -221.0947451 -0.842415E-07  0.117E-03    0.97       8.6  T
     SCC iter.                  ...        0 min,  0.254 sec
     gradient                   ...        0 min,  0.030 sec
 * total energy  :  -217.4540293 Eh     change       -0.1248340E-03 Eh
   gradient norm :     0.0086459 Eh/α   predicted    -0.2954528E-03 ( 136.68%)
   displ. norm   :     0.3254843 α      lambda       -0.4656852E-03
   maximum displ.:     0.1830481 α      in ANC's #9, #4, #6, ...

........................................................................
.............................. CYCLE   33 ..............................
........................................................................
   1   -221.0925106 -0.221093E+03  0.113E-01    0.97       0.0  T
   2   -221.0925228 -0.122358E-04  0.596E-02    0.97       1.0  T
   3   -221.0925125  0.103153E-04  0.145E-02    0.97       1.0  T
   4   -221.0925263 -0.138191E-04  0.689E-03    0.97       1.5  T
   5   -221.0925275 -0.116108E-05  0.322E-03    0.97       3.1  T
   6   -221.0925284 -0.943905E-06  0.128E-03    0.97       7.9  T
   7   -221.0925285 -0.309992E-07  0.971E-04    0.97      10.4  T
     SCC iter.                  ...        0 min,  0.257 sec
     gradient                   ...        0 min,  0.024 sec
 * total energy  :  -217.4543608 Eh     change       -0.3314684E-03 Eh
   gradient norm :     0.0079266 Eh/α   predicted    -0.2575141E-03 ( -22.31%)
   displ. norm   :     0.5096437 α      lambda       -0.5327485E-03
   maximum displ.:     0.2847664 α      in ANC's #9, #4, #6, ...

........................................................................
.............................. CYCLE   34 ..............................
........................................................................
   1   -221.0934018 -0.221093E+03  0.167E-01    0.97       0.0  T
   2   -221.0934270 -0.252195E-04  0.870E-02    0.97       1.0  T
   3   -221.0933762  0.508502E-04  0.281E-02    0.97       1.0  T
   4   -221.0934383 -0.621782E-04  0.104E-02    0.97       1.0  T
   5   -221.0934389 -0.518387E-06  0.559E-03    0.97       1.8  T
   6   -221.0934417 -0.286498E-05  0.197E-03    0.97       5.1  T
   7   -221.0934418 -0.720220E-07  0.145E-03    0.97       6.9  T
     SCC iter.                  ...        0 min,  0.332 sec
     gradient                   ...        0 min,  0.024 sec
 * total energy  :  -217.4546930 Eh     change       -0.3322429E-03 Eh
   gradient norm :     0.0066211 Eh/α   predicted    -0.3355617E-03 (   1.00%)
   displ. norm   :     0.5953677 α      lambda       -0.4466536E-03
   maximum displ.:     0.3362980 α      in ANC's #9, #4, #6, ...

........................................................................
.............................. CYCLE   35 ..............................
........................................................................
   1   -221.0933243 -0.221093E+03  0.172E-01    0.97       0.0  T
   2   -221.0933487 -0.244565E-04  0.888E-02    0.97       1.0  T
   3   -221.0933407  0.809008E-05  0.185E-02    0.97       1.0  T
   4   -221.0933482 -0.753618E-05  0.123E-02    0.97       1.0  T
   5   -221.0933549 -0.669621E-05  0.531E-03    0.97       1.9  T
   6   -221.0933575 -0.262934E-05  0.204E-03    0.97       4.9  T
   7   -221.0933576 -0.503371E-07  0.153E-03    0.97       6.6  T
     SCC iter.                  ...        0 min,  0.289 sec
     gradient                   ...        0 min,  0.024 sec
 * total energy  :  -217.4550977 Eh     change       -0.4046480E-03 Eh
   gradient norm :     0.0060854 Eh/α   predicted    -0.3024885E-03 ( -25.25%)
   displ. norm   :     0.7389225 α      lambda       -0.6142565E-03
   maximum displ.:     0.4109537 α      in ANC's #9, #4, #6, ...

........................................................................
.............................. CYCLE   36 ..............................
........................................................................
   1   -221.0920140 -0.221092E+03  0.205E-01    0.97       0.0  T
   2   -221.0920472 -0.332033E-04  0.107E-01    0.97       1.0  T
   3   -221.0920225  0.247475E-04  0.245E-02    0.97       1.0  T
   4   -221.0920466 -0.241628E-04  0.153E-02    0.97       1.0  T
   5   -221.0920565 -0.986129E-05  0.703E-03    0.97       1.4  T
   6   -221.0920607 -0.425518E-05  0.253E-03    0.97       4.0  T
   7   -221.0920609 -0.118885E-06  0.187E-03    0.97       5.4  T
   8   -221.0920609 -0.605340E-07  0.117E-03    0.97       8.6  T
     SCC iter.                  ...        0 min,  0.551 sec
     gradient                   ...        0 min,  0.024 sec
 * total energy  :  -217.4556283 Eh     change       -0.5305874E-03 Eh
   gradient norm :     0.0060887 Eh/α   predicted    -0.4748255E-03 ( -10.51%)
   displ. norm   :     0.8086974 α      lambda       -0.6213504E-03
   maximum displ.:     0.4432769 α      in ANC's #9, #4, #6, ...

........................................................................
.............................. CYCLE   37 ..............................
........................................................................
   1   -221.0935160 -0.221094E+03  0.224E-01    0.97       0.0  T
   2   -221.0935542 -0.381807E-04  0.117E-01    0.97       1.0  T
   3   -221.0935091  0.450859E-04  0.293E-02    0.97       1.0  T
   4   -221.0935554 -0.463022E-04  0.168E-02    0.97       1.0  T
   5   -221.0935667 -0.112536E-04  0.719E-03    0.97       1.4  T
   6   -221.0935714 -0.474306E-05  0.263E-03    0.97       3.8  T
   7   -221.0935715 -0.571043E-07  0.202E-03    0.97       5.0  T
   8   -221.0935716 -0.114347E-06  0.118E-03    0.97       8.5  T
     SCC iter.                  ...        0 min,  0.361 sec
     gradient                   ...        0 min,  0.030 sec
 * total energy  :  -217.4561360 Eh     change       -0.5076831E-03 Eh
   gradient norm :     0.0079075 Eh/α   predicted    -0.5138607E-03 (   1.22%)
   displ. norm   :     0.8076705 α      lambda       -0.5817870E-03
   maximum displ.:     0.4418152 α      in ANC's #9, #4, #6, ...

........................................................................
.............................. CYCLE   38 ..............................
........................................................................
   1   -221.0904611 -0.221090E+03  0.225E-01    0.97       0.0  T
   2   -221.0904998 -0.386903E-04  0.117E-01    0.97       1.0  T
   3   -221.0904547  0.451256E-04  0.293E-02    0.97       1.0  T
   4   -221.0904995 -0.448184E-04  0.171E-02    0.97       1.0  T
   5   -221.0905122 -0.127368E-04  0.743E-03    0.97       1.4  T
   6   -221.0905170 -0.480362E-05  0.265E-03    0.97       3.8  T
   7   -221.0905171 -0.569308E-07  0.203E-03    0.97       4.9  T
   8   -221.0905172 -0.107858E-06  0.123E-03    0.97       8.2  T
     SCC iter.                  ...        0 min,  0.372 sec
     gradient                   ...        0 min,  0.030 sec
 * total energy  :  -217.4566310 Eh     change       -0.4950302E-03 Eh
   gradient norm :     0.0070736 Eh/α   predicted    -0.4806557E-03 (  -2.90%)
   displ. norm   :     0.7674165 α      lambda       -0.5487297E-03
   maximum displ.:     0.4119243 α      in ANC's #9, #4, #6, ...

........................................................................
.............................. CYCLE   39 ..............................
........................................................................
   1   -221.0910262 -0.221091E+03  0.209E-01    0.97       0.0  T
   2   -221.0910590 -0.328038E-04  0.110E-01    0.97       1.0  T
   3   -221.0910068  0.522321E-04  0.291E-02    0.97       1.0  T
   4   -221.0910627 -0.559384E-04  0.153E-02    0.97       1.0  T
   5   -221.0910713 -0.855401E-05  0.689E-03    0.97       1.5  T
   6   -221.0910753 -0.404118E-05  0.249E-03    0.97       4.0  T
   7   -221.0910754 -0.896503E-07  0.189E-03    0.97       5.3  T
   8   -221.0910755 -0.835411E-07  0.109E-03    0.97       9.3  T
     SCC iter.                  ...        0 min,  0.345 sec
     gradient                   ...        0 min,  0.028 sec
 * total energy  :  -217.4570796 Eh     change       -0.4485701E-03 Eh
   gradient norm :     0.0071269 Eh/α   predicted    -0.4359531E-03 (  -2.81%)
   displ. norm   :     0.7731225 α      lambda       -0.5177516E-03
   maximum displ.:     0.4098546 α      in ANC's #9, #4, #6, ...

........................................................................
.............................. CYCLE   40 ..............................
........................................................................
   1   -221.0910824 -0.221091E+03  0.210E-01    0.97       0.0  T
   2   -221.0911169 -0.345209E-04  0.111E-01    0.96       1.0  T
   3   -221.0910849  0.320796E-04  0.263E-02    0.97       1.0  T
   4   -221.0911175 -0.326173E-04  0.155E-02    0.96       1.0  T
   5   -221.0911280 -0.105465E-04  0.628E-03    0.97       1.6  T
   6   -221.0911319 -0.389114E-05  0.236E-03    0.96       4.2  T
   7   -221.0911319 -0.298124E-07  0.181E-03    0.96       5.6  T
   8   -221.0911320 -0.970144E-07  0.102E-03    0.96       9.9  T
     SCC iter.                  ...        0 min,  0.345 sec
     gradient                   ...        0 min,  0.214 sec
 * total energy  :  -217.4574918 Eh     change       -0.4122356E-03 Eh
   gradient norm :     0.0073808 Eh/α   predicted    -0.4136049E-03 (   0.33%)
   displ. norm   :     0.7972760 α      lambda       -0.4421433E-03
   maximum displ.:     0.4211210 α      in ANC's #9, #4, #6, ...

........................................................................
.............................. CYCLE   41 ..............................
........................................................................
   1   -221.0893667 -0.221089E+03  0.219E-01    0.96       0.0  T
   2   -221.0894043 -0.376057E-04  0.114E-01    0.96       1.0  T
   3   -221.0893730  0.312538E-04  0.268E-02    0.97       1.0  T
   4   -221.0894001 -0.270336E-04  0.171E-02    0.96       1.0  T
   5   -221.0894149 -0.148578E-04  0.716E-03    0.96       1.4  T
   6   -221.0894196 -0.464272E-05  0.250E-03    0.96       4.0  T
   7   -221.0894196 -0.425299E-07  0.191E-03    0.96       5.3  T
   8   -221.0894197 -0.911143E-07  0.119E-03    0.96       8.4  T
     SCC iter.                  ...        0 min,  0.353 sec
     gradient                   ...        0 min,  0.035 sec
 * total energy  :  -217.4578638 Eh     change       -0.3720040E-03 Eh
   gradient norm :     0.0086887 Eh/α   predicted    -0.3615976E-03 (  -2.80%)
   displ. norm   :     0.7131335 α      lambda       -0.4862386E-03
   maximum displ.:     0.3506299 α      in ANC's #4, #6, #9, ...

........................................................................
.............................. CYCLE   42 ..............................
........................................................................
   1   -221.1032099 -0.221103E+03  0.186E-01    0.97       0.0  T
   2   -221.1032412 -0.313043E-04  0.987E-02    0.97       1.0  T
   3   -221.1032237  0.175862E-04  0.217E-02    0.97       1.0  T
   4   -221.1032409 -0.172940E-04  0.137E-02    0.97       1.0  T
   5   -221.1032491 -0.817102E-05  0.617E-03    0.97       1.6  T
   6   -221.1032525 -0.342635E-05  0.233E-03    0.97       4.3  T
   7   -221.1032528 -0.215768E-06  0.161E-03    0.97       6.2  T
   8   -221.1032528 -0.274312E-07  0.105E-03    0.97       9.6  T
     SCC iter.                  ...        0 min,  0.326 sec
     gradient                   ...        0 min,  0.032 sec
 * total energy  :  -217.4581872 Eh     change       -0.3234305E-03 Eh
   gradient norm :     0.0132631 Eh/α   predicted    -0.3667612E-03 (  13.40%)
   displ. norm   :     0.7651465 α      lambda       -0.5362847E-03
   maximum displ.:     0.3949376 α      in ANC's #9, #6, #4, ...
 * RMSD in coord.:     0.9198283 α      energy gain  -0.5994798E-02 Eh

generating ANC from model Hessian ...
Using Lindh-Hessian (1995)
 Shifting diagonal of input Hessian by   4.992996895870574E-003
 Lowest  eigenvalues of input Hessian
   -0.000000    0.000000    0.000000    0.000000    0.000000    0.000000
    0.005000    0.005012    0.005014    0.005051    0.005092    0.005150
    0.005231    0.005268    0.005329    0.005513    0.005550    0.005693
 Highest eigenvalues
    2.625601    2.637274    2.643627    2.648487    2.655925    2.667102
 

........................................................................
.............................. CYCLE   43 ..............................
........................................................................
   1   -221.0874028 -0.221087E+03  0.210E-01    0.97       0.0  T
   2   -221.0874414 -0.386225E-04  0.111E-01    0.97       1.0  T
   3   -221.0874124  0.289612E-04  0.261E-02    0.97       1.0  T
   4   -221.0874465 -0.340515E-04  0.144E-02    0.96       1.0  T
   5   -221.0874521 -0.558699E-05  0.761E-03    0.97       1.3  T
   6   -221.0874572 -0.511818E-05  0.280E-03    0.97       3.6  T
   7   -221.0874574 -0.235946E-06  0.204E-03    0.97       4.9  T
   8   -221.0874575 -0.649402E-07  0.134E-03    0.97       7.5  T
   9   -221.0874575 -0.446576E-07  0.793E-04    0.97      12.7  T
  10   -221.0874576 -0.139647E-07  0.519E-04    0.97      19.4  T
     SCC iter.                  ...        0 min,  0.448 sec
     gradient                   ...        0 min,  0.026 sec
 * total energy  :  -217.4585357 Eh     change       -0.3484548E-03 Eh
   gradient norm :     0.0133290 Eh/α   predicted     0.0000000E+00 (-100.00%)
   displ. norm   :     0.1358671 α      lambda       -0.3159295E-03
   maximum displ.:     0.0553130 α      in ANC's #5, #14, #17, ...

........................................................................
.............................. CYCLE   44 ..............................
........................................................................
   1   -221.0948956 -0.221095E+03  0.816E-02    0.97       0.0  T
   2   -221.0949031 -0.747015E-05  0.449E-02    0.97       1.0  T
   3   -221.0948703  0.327116E-04  0.193E-02    0.97       1.0  T
   4   -221.0949089 -0.385793E-04  0.345E-03    0.97       2.9  T
   5   -221.0949092 -0.249637E-06  0.233E-03    0.97       4.3  T
   6   -221.0949095 -0.366167E-06  0.895E-04    0.97      11.2  T
     SCC iter.                  ...        0 min,  0.257 sec
     gradient                   ...        0 min,  0.024 sec
 * total energy  :  -217.4586252 Eh     change       -0.8946603E-04 Eh
   gradient norm :     0.0055320 Eh/α   predicted    -0.1610633E-03 (  80.03%)
   displ. norm   :     0.1270004 α      lambda       -0.3159793E-03
   maximum displ.:     0.0573838 α      in ANC's #27, #5, #13, ...

........................................................................
.............................. CYCLE   45 ..............................
........................................................................
   1   -221.1031240 -0.221103E+03  0.801E-02    0.97       0.0  T
   2   -221.1031314 -0.738333E-05  0.440E-02    0.97       1.0  T
   3   -221.1031130  0.184040E-04  0.147E-02    0.97       1.0  T
   4   -221.1031353 -0.222940E-04  0.362E-03    0.97       2.8  T
   5   -221.1031356 -0.272325E-06  0.245E-03    0.97       4.1  T
   6   -221.1031361 -0.516188E-06  0.794E-04    0.97      12.7  T
     SCC iter.                  ...        0 min,  0.433 sec
     gradient                   ...        0 min,  0.024 sec
 * total energy  :  -217.4586479 Eh     change       -0.2274144E-04 Eh
   gradient norm :     0.0146841 Eh/α   predicted    -0.1605403E-03 ( 605.94%)
   displ. norm   :     0.1097867 α      lambda       -0.3435171E-03
   maximum displ.:     0.0448721 α      in ANC's #14, #5, #17, ...

........................................................................
.............................. CYCLE   46 ..............................
........................................................................
   1   -221.1006957 -0.221101E+03  0.822E-02    0.97       0.0  T
   2   -221.1007037 -0.794167E-05  0.451E-02    0.97       1.0  T
   3   -221.1006882  0.155212E-04  0.143E-02    0.97       1.0  T
   4   -221.1007085 -0.203535E-04  0.250E-03    0.97       4.0  T
   5   -221.1007085  0.559841E-07  0.181E-03    0.97       5.5  T
   6   -221.1007088 -0.291560E-06  0.582E-04    0.97      17.3  T
     SCC iter.                  ...        0 min,  0.257 sec
     gradient                   ...        0 min,  0.025 sec
 * total energy  :  -217.4586877 Eh     change       -0.3979560E-04 Eh
   gradient norm :     0.0080328 Eh/α   predicted    -0.1738330E-03 ( 336.81%)
   displ. norm   :     0.0898569 α      lambda       -0.3500388E-03
   maximum displ.:     0.0293512 α      in ANC's #56, #36, #5, ...

........................................................................
.............................. CYCLE   47 ..............................
........................................................................
   1   -221.0939039 -0.221094E+03  0.714E-02    0.97       0.0  T
   2   -221.0939103 -0.636473E-05  0.390E-02    0.97       1.0  T
   3   -221.0939027  0.760685E-05  0.102E-02    0.97       1.0  T
   4   -221.0939133 -0.105862E-04  0.247E-03    0.97       4.1  T
   5   -221.0939134 -0.163899E-06  0.156E-03    0.97       6.4  T
   6   -221.0939136 -0.175475E-06  0.634E-04    0.97      15.9  T
     SCC iter.                  ...        0 min,  0.260 sec
     gradient                   ...        0 min,  0.024 sec
 * total energy  :  -217.4588157 Eh     change       -0.1279808E-03 Eh
   gradient norm :     0.0091459 Eh/α   predicted    -0.1764329E-03 (  37.86%)
   displ. norm   :     0.1077939 α      lambda       -0.1462366E-03
   maximum displ.:     0.0442016 α      in ANC's #5, #27, #14, ...

........................................................................
.............................. CYCLE   48 ..............................
........................................................................
   1   -221.0962536 -0.221096E+03  0.551E-02    0.97       0.0  T
   2   -221.0962569 -0.327293E-05  0.300E-02    0.97       1.0  T
   3   -221.0962490  0.783700E-05  0.101E-02    0.97       1.0  T
   4   -221.0962588 -0.975123E-05  0.242E-03    0.97       4.1  T
   5   -221.0962588 -0.619593E-08  0.144E-03    0.97       7.0  T
   6   -221.0962590 -0.197447E-06  0.391E-04    0.97      25.7  T
     SCC iter.                  ...        0 min,  0.269 sec
     gradient                   ...        0 min,  0.025 sec
 * total energy  :  -217.4588738 Eh     change       -0.5815036E-04 Eh
   gradient norm :     0.0035781 Eh/α   predicted    -0.7397877E-04 (  27.22%)
   displ. norm   :     0.1924393 α      lambda       -0.1883647E-03
   maximum displ.:     0.0871681 α      in ANC's #5, #14, #8, ...

........................................................................
.............................. CYCLE   49 ..............................
........................................................................
   1   -221.1012940 -0.221101E+03  0.750E-02    0.97       0.0  T
   2   -221.1012995 -0.543171E-05  0.403E-02    0.97       1.0  T
   3   -221.1012896  0.980469E-05  0.115E-02    0.97       1.0  T
   4   -221.1013004 -0.108010E-04  0.533E-03    0.97       1.9  T
   5   -221.1013015 -0.102347E-05  0.251E-03    0.97       4.0  T
   6   -221.1013021 -0.610820E-06  0.715E-04    0.97      14.1  T
   7   -221.1013021 -0.221088E-07  0.437E-04    0.97      23.0  T
     SCC iter.                  ...        0 min,  0.296 sec
     gradient                   ...        0 min,  0.026 sec
 * total energy  :  -217.4589491 Eh     change       -0.7526746E-04 Eh
   gradient norm :     0.0115193 Eh/α   predicted    -0.9767133E-04 (  29.77%)
   displ. norm   :     0.1794150 α      lambda       -0.1436345E-03
   maximum displ.:     0.0844019 α      in ANC's #5, #14, #8, ...

........................................................................
.............................. CYCLE   50 ..............................
........................................................................
   1   -221.0988022 -0.221099E+03  0.706E-02    0.97       0.0  T
   2   -221.0988071 -0.488704E-05  0.372E-02    0.97       1.0  T
   3   -221.0988006  0.645207E-05  0.106E-02    0.97       1.0  T
   4   -221.0988086 -0.801340E-05  0.452E-03    0.97       2.2  T
   5   -221.0988090 -0.376058E-06  0.195E-03    0.97       5.2  T
   6   -221.0988094 -0.403058E-06  0.518E-04    0.97      19.4  T
     SCC iter.                  ...        0 min,  0.302 sec
     gradient                   ...        0 min,  0.033 sec
 * total energy  :  -217.4590591 Eh     change       -0.1100094E-03 Eh
   gradient norm :     0.0064047 Eh/α   predicted    -0.7413029E-04 ( -32.61%)
   displ. norm   :     0.4860768 α      lambda       -0.3404453E-03
   maximum displ.:     0.2260180 α      in ANC's #5, #14, #27, ...

........................................................................
.............................. CYCLE   51 ..............................
........................................................................
   1   -221.0898376 -0.221090E+03  0.186E-01    0.97       0.0  T
   2   -221.0898713 -0.336889E-04  0.981E-02    0.97       1.0  T
   3   -221.0898445  0.267267E-04  0.243E-02    0.97       1.0  T
   4   -221.0898782 -0.336727E-04  0.123E-02    0.97       1.0  T
   5   -221.0898820 -0.375909E-05  0.552E-03    0.97       1.8  T
   6   -221.0898851 -0.308047E-05  0.150E-03    0.97       6.7  T
   7   -221.0898851 -0.959853E-07  0.948E-04    0.97      10.6  T
   8   -221.0898852 -0.178999E-07  0.571E-04    0.97      17.6  T
     SCC iter.                  ...        0 min,  0.413 sec
     gradient                   ...        0 min,  0.021 sec
 * total energy  :  -217.4590722 Eh     change       -0.1309991E-04 Eh
   gradient norm :     0.0151770 Eh/α   predicted    -0.2104424E-03 (1506.44%)
   displ. norm   :     0.2122664 α      lambda       -0.4083877E-03
   maximum displ.:     0.1006414 α      in ANC's #5, #14, #8, ...

........................................................................
.............................. CYCLE   52 ..............................
........................................................................
   1   -221.0916595 -0.221092E+03  0.957E-02    0.97       0.0  T
   2   -221.0916692 -0.964537E-05  0.520E-02    0.97       1.0  T
   3   -221.0916588  0.104123E-04  0.134E-02    0.97       1.0  T
   4   -221.0916734 -0.145691E-04  0.453E-03    0.97       2.2  T
   5   -221.0916734 -0.420263E-07  0.264E-03    0.97       3.8  T
   6   -221.0916741 -0.745456E-06  0.732E-04    0.97      13.7  T
     SCC iter.                  ...        0 min,  0.162 sec
     gradient                   ...        0 min,  0.021 sec
 * total energy  :  -217.4592604 Eh     change       -0.1882256E-03 Eh
   gradient norm :     0.0112845 Eh/α   predicted    -0.2133948E-03 (  13.37%)
   displ. norm   :     0.1703580 α      lambda       -0.2799350E-03
   maximum displ.:     0.0819459 α      in ANC's #5, #4, #8, ...

........................................................................
.............................. CYCLE   53 ..............................
........................................................................
   1   -221.0972996 -0.221097E+03  0.845E-02    0.96       0.0  T
   2   -221.0973080 -0.837535E-05  0.465E-02    0.97       1.0  T
   3   -221.0972880  0.200047E-04  0.162E-02    0.96       1.0  T
   4   -221.0973125 -0.245247E-04  0.355E-03    0.96       2.8  T
   5   -221.0973128 -0.265118E-06  0.233E-03    0.96       4.3  T
   6   -221.0973132 -0.449028E-06  0.851E-04    0.96      11.8  T
     SCC iter.                  ...        0 min,  0.162 sec
     gradient                   ...        0 min,  0.021 sec
 * total energy  :  -217.4592809 Eh     change       -0.2047070E-04 Eh
   gradient norm :     0.0101462 Eh/α   predicted    -0.1440302E-03 ( 603.59%)
   displ. norm   :     0.1838060 α      lambda       -0.2565897E-03
   maximum displ.:     0.0924713 α      in ANC's #5, #14, #8, ...

........................................................................
.............................. CYCLE   54 ..............................
........................................................................
   1   -221.0990401 -0.221099E+03  0.733E-02    0.97       0.0  T
   2   -221.0990451 -0.497423E-05  0.395E-02    0.97       1.0  T
   3   -221.0990329  0.121779E-04  0.129E-02    0.97       1.0  T
   4   -221.0990476 -0.147103E-04  0.414E-03    0.97       2.4  T
   5   -221.0990478 -0.192912E-06  0.192E-03    0.97       5.2  T
   6   -221.0990481 -0.347554E-06  0.659E-04    0.97      15.3  T
     SCC iter.                  ...        0 min,  0.162 sec
     gradient                   ...        0 min,  0.021 sec
 * total energy  :  -217.4594432 Eh     change       -0.1623232E-03 Eh
   gradient norm :     0.0046618 Eh/α   predicted    -0.1326312E-03 ( -18.29%)
   displ. norm   :     0.3603923 α      lambda       -0.2075958E-03
   maximum displ.:     0.1878915 α      in ANC's #5, #14, #8, ...

........................................................................
.............................. CYCLE   55 ..............................
........................................................................
   1   -221.0948530 -0.221095E+03  0.122E-01    0.97       0.0  T
   2   -221.0948664 -0.134039E-04  0.651E-02    0.97       1.0  T
   3   -221.0948550  0.113187E-04  0.154E-02    0.97       1.0  T
   4   -221.0948680 -0.129689E-04  0.828E-03    0.97       1.2  T
   5   -221.0948705 -0.243832E-05  0.383E-03    0.97       2.6  T
   6   -221.0948719 -0.147669E-05  0.103E-03    0.97       9.7  T
   7   -221.0948720 -0.240056E-07  0.711E-04    0.97      14.1  T
     SCC iter.                  ...        0 min,  0.189 sec
     gradient                   ...        0 min,  0.021 sec
 * total energy  :  -217.4595442 Eh     change       -0.1009515E-03 Eh
   gradient norm :     0.0080756 Eh/α   predicted    -0.1172801E-03 (  16.17%)
   displ. norm   :     0.3550832 α      lambda       -0.2097792E-03
   maximum displ.:     0.1923263 α      in ANC's #5, #8, #4, ...

........................................................................
.............................. CYCLE   56 ..............................
........................................................................
   1   -221.0948108 -0.221095E+03  0.109E-01    0.97       0.0  T
   2   -221.0948213 -0.104143E-04  0.585E-02    0.97       1.0  T
   3   -221.0948117  0.950223E-05  0.136E-02    0.97       1.0  T
   4   -221.0948230 -0.112867E-04  0.722E-03    0.97       1.4  T
   5   -221.0948254 -0.234709E-05  0.213E-03    0.97       4.7  T
   6   -221.0948258 -0.396124E-06  0.932E-04    0.97      10.8  T
     SCC iter.                  ...        0 min,  0.162 sec
     gradient                   ...        0 min,  0.021 sec
 * total energy  :  -217.4596919 Eh     change       -0.1477308E-03 Eh
   gradient norm :     0.0076732 Eh/α   predicted    -0.1181138E-03 ( -20.05%)
   displ. norm   :     0.4561490 α      lambda       -0.3043934E-03
   maximum displ.:     0.2553881 α      in ANC's #5, #8, #4, ...

........................................................................
.............................. CYCLE   57 ..............................
........................................................................
   1   -221.1020005 -0.221102E+03  0.123E-01    0.97       0.0  T
   2   -221.1020136 -0.131188E-04  0.666E-02    0.97       1.0  T
   3   -221.1020039  0.972301E-05  0.151E-02    0.97       1.0  T
   4   -221.1020163 -0.124395E-04  0.785E-03    0.97       1.3  T
   5   -221.1020181 -0.178830E-05  0.321E-03    0.97       3.1  T
   6   -221.1020191 -0.982687E-06  0.126E-03    0.97       8.0  T
   7   -221.1020192 -0.628349E-07  0.836E-04    0.97      12.0  T
     SCC iter.                  ...        0 min,  0.189 sec
     gradient                   ...        0 min,  0.021 sec
 * total energy  :  -217.4599031 Eh     change       -0.2112322E-03 Eh
   gradient norm :     0.0068742 Eh/α   predicted    -0.1838645E-03 ( -12.96%)
   displ. norm   :     0.6205714 α      lambda       -0.2805931E-03
   maximum displ.:     0.3387825 α      in ANC's #5, #8, #4, ...

........................................................................
.............................. CYCLE   58 ..............................
........................................................................
   1   -221.0973775 -0.221097E+03  0.180E-01    0.97       0.0  T
   2   -221.0974050 -0.274728E-04  0.960E-02    0.97       1.0  T
   3   -221.0973896  0.153890E-04  0.205E-02    0.97       1.0  T
   4   -221.0974062 -0.165627E-04  0.126E-02    0.97       1.0  T
   5   -221.0974141 -0.789712E-05  0.419E-03    0.97       2.4  T
   6   -221.0974157 -0.158396E-05  0.157E-03    0.97       6.4  T
   7   -221.0974157 -0.416833E-07  0.111E-03    0.97       9.0  T
     SCC iter.                  ...        0 min,  0.189 sec
     gradient                   ...        0 min,  0.021 sec
 * total energy  :  -217.4601120 Eh     change       -0.2088636E-03 Eh
   gradient norm :     0.0090289 Eh/α   predicted    -0.1943285E-03 (  -6.96%)
   displ. norm   :     0.6031156 α      lambda       -0.3178253E-03
   maximum displ.:     0.3356415 α      in ANC's #5, #8, #4, ...

........................................................................
.............................. CYCLE   59 ..............................
........................................................................
   1   -221.0932364 -0.221093E+03  0.165E-01    0.96       0.0  T
   2   -221.0932592 -0.227955E-04  0.880E-02    0.97       1.0  T
   3   -221.0932476  0.116068E-04  0.185E-02    0.97       1.0  T
   4   -221.0932608 -0.132045E-04  0.113E-02    0.97       1.0  T
   5   -221.0932673 -0.650012E-05  0.340E-03    0.97       3.0  T
   6   -221.0932682 -0.920072E-06  0.153E-03    0.97       6.6  T
   7   -221.0932682 -0.207103E-07  0.109E-03    0.97       9.2  T
     SCC iter.                  ...        0 min,  0.189 sec
     gradient                   ...        0 min,  0.021 sec
 * total energy  :  -217.4603189 Eh     change       -0.2068752E-03 Eh
   gradient norm :     0.0072759 Eh/α   predicted    -0.2167223E-03 (   4.76%)
   displ. norm   :     0.5178241 α      lambda       -0.3001310E-03
   maximum displ.:     0.2969960 α      in ANC's #5, #4, #8, ...

........................................................................
.............................. CYCLE   60 ..............................
........................................................................
   1   -221.0959376 -0.221096E+03  0.125E-01    0.97       0.0  T
   2   -221.0959512 -0.136438E-04  0.675E-02    0.97       1.0  T
   3   -221.0959239  0.273044E-04  0.200E-02    0.97       1.0  T
   4   -221.0959571 -0.332114E-04  0.749E-03    0.97       1.3  T
   5   -221.0959575 -0.380293E-06  0.404E-03    0.97       2.5  T
   6   -221.0959590 -0.148484E-05  0.157E-03    0.97       6.4  T
   7   -221.0959590 -0.808883E-07  0.109E-03    0.97       9.2  T
     SCC iter.                  ...        0 min,  0.189 sec
     gradient                   ...        0 min,  0.021 sec
 * total energy  :  -217.4604802 Eh     change       -0.1613666E-03 Eh
   gradient norm :     0.0093600 Eh/α   predicted    -0.1903048E-03 (  17.93%)
   displ. norm   :     0.5853611 α      lambda       -0.2652580E-03
   maximum displ.:     0.3263350 α      in ANC's #5, #4, #8, ...

........................................................................
.............................. CYCLE   61 ..............................
........................................................................
   1   -221.0904087 -0.221090E+03  0.158E-01    0.97       0.0  T
   2   -221.0904292 -0.204889E-04  0.846E-02    0.97       1.0  T
   3   -221.0904128  0.163867E-04  0.200E-02    0.97       1.0  T
   4   -221.0904317 -0.188856E-04  0.112E-02    0.97       1.0  T
   5   -221.0904363 -0.460948E-05  0.391E-03    0.97       2.6  T
   6   -221.0904377 -0.134773E-05  0.149E-03    0.97       6.7  T
   7   -221.0904377 -0.399322E-07  0.111E-03    0.97       9.1  T
[...]
     4   7 N      0.911    -0.227    25.976     7.371
     5   6 C      1.940     0.120    28.123     8.564
     6   7 N      0.911    -0.231    26.053     7.382
     7   6 C      3.034     0.005    27.877     8.660
     8   6 C      3.041    -0.021    28.486     8.754
     9   6 C      2.910    -0.017    28.433     8.744
    10   6 C      3.147     0.009    27.542     8.585
    11   6 C      3.008     0.030    27.310     8.572
    12   6 C      2.934    -0.034    28.846     8.808
    13  16 S      2.397     0.021   140.202    19.929
    14   6 C      2.933     0.091    25.983     8.360
    15   6 C      3.101    -0.056    29.248     8.862
    16  35 Br     1.141    -0.106   187.969    22.106
    17   6 C      2.863     0.228    23.221     7.899
    18   8 O      0.856    -0.365    20.995     6.143
    19   6 C      3.003    -0.031    28.763     8.797
    20   6 C      2.953    -0.013    28.339     8.731
    21   6 C      2.995     0.027    27.379     8.583
    22   6 C      3.040    -0.030    28.716     8.789
    23   6 C      3.244    -0.016    27.424     8.485
    24   6 C      3.083     0.021    27.446     8.588
    25  16 S      2.277     0.061   138.585    19.813
    26   6 C      3.086     0.014    27.598     8.612
    27   6 C      3.239    -0.015    27.460     8.498
    28   6 C      3.041     0.039    27.095     8.538
    29   6 C      2.946     0.028    27.377     8.582
    30   6 C      1.920     0.125    28.029     8.550
    31   7 N      0.911    -0.196    25.253     7.268
    32   6 C      1.923     0.126    27.996     8.545
    33   7 N      0.911    -0.211    25.596     7.317
    34   6 C      3.051    -0.042    28.998     8.832
    35   6 C      3.041     0.014    27.669     8.628
    36  16 S      2.244     0.063   138.521    19.809
    37   6 C      3.018     0.022    27.490     8.600
    38   6 C      3.109    -0.004    27.986     8.667
    39   6 C      1.907     0.111    28.355     8.600
    40   7 N      0.911    -0.204    25.430     7.293
    41   6 C      3.246    -0.007    27.193     8.447
    42   6 C      3.040     0.028    27.347     8.577
    43  16 S      2.289     0.020   140.248    19.932
    44  16 S      2.244     0.011   140.608    19.958
    45   6 C      3.040     0.028    27.345     8.577
    46   6 C      3.246    -0.007    27.198     8.448
    47   6 C      3.109    -0.005    27.994     8.669
    48   6 C      1.907     0.111    28.357     8.600
    49   7 N      0.911    -0.204    25.434     7.294
    50   6 C      3.016     0.023    27.479     8.599
    51  16 S      2.290     0.019   140.289    19.935
    52   6 C      3.041     0.013    27.686     8.630
    53   6 C      3.051    -0.041    28.971     8.828
    54   6 C      3.242    -0.015    27.421     8.488
    55   6 C      3.087     0.016    27.557     8.605
    56  16 S      2.245     0.067   138.327    19.795
    57   6 C      3.084     0.021    27.453     8.589
    58   6 C      3.251    -0.015    27.309     8.458
    59   6 C      3.044     0.041    27.042     8.529
    60   6 C      2.947     0.027    27.410     8.587
    61   6 C      1.918     0.127    27.989     8.544
    62   7 N      0.911    -0.209    25.542     7.309
    63   6 C      1.920     0.129    27.942     8.537
    64   7 N      0.911    -0.215    25.686     7.330
    65   6 C      3.051    -0.030    28.694     8.785
    66   6 C      2.996     0.022    27.496     8.602
    67  16 S      2.268     0.079   137.877    19.763
    68   6 C      2.940    -0.014    28.371     8.736
    69   6 C      3.007    -0.029    28.714     8.790
    70   6 C      3.014     0.033    27.240     8.561
    71   6 C      2.947     0.009    27.820     8.651
    72   6 C      1.934     0.123    28.059     8.554
    73   7 N      0.911    -0.221    25.830     7.350
    74   6 C      1.934     0.125    28.024     8.549
    75   7 N      0.911    -0.239    26.247     7.410
    76   6 C      3.041     0.006    27.842     8.655
    77   6 C      3.036    -0.021    28.499     8.756
    78   6 C      2.872     0.227    23.235     7.902
    79   8 O      0.856    -0.355    20.794     6.114
    80   6 C      2.910    -0.017    28.444     8.745
    81   6 C      3.148     0.009    27.547     8.586
    82   6 C      3.008     0.031    27.302     8.571
    83   6 C      2.933    -0.032    28.810     8.803
    84  16 S      2.396     0.025   140.045    19.918
    85   6 C      2.933     0.090    25.991     8.361
    86   6 C      3.101    -0.056    29.256     8.863
    87  35 Br     1.141    -0.106   187.959    22.105
    88   1 H      0.926     0.073     2.056     2.242
    89   1 H      0.926     0.067     2.118     2.276
    90   1 H      0.926     0.072     2.069     2.249
    91   1 H      0.925     0.070     2.089     2.260
    92   1 H      0.926     0.106     1.732     2.058
    93   1 H      0.926     0.070     2.089     2.260
    94   1 H      0.926     0.070     2.087     2.259
    95   1 H      0.926     0.060     2.194     2.317
    96   1 H      0.925     0.085     1.925     2.170
    97   1 H      0.926     0.071     2.073     2.251
    98   1 H      0.926     0.069     2.096     2.264
    99   1 H      0.926     0.071     2.073     2.252

 Mol. C6AA /au·bohr⁶  :     299076.486435
 Mol. C8AA /au·bohr⁸  :    9663900.560897
 Mol. α(0) /au        :        885.902422


Wiberg/Mayer (AO) data.
largest (>0.10) Wiberg bond orders for each atom
          total WBO             WBO to atom ...
     1  C   3.971        C    2 1.489    C   19 1.127    C    7 1.096
     2  C   3.934        C    1 1.489    C    5 1.096    C    3 1.095
     3  C   3.946        N    4 2.768    C    2 1.095
     4  N   2.972        C    3 2.768
     5  C   3.946        N    6 2.760    C    2 1.096
     6  N   2.966        C    5 2.760
     7  C   3.976        C   12 1.423    C    8 1.244    C    1 1.096
     8  C   3.978        C    9 1.470    C    7 1.244    C   17 1.024
     9  C   3.971        C    8 1.470    C   10 1.317    H   88 0.962
    10  C   3.974        C    9 1.317    C   11 1.263    C   15 1.205
    11  C   3.950        C   12 1.380    C   10 1.263    S   13 1.122
    12  C   3.972        C    7 1.423    C   11 1.380    H   89 0.958
    13  S   2.563        C   14 1.134    C   11 1.122
    14  C   3.901        C   15 1.607    S   13 1.134    Br  16 1.032
    15  C   3.974        C   14 1.607    C   10 1.205    H   90 0.959
    16  Br  1.172        C   14 1.032
    17  C   3.922        O   18 1.764    C   19 1.026    C    8 1.024
    18  O   2.057        C   17 1.764
    19  C   3.951        C   20 1.545    C    1 1.127    C   17 1.026
    20  C   3.954        C   19 1.545    C   21 1.255    H   91 0.944
    21  C   3.911        C   22 1.409    C   20 1.255    S   25 1.087
    22  C   3.948        C   21 1.409    C   23 1.366    H   92 0.940
    23  C   3.956        C   22 1.366    C   24 1.284    C   28 1.095
    24  C   3.926        C   23 1.284    S   25 1.234    C   26 1.193
    25  S   2.637        C   24 1.234    C   21 1.087
    26  C   3.931        C   27 1.310    S   36 1.201    C   24 1.193
    27  C   3.952        C   34 1.341    C   26 1.310    C   28 1.092
    28  C   3.983        C   29 1.522    C   23 1.095    C   27 1.092
    29  C   3.988        C   28 1.522    C   32 1.091    C   30 1.089
    30  C   3.950        N   31 2.793    C   29 1.089
    31  N   2.984        C   30 2.793
    32  C   3.948        N   33 2.786    C   29 1.091
    33  N   2.979        C   32 2.786
    34  C   3.971        C   35 1.439    C   27 1.341    H   93 0.953
    35  C   3.906        C   34 1.439    C   37 1.191    S   36 1.121
    36  S   2.657        C   26 1.201    C   35 1.121
    37  C   3.945        C   38 1.405    C   35 1.191    S   43 1.115
    38  C   3.958        C   37 1.405    C   41 1.181    C   39 1.115
    39  C   3.953        N   40 2.775    C   38 1.115
    40  N   3.002        C   39 2.775
    41  C   3.970        C   42 1.391    C   38 1.181    C   46 1.157
    42  C   3.892        C   41 1.391    S   43 1.160    S   44 1.132
    43  S   2.600        C   42 1.160    C   37 1.115
    44  S   2.558        C   42 1.132    C   45 1.131
    45  C   3.891        C   46 1.392    S   51 1.159    S   44 1.131
    46  C   3.970        C   45 1.392    C   47 1.181    C   41 1.157
    47  C   3.958        C   50 1.404    C   46 1.181    C   48 1.115
    48  C   3.953        N   49 2.774    C   47 1.115
    49  N   3.002        C   48 2.774
    50  C   3.945        C   47 1.404    C   52 1.193    S   51 1.114
    51  S   2.599        C   45 1.159    C   50 1.114
    52  C   3.908        C   53 1.438    C   50 1.193    S   56 1.119
    53  C   3.972        C   52 1.438    C   54 1.341    H   94 0.953
    54  C   3.955        C   53 1.341    C   55 1.309    C   59 1.093
    55  C   3.932        C   54 1.309    S   56 1.206    C   57 1.188
    56  S   2.661        C   55 1.206    C   52 1.119
    57  C   3.925        C   58 1.295    S   67 1.227    C   55 1.188
    58  C   3.958        C   65 1.358    C   57 1.295    C   59 1.095
    59  C   3.982        C   60 1.517    C   58 1.095    C   54 1.093
    60  C   3.988        C   59 1.517    C   61 1.093    C   63 1.092
    61  C   3.949        N   62 2.788    C   60 1.093
    62  N   2.979        C   61 2.788
    63  C   3.948        N   64 2.786    C   60 1.092
    64  N   2.979        C   63 2.786
    65  C   3.974        C   66 1.414    C   58 1.358    H   95 0.955
    66  C   3.914        C   65 1.414    C   68 1.236    S   67 1.102
    67  S   2.640        C   57 1.227    C   66 1.102
    68  C   3.953        C   69 1.566    C   66 1.236    H   96 0.948
    69  C   3.953        C   68 1.566    C   70 1.130    C   78 1.001
    70  C   3.973        C   71 1.486    C   69 1.130    C   76 1.087
    71  C   3.953        C   70 1.486    C   74 1.102    C   72 1.093
    72  C   3.947        N   73 2.774    C   71 1.093
    73  N   2.975        C   72 2.774
    74  C   3.945        N   75 2.761    C   71 1.102
    75  N   2.977        C   74 2.761
    76  C   3.978        C   83 1.429    C   77 1.242    C   70 1.087
    77  C   3.977        C   80 1.469    C   76 1.242    C   78 1.023
    78  C   3.924        O   79 1.785    C   77 1.023    C   69 1.001
    79  O   2.055        C   78 1.785
    80  C   3.972        C   77 1.469    C   81 1.318    H   97 0.962
    81  C   3.975        C   80 1.318    C   82 1.264    C   86 1.205
    82  C   3.951        C   83 1.377    C   81 1.264    S   84 1.124
    83  C   3.973        C   76 1.429    C   82 1.377    H   98 0.959
    84  S   2.566        C   85 1.134    C   82 1.124
    85  C   3.902        C   86 1.608    S   84 1.134    Br  87 1.032
    86  C   3.974        C   85 1.608    C   81 1.205    H   99 0.959
    87  Br  1.173        C   85 1.032
    88  H   0.994        C    9 0.962
    89  H   0.995        C   12 0.958
    90  H   0.995        C   15 0.959
    91  H   0.994        C   20 0.944
    92  H   0.988        C   22 0.940
    93  H   0.994        C   34 0.953
    94  H   0.994        C   53 0.953
    95  H   0.996        C   65 0.955
    96  H   0.990        C   68 0.948
    97  H   0.994        C   80 0.962
    98  H   0.994        C   83 0.959
    99  H   0.995        C   86 0.959

molecular dipole:
                 x           y           z       tot (Debye)
 q only:        0.976       0.058      -1.668
   full:        1.000       0.192      -2.261       6.303
molecular quadrupole (traceless):
                xx          xy          yy          xz          yz          zz
 q only:       32.584      31.793     -31.793      39.422     -27.870      -0.791
  q+dip:       64.071      28.970     -73.155      52.170     -35.490       9.084
   full:       70.721      30.487     -82.445      41.438     -32.330      11.724

           -------------------------------------------------
          |                Geometry Summary                 |
           -------------------------------------------------

      molecular mass/u    :     1401.2126000
   center of mass at/Å    :       -7.4145931       8.2451700       3.4172559
  moments of inertia/u·Å² :        0.1484403E+05   0.2038490E+06   0.2144376E+06
rotational constants/cm⁻¹ :        0.1135651E-02   0.8269665E-04   0.7861324E-04

 * 90 selected distances

     #   Z        #   Z                                     value/Å
     1   6 C      2   6 C                                 1.3706037
     3   6 C      4   7 N                                 1.1476976
     5   6 C      6   7 N                                 1.1483793
     7   6 C      8   6 C                                 1.4160672
     8   6 C      9   6 C                                 1.3738978
     9   6 C     10   6 C                                 1.3985514
    10   6 C     11   6 C                                 1.4162121
     7   6 C     12   6 C                                 1.3828034
    11   6 C     12   6 C                                 1.3891411
    11   6 C     13  16 S                                 1.7369620
    13  16 S     14   6 C                                 1.7438191
    10   6 C     15   6 C                                 1.4214124
    14   6 C     15   6 C                                 1.3545117
    14   6 C     16  35 Br                                1.8747586 (max)
    17   6 C     18   8 O                                 1.2116439
    19   6 C     20   6 C                                 1.3663469
    20   6 C     21   6 C                                 1.4105875
    21   6 C     22   6 C                                 1.3892436
    22   6 C     23   6 C                                 1.3890756
    23   6 C     24   6 C                                 1.4123285
    24   6 C     25  16 S                                 1.6966406
    24   6 C     26   6 C                                 1.4165342
    26   6 C     27   6 C                                 1.4060349
    28   6 C     29   6 C                                 1.3628147
    30   6 C     31   7 N                                 1.1458685
    32   6 C     33   7 N                                 1.1464882
    27   6 C     34   6 C                                 1.3928055
    34   6 C     35   6 C                                 1.3856753
    26   6 C     36  16 S                                 1.7068000
    35   6 C     36  16 S                                 1.7551786
    35   6 C     37   6 C                                 1.4223963
    37   6 C     38   6 C                                 1.3890106
    39   6 C     40   7 N                                 1.1470306
    38   6 C     41   6 C                                 1.4226521
    41   6 C     42   6 C                                 1.3907165
    37   6 C     43  16 S                                 1.7520256
    42   6 C     43  16 S                                 1.7198772
    42   6 C     44  16 S                                 1.7329497
    44  16 S     45   6 C                                 1.7330631
    41   6 C     46   6 C                                 1.4264418
    45   6 C     46   6 C                                 1.3904668
    46   6 C     47   6 C                                 1.4229303
    48   6 C     49   7 N                                 1.1471289
    47   6 C     50   6 C                                 1.3891304
    45   6 C     51  16 S                                 1.7198296
    50   6 C     51  16 S                                 1.7525527
    50   6 C     52   6 C                                 1.4219970
    52   6 C     53   6 C                                 1.3857319
    53   6 C     54   6 C                                 1.3923323
    54   6 C     55   6 C                                 1.4065880
    52   6 C     56  16 S                                 1.7562037
    55   6 C     56  16 S                                 1.7060480
    55   6 C     57   6 C                                 1.4186560
    57   6 C     58   6 C                                 1.4092533
    58   6 C     59   6 C                                 1.4530039
    59   6 C     60   6 C                                 1.3635491
    61   6 C     62   7 N                                 1.1463407
    63   6 C     64   7 N                                 1.1465292
    58   6 C     65   6 C                                 1.3885339
    65   6 C     66   6 C                                 1.3879194
    57   6 C     67  16 S                                 1.6994498
    66   6 C     68   6 C                                 1.4123982
    68   6 C     69   6 C                                 1.3611528
    70   6 C     71   6 C                                 1.3708217
    72   6 C     73   7 N                                 1.1471865
    74   6 C     75   7 N                                 1.1481418
    76   6 C     77   6 C                                 1.4181364
    78   6 C     79   8 O                                 1.2085398
    77   6 C     80   6 C                                 1.3739976
    80   6 C     81   6 C                                 1.3988276
    81   6 C     82   6 C                                 1.4163911
    76   6 C     83   6 C                                 1.3814534
    82   6 C     83   6 C                                 1.3896527
    82   6 C     84  16 S                                 1.7362837
    84  16 S     85   6 C                                 1.7438001
    81   6 C     86   6 C                                 1.4215248
    85   6 C     86   6 C                                 1.3544935
    85   6 C     87  35 Br                                1.8746771
     9   6 C     88   1 H                                 1.0786660
    12   6 C     89   1 H                                 1.0771178
    15   6 C     90   1 H                                 1.0746495
    20   6 C     91   1 H                                 1.0841848
    22   6 C     92   1 H                                 1.0743509 (min)
    34   6 C     93   1 H                                 1.0755034
    53   6 C     94   1 H                                 1.0756294
    65   6 C     95   1 H                                 1.0745769
    68   6 C     96   1 H                                 1.0861231
    80   6 C     97   1 H                                 1.0786311
    83   6 C     98   1 H                                 1.0774752
    86   6 C     99   1 H                                 1.0746584

 * 6 distinct bonds (by element types)

   Z      Z             #   av. dist./Å        max./Å        min./Å
   1 H    6 C          12     1.0776305     1.0861231     1.0743509
   6 C    6 C          48     1.3965585     1.4530039     1.3544935
   6 C    7 N          10     1.1470791     1.1483793     1.1458685
   6 C    8 O           2     1.2100918     1.2116439     1.2085398
   6 C   16 S          16     1.7307177     1.7562037     1.6966406
   6 C   35 Br          2     1.8747178     1.8747586     1.8746771


optimized geometry written to: xtbopt.xyz


           -------------------------------------------------
          | TOTAL ENERGY             -217.462359460254 Eh   |
          | GRADIENT NORM               0.000599210167 Eh/α |
          | HOMO-LUMO GAP               0.955857969299 eV   |
           -------------------------------------------------

------------------------------------------------------------------------
 * finished run on 2021/05/14 at 11:48:38.704     
------------------------------------------------------------------------
 total:
 * wall-time:     0 d,  0 h,  0 min, 39.817 sec
 *  cpu-time:     0 d,  0 h,  7 min, 26.648 sec
 * ratio c/w:    11.217 speedup
 SCF:
 * wall-time:     0 d,  0 h,  0 min,  1.112 sec
 *  cpu-time:     0 d,  0 h,  0 min,  9.991 sec
 * ratio c/w:     8.988 speedup
 ANC optimizer:
 * wall-time:     0 d,  0 h,  0 min, 38.613 sec
 *  cpu-time:     0 d,  0 h,  7 min, 15.858 sec
 * ratio c/w:    11.288 speedup

