      -----------------------------------------------------------      
     |                   =====================                   |     
     |                           x T B                           |     
     |                   =====================                   |     
     |                         S. Grimme                         |     
     |          Mulliken Center for Theoretical Chemistry        |     
     |                    University of Bonn                     |     
     |                Version 6.2 RC2 (SAW190805)                |     
      -----------------------------------------------------------      

   This program is distributed in the hope that it will be useful,
   but WITHOUT ANY WARRANTY; without even the implied warranty of
   MERCHANTABILITY or FITNESS FOR A PARTICULAR PURPOSE.
   
   FOR NON-COMMERCIAL, ACADEMIA USE ONLY.
   
   Cite this work as:
   * S. Grimme, C. Bannwarth, P. Shushkov, J. Chem. Theory Comput., 2017,
     13, 1989-2009. DOI: 10.1021/acs.jctc.7b00118
   * C. Bannwarth, S. Ehlert and S. Grimme., J. Chem. Theory Comput., 2019,
     15, 1652-1671. DOI: 10.1021/acs.jctc.8b01176
   * P. Pracht, E. Caldeweyher, S. Ehlert, S. Grimme, ChemRxiv, 2019, preprint.
     DOI: 10.26434/chemrxiv.8326202.v1
   
   for DFT-D4:
   * E. Caldeweyher, C. Bannwarth and S. Grimme, J. Chem. Phys., 2017,
     147, 034112. DOI: 10.1063/1.4993215
   * E. Caldeweyher, S. Ehlert, A. Hansen, H. Neugebauer, S. Spicher,
     C. Bannwarth and S. Grimme, J. Chem. Phys., 2019, 150, 154122.
     DOI: 10.1063/1.5090222
   
   for sTDA-xTB:
   * S. Grimme and C. Bannwarth, J. Chem. Phys., 2016, 145, 054103.
     DOI: 10.1063/1.4959605
   
   in the mass-spec context:
   * V. Asgeirsson, C. Bauer and S. Grimme, Chem. Sci., 2017, 8, 4879.
     DOI: 10.1039/c7sc00601b
   
   for metadynamics refer to:
   * S. Grimme, J. Chem. Theory Comput., 2019, 155, 2847-2862
     DOI: 10.1021/acs.jctc.9b00143
   
   with help from (in alphabetical order)
   C. Bannwarth, F. Bohle, G. Brandenburg, E. Caldeweyher, M. Checinski,
   S. Dohm, S. Ehlert, S. Ehrlich, F. März, H. Neugebauer, J. Pisarek,
   P. Pracht, P. Shushkov, and S. Spicher.
   
 * started run on 2021/05/06 at 16:02:49.252     

           -------------------------------------------------
          |                Calculation Setup                |
           -------------------------------------------------

          program call               : /ihome/ghutchison/geoffh/xtb/xtb ../78_58_28_58_78.xyz --opt
          hostname                   : login1.crc.pitt.edu
          coordinate file            : ../78_58_28_58_78.xyz
          omp threads                :                    12
          number of atoms            :                   103
          number of electrons        :                   394
          charge                     :                     0
          spin                       :                   0.0
          first test random number   :      0.82515118417230


########################################################################
# WARNING! Please study the warnings concerning your input carefully
#  - XTBHOME is not set, using HOME instead
#  - XTBPATH is not set, using XTBHOME instead
########################################################################

           ------------------------------------------------- 
          |                 G F N 2 - x T B                 |
          | Geometry, Frequencies, Noncovalent interactions |
          |            JCTC 2019 parametrisation            |
           ------------------------------------------------- 
             k(s)              :                1.8500
             k(p)              :                2.2300
             k(d)              :                2.2300
             k(f)              :                2.0000
             kEN (H0ij)        :               -2.0000
             D4 a1             :                0.5200
             D4 a2             :                5.0000
             D4 s6             :                1.0000
             D4 s8             :                2.7000
             D4 s9             :                5.0000
             alphaj            :                2.0000

  Z AO/shell   Hii/eV     exponent
  1     Wed Apr 25 08:07:45 CEST 2018   EN: 2.200 GM2: 0.406  GM3: 0.0800  RAES: 1.40
     1s    -10.707211    1.230000
  6     Wed Apr 25 08:07:45 CEST 2018   EN: 2.550 GM2: 0.538  GM3: 0.1500  RAES: 3.00
     2s    -13.970922    2.096432
     2p    -10.063292    1.800000
  7     Wed Apr 25 08:07:45 CEST 2018   EN: 3.040 GM2: 0.461  GM3:-0.0640  RAES: 1.90
     2s    -16.686243    2.339881
     2p    -12.523956    2.014332
  8     Wed Apr 25 08:07:45 CEST 2018   EN: 3.440 GM2: 0.452  GM3:-0.0517  RAES: 1.80
     2s    -20.229985    2.439742
     2p    -15.503117    2.137023
  9     Mon Apr 23 13:58:50 CEST 2018   EN: 3.980 GM2: 0.532  GM3: 0.1426  RAES: 2.40
     2s    -23.458179    2.416361
     2p    -15.746583    2.308399
 16     Tue Apr 24 11:44:34 CEST 2018   EN: 2.580 GM2: 0.340  GM3:-0.0502  RAES: 3.10
     3s    -20.029654    1.981333
     3p    -11.377694    2.025643
     3d     -0.420282    1.702555

           ------------------------------------------------- 
          |        Self-Consistent Charge Iterations        |
           ------------------------------------------------- 

          ...................................................
          :                      SETUP                      :
          :.................................................:
          :  # basis functions                 382          :
          :  # atomic orbitals                 377          :
          :  # shells                          191          :
          :  # electrons                       394          :
          :  max. iterations                   250          :
          :  Hamiltonian                  GFN2-xTB          :
          :  restarted?                      false          :
          :  GBSA solvation                  false          :
          :  PC potential                    false          :
          :  electronic temp.          300.0000000     K    :
          :  accuracy                    1.0000000          :
          :  -> integral cutoff          0.2500000E+02      :
          :  -> integral neglect         0.1000000E-07      :
          :  -> SCF convergence          0.1000000E-05 Eh   :
          :  -> wf. convergence          0.1000000E-03 e    :
          :  Broyden damping             0.4000000          :
          ...................................................

 iter      E             dE          RMSdq      gap      omega  full diag
   1   -223.1554501 -0.223155E+03  0.517E+00    1.17       0.0  T
   2   -223.3126099 -0.157160E+00  0.343E+00    0.58       1.0  T
   3   -223.2291910  0.834189E-01  0.220E+00    0.78       1.0  T
   4   -223.4942845 -0.265094E+00  0.880E-01    0.67       1.0  T
   5   -223.5593389 -0.650544E-01  0.298E-01    0.62       1.0  T
   6   -223.5598537 -0.514818E-03  0.242E-01    0.63       1.0  T
   7   -223.5671127 -0.725900E-02  0.102E-01    0.65       1.0  T
   8   -223.5682767 -0.116395E-02  0.311E-02    0.64       1.0  T
   9   -223.5683057 -0.290698E-04  0.168E-02    0.64       1.0  T
  10   -223.5683188 -0.130490E-04  0.761E-03    0.64       1.3  T
  11   -223.5683220 -0.320880E-05  0.333E-03    0.64       3.0  T
  12   -223.5683223 -0.303603E-06  0.146E-03    0.64       6.8  T
  13   -223.5683224 -0.107390E-06  0.741E-04    0.64      13.3  T
  14   -223.5683224 -0.144716E-07  0.404E-04    0.64      24.4  T

   *** convergence criteria satisfied after 14 iterations ***

         #    Occupation            Energy/Eh            Energy/eV
      -------------------------------------------------------------
         1        2.0000           -0.8574113             -23.3314
       ...           ...                  ...                  ...
       191        2.0000           -0.4164794             -11.3330
       192        2.0000           -0.4142330             -11.2719
       193        2.0000           -0.4092069             -11.1351
       194        2.0000           -0.3956793             -10.7670
       195        2.0000           -0.3879399             -10.5564
       196        2.0000           -0.3876127             -10.5475
       197        2.0000           -0.3831975             -10.4273 (HOMO)
       198        0.0000           -0.3597753              -9.7900 (LUMO)
       199                         -0.3424677              -9.3190
       200                         -0.3399784              -9.2513
       201                         -0.3257548              -8.8642
       202                         -0.3256142              -8.8604
       ...                                ...                  ...
       377                          1.0804656              29.4010
      -------------------------------------------------------------
                  HL-Gap            0.0234223 Eh            0.6374 eV
             Fermi-level           -0.3714787 Eh          -10.1084 eV

 SCC (total)                   0 d,  0 h,  0 min,  0.372 sec
 SCC setup                      ...        0 min,  0.003 sec (  0.922%)
 Dispersion                     ...        0 min,  0.007 sec (  1.834%)
 integral evaluation            ...        0 min,  0.032 sec (  8.706%)
 zeroth order Hamiltonian       ...        0 min,  0.002 sec (  0.523%)
 iterations                     ...        0 min,  0.291 sec ( 78.193%)
 molecular gradient             ...        0 min,  0.026 sec (  7.027%)
 printout                       ...        0 min,  0.010 sec (  2.760%)

         :::::::::::::::::::::::::::::::::::::::::::::::::::::
         ::                     SUMMARY                     ::
         :::::::::::::::::::::::::::::::::::::::::::::::::::::
         :: total energy            -220.465503445870 Eh    ::
         :: gradient norm              0.232398878399 Eh/a0 ::
         :: HOMO-LUMO gap              0.637352934066 eV    ::
         ::.................................................::
         :: SCC energy              -223.568322429180 Eh    ::
         :: -> isotropic ES            0.179871276851 Eh    ::
         :: -> anisotropic ES          0.009210251851 Eh    ::
         :: -> anisotropic XC          0.115656957262 Eh    ::
         :: -> dispersion             -0.170180985501 Eh    ::
         :: repulsion energy           3.104633125115 Eh    ::
         :: add. restraining           0.000000000000 Eh    ::
         :::::::::::::::::::::::::::::::::::::::::::::::::::::

      ----------------------------------------------------------- 
     |                   =====================                   |
     |                        A N C O P T                        |
     |                   =====================                   |
     |               Approximate Normal Coordinate               |
     |                Rational Function Optimizer                |
      ----------------------------------------------------------- 

          ...................................................
          :                      SETUP                      :
          :.................................................:
          :   optimization level            normal          :
          :   max. optcycles                   309          :
          :   ANC micro-cycles                  20          :
          :   degrees of freedom               303          :
          :.................................................:
          :   RF solver                   davidson          :
          :   input Hessian                  false          :
          :   write xtbopt.log                true          :
          :   linear?                        false          :
          :   energy convergence         0.5000000E-05 Eh   :
          :   grad. convergence          0.1000000E-02 Eh/α :
          :   maximium RF displ.         1.0000000          :
          :   Hlow (freq-cutoff)         0.1000000E-01      :
          :   Hmax (freq-cutoff)         5.0000000          :
          :   S6 in model hess.         20.0000000          :
          ...................................................

generating ANC from model Hessian ...
Using Lindh-Hessian (1995)
 Shifting diagonal of input Hessian by   9.999211713316422E-003
 Lowest  eigenvalues of input Hessian
   -0.000000   -0.000000   -0.000000    0.000000    0.000000    0.000000
    0.010000    0.010014    0.010050    0.010084    0.010119    0.010146
    0.010202    0.010263    0.010291    0.010389    0.010739    0.010881
 Highest eigenvalues
    2.271592    2.280629    2.514757    2.517515    2.579277    2.582649
 

........................................................................
.............................. CYCLE    1 ..............................
........................................................................
   1   -223.5683224 -0.223568E+03  0.205E-04    0.64       0.0  T
   2   -223.5683224  0.762697E-09  0.184E-04    0.64      53.7  T
   3   -223.5683224 -0.280482E-08  0.926E-05    0.64     106.4  T
     SCC iter.                  ...        0 min,  0.066 sec
     gradient                   ...        0 min,  0.025 sec
 * total energy  :  -220.4655034 Eh     change        0.1431039E-07 Eh
   gradient norm :     0.2323995 Eh/α   predicted     0.0000000E+00 (-100.00%)
   displ. norm   :     0.4541871 α      lambda       -0.6466217E-01
   maximum displ.:     0.0993820 α      in ANC's #30, #56, #99, ...

........................................................................
.............................. CYCLE    2 ..............................
........................................................................
   1   -223.6679992 -0.223668E+03  0.351E-01    0.71       0.0  T
   2   -223.6687292 -0.730009E-03  0.188E-01    0.67       1.0  T
   3   -223.6682170  0.512188E-03  0.955E-02    0.70       1.0  T
   4   -223.6689439 -0.726930E-03  0.390E-02    0.67       1.0  T
   5   -223.6689675 -0.235857E-04  0.296E-02    0.67       1.0  T
   6   -223.6690642 -0.966693E-04  0.122E-02    0.68       1.0  T
   7   -223.6690807 -0.165134E-04  0.427E-03    0.68       2.3  T
   8   -223.6690825 -0.185345E-05  0.169E-03    0.68       5.8  T
   9   -223.6690826 -0.578538E-07  0.999E-04    0.68       9.9  T
     SCC iter.                  ...        0 min,  0.188 sec
     gradient                   ...        0 min,  0.024 sec
 * total energy  :  -220.5129171 Eh     change       -0.4741369E-01 Eh
   gradient norm :     0.1092056 Eh/α   predicted    -0.3900069E-01 ( -17.74%)
   displ. norm   :     0.5415995 α      lambda       -0.3164552E-01
   maximum displ.:     0.1783389 α      in ANC's #30, #28, #56, ...

........................................................................
.............................. CYCLE    3 ..............................
........................................................................
   1   -223.7198440 -0.223720E+03  0.357E-01    0.74       0.0  T
   2   -223.7204314 -0.587398E-03  0.181E-01    0.71       1.0  T
   3   -223.7199943  0.437036E-03  0.865E-02    0.72       1.0  T
   4   -223.7205885 -0.594187E-03  0.339E-02    0.71       1.0  T
   5   -223.7205968 -0.824119E-05  0.252E-02    0.71       1.0  T
   6   -223.7206597 -0.629341E-04  0.109E-02    0.71       1.0  T
   7   -223.7206723 -0.125641E-04  0.458E-03    0.71       2.1  T
   8   -223.7206743 -0.204168E-05  0.182E-03    0.71       5.4  T
   9   -223.7206744 -0.123042E-06  0.106E-03    0.71       9.3  T
     SCC iter.                  ...        0 min,  0.223 sec
     gradient                   ...        0 min,  0.035 sec
 * total energy  :  -220.5341082 Eh     change       -0.2119103E-01 Eh
   gradient norm :     0.0354213 Eh/α   predicted    -0.2046407E-01 (  -3.43%)
   displ. norm   :     0.6048406 α      lambda       -0.1203965E-01
   maximum displ.:     0.2631054 α      in ANC's #30, #28, #38, ...

........................................................................
.............................. CYCLE    4 ..............................
........................................................................
   1   -223.7490618 -0.223749E+03  0.326E-01    0.71       0.0  T
   2   -223.7492776 -0.215768E-03  0.158E-01    0.71       1.0  T
   3   -223.7486980  0.579591E-03  0.757E-02    0.70       1.0  T
   4   -223.7493653 -0.667260E-03  0.284E-02    0.71       1.0  T
   5   -223.7493843 -0.190335E-04  0.194E-02    0.71       1.0  T
   6   -223.7494110 -0.267068E-04  0.949E-03    0.71       1.0  T
   7   -223.7494235 -0.124989E-04  0.309E-03    0.71       3.2  T
   8   -223.7494243 -0.794570E-06  0.133E-03    0.71       7.4  T
   9   -223.7494244 -0.407788E-07  0.807E-04    0.71      12.2  T
     SCC iter.                  ...        0 min,  0.293 sec
     gradient                   ...        0 min,  0.024 sec
 * total energy  :  -220.5436352 Eh     change       -0.9527091E-02 Eh
   gradient norm :     0.0273950 Eh/α   predicted    -0.8222108E-02 ( -13.70%)
   displ. norm   :     0.7217477 α      lambda       -0.9761255E-02
   maximum displ.:     0.3002588 α      in ANC's #30, #28, #38, ...

........................................................................
.............................. CYCLE    5 ..............................
........................................................................
   1   -223.7614243 -0.223761E+03  0.352E-01    0.69       0.0  T
   2   -223.7616185 -0.194218E-03  0.180E-01    0.69       1.0  T
   3   -223.7602718  0.134671E-02  0.109E-01    0.67       1.0  T
   4   -223.7618445 -0.157264E-02  0.297E-02    0.68       1.0  T
   5   -223.7618661 -0.215907E-04  0.191E-02    0.68       1.0  T
   6   -223.7618818 -0.157607E-04  0.102E-02    0.68       1.0  T
   7   -223.7618977 -0.159158E-04  0.341E-03    0.68       2.9  T
   8   -223.7618988 -0.101799E-05  0.153E-03    0.68       6.4  T
   9   -223.7618988 -0.553215E-07  0.873E-04    0.68      11.3  T
     SCC iter.                  ...        0 min,  0.227 sec
     gradient                   ...        0 min,  0.024 sec
 * total energy  :  -220.5502134 Eh     change       -0.6578111E-02 Eh
   gradient norm :     0.0302917 Eh/α   predicted    -0.7423116E-02 (  12.85%)
   displ. norm   :     0.7428675 α      lambda       -0.9576083E-02
   maximum displ.:     0.3322796 α      in ANC's #30, #28, #38, ...

........................................................................
.............................. CYCLE    6 ..............................
........................................................................
   1   -223.7729191 -0.223773E+03  0.360E-01    0.66       0.0  T
   2   -223.7731110 -0.191956E-03  0.191E-01    0.66       1.0  T
   3   -223.7716171  0.149396E-02  0.111E-01    0.64       1.0  T
   4   -223.7733502 -0.173312E-02  0.276E-02    0.65       1.0  T
   5   -223.7733830 -0.328671E-04  0.156E-02    0.66       1.0  T
   6   -223.7733953 -0.122223E-04  0.484E-03    0.65       2.0  T
   7   -223.7733974 -0.211915E-05  0.242E-03    0.66       4.1  T
   8   -223.7733975 -0.167833E-06  0.161E-03    0.65       6.1  T
     SCC iter.                  ...        0 min,  0.226 sec
     gradient                   ...        0 min,  0.024 sec
 * total energy  :  -220.5547742 Eh     change       -0.4560834E-02 Eh
   gradient norm :     0.0305955 Eh/α   predicted    -0.7430341E-02 (  62.92%)
   displ. norm   :     0.5090785 α      lambda       -0.4743141E-02
   maximum displ.:     0.1900049 α      in ANC's #28, #30, #10, ...

........................................................................
.............................. CYCLE    7 ..............................
........................................................................
   1   -223.7871411 -0.223787E+03  0.203E-01    0.65       0.0  T
   2   -223.7871943 -0.532029E-04  0.107E-01    0.65       1.0  T
   3   -223.7867781  0.416262E-03  0.594E-02    0.64       1.0  T
   4   -223.7872432 -0.465096E-03  0.167E-02    0.65       1.0  T
   5   -223.7872493 -0.609990E-05  0.118E-02    0.65       1.0  T
   6   -223.7872602 -0.109609E-04  0.603E-03    0.65       1.6  T
   7   -223.7872656 -0.534925E-05  0.165E-03    0.65       6.0  T
   8   -223.7872658 -0.195855E-06  0.873E-04    0.65      11.3  T
     SCC iter.                  ...        0 min,  0.160 sec
     gradient                   ...        0 min,  0.024 sec
 * total energy  :  -220.5583436 Eh     change       -0.3569393E-02 Eh
   gradient norm :     0.0308941 Eh/α   predicted    -0.2986193E-02 ( -16.34%)
   displ. norm   :     0.6509060 α      lambda       -0.4879541E-02
   maximum displ.:     0.2473643 α      in ANC's #10, #18, #30, ...

........................................................................
.............................. CYCLE    8 ..............................
........................................................................
   1   -223.7855950 -0.223786E+03  0.253E-01    0.64       0.0  T
   2   -223.7856462 -0.512005E-04  0.136E-01    0.64       1.0  T
   3   -223.7846202  0.102595E-02  0.894E-02    0.64       1.0  T
   4   -223.7857161 -0.109592E-02  0.215E-02    0.64       1.0  T
   5   -223.7857214 -0.523716E-05  0.170E-02    0.64       1.0  T
   6   -223.7857576 -0.362487E-04  0.575E-03    0.64       1.7  T
   7   -223.7857612 -0.358120E-05  0.190E-03    0.64       5.2  T
   8   -223.7857613 -0.144743E-06  0.956E-04    0.64      10.3  T
     SCC iter.                  ...        0 min,  0.160 sec
     gradient                   ...        0 min,  0.024 sec
 * total energy  :  -220.5615301 Eh     change       -0.3186495E-02 Eh
   gradient norm :     0.0226038 Eh/α   predicted    -0.3473454E-02 (   9.01%)
   displ. norm   :     0.6305683 α      lambda       -0.3249289E-02
   maximum displ.:     0.2547106 α      in ANC's #10, #30, #18, ...

........................................................................
.............................. CYCLE    9 ..............................
........................................................................
   1   -223.7901104 -0.223790E+03  0.221E-01    0.63       0.0  T
   2   -223.7901646 -0.541994E-04  0.116E-01    0.63       1.0  T
   3   -223.7897295  0.435017E-03  0.596E-02    0.63       1.0  T
   4   -223.7901823 -0.452732E-03  0.208E-02    0.63       1.0  T
   5   -223.7901921 -0.979831E-05  0.154E-02    0.63       1.0  T
   6   -223.7902202 -0.280954E-04  0.546E-03    0.63       1.8  T
   7   -223.7902239 -0.373252E-05  0.181E-03    0.63       5.4  T
   8   -223.7902241 -0.211859E-06  0.930E-04    0.63      10.6  T
     SCC iter.                  ...        0 min,  0.161 sec
     gradient                   ...        0 min,  0.024 sec
 * total energy  :  -220.5639233 Eh     change       -0.2393207E-02 Eh
   gradient norm :     0.0222896 Eh/α   predicted    -0.2270633E-02 (  -5.12%)
   displ. norm   :     0.6772512 α      lambda       -0.2861892E-02
   maximum displ.:     0.2932375 α      in ANC's #10, #18, #16, ...

........................................................................
.............................. CYCLE   10 ..............................
........................................................................
   1   -223.7896047 -0.223790E+03  0.239E-01    0.62       0.0  T
   2   -223.7896594 -0.546721E-04  0.125E-01    0.62       1.0  T
   3   -223.7890457  0.613710E-03  0.686E-02    0.62       1.0  T
   4   -223.7896823 -0.636608E-03  0.222E-02    0.62       1.0  T
   5   -223.7896912 -0.886547E-05  0.167E-02    0.62       1.0  T
   6   -223.7897267 -0.355575E-04  0.510E-03    0.62       1.9  T
   7   -223.7897296 -0.287838E-05  0.194E-03    0.62       5.1  T
   8   -223.7897298 -0.229186E-06  0.954E-04    0.62      10.3  T
     SCC iter.                  ...        0 min,  0.160 sec
     gradient                   ...        0 min,  0.029 sec
 * total energy  :  -220.5659719 Eh     change       -0.2048645E-02 Eh
   gradient norm :     0.0196449 Eh/α   predicted    -0.2087288E-02 (   1.89%)
   displ. norm   :     0.6603530 α      lambda       -0.2165017E-02
   maximum displ.:     0.3320690 α      in ANC's #10, #18, #8, ...

........................................................................
.............................. CYCLE   11 ..............................
........................................................................
   1   -223.7922077 -0.223792E+03  0.206E-01    0.62       0.0  T
   2   -223.7922497 -0.420136E-04  0.109E-01    0.62       1.0  T
   3   -223.7919261  0.323593E-03  0.511E-02    0.62       1.0  T
   4   -223.7922489 -0.322795E-03  0.195E-02    0.62       1.0  T
   5   -223.7922631 -0.141544E-04  0.137E-02    0.62       1.0  T
   6   -223.7922870 -0.239233E-04  0.398E-03    0.62       2.5  T
   7   -223.7922888 -0.180124E-05  0.158E-03    0.62       6.2  T
   8   -223.7922889 -0.103008E-06  0.884E-04    0.62      11.1  T
     SCC iter.                  ...        0 min,  0.162 sec
     gradient                   ...        0 min,  0.025 sec
 * total energy  :  -220.5675934 Eh     change       -0.1621444E-02 Eh
   gradient norm :     0.0211921 Eh/α   predicted    -0.1554559E-02 (  -4.12%)
   displ. norm   :     0.6669635 α      lambda       -0.1982772E-02
   maximum displ.:     0.3499167 α      in ANC's #10, #8, #18, ...

........................................................................
.............................. CYCLE   12 ..............................
........................................................................
   1   -223.7904193 -0.223790E+03  0.195E-01    0.62       0.0  T
   2   -223.7904569 -0.376664E-04  0.105E-01    0.62       1.0  T
   3   -223.7901052  0.351728E-03  0.516E-02    0.62       1.0  T
   4   -223.7904567 -0.351438E-03  0.181E-02    0.62       1.0  T
   5   -223.7904782 -0.215617E-04  0.113E-02    0.62       1.0  T
   6   -223.7904922 -0.139555E-04  0.324E-03    0.62       3.0  T
   7   -223.7904931 -0.902319E-06  0.165E-03    0.62       6.0  T
   8   -223.7904932 -0.152642E-06  0.837E-04    0.62      11.8  T
     SCC iter.                  ...        0 min,  0.161 sec
     gradient                   ...        0 min,  0.024 sec
 * total energy  :  -220.5689232 Eh     change       -0.1329841E-02 Eh
   gradient norm :     0.0177860 Eh/α   predicted    -0.1432396E-02 (   7.71%)
   displ. norm   :     0.5935188 α      lambda       -0.1487543E-02
   maximum displ.:     0.3230523 α      in ANC's #10, #8, #7, ...

........................................................................
.............................. CYCLE   13 ..............................
........................................................................
   1   -223.7910500 -0.223791E+03  0.145E-01    0.63       0.0  T
   2   -223.7910649 -0.149059E-04  0.789E-02    0.63       1.0  T
   3   -223.7906926  0.372268E-03  0.503E-02    0.62       1.0  T
   4   -223.7910748 -0.382243E-03  0.150E-02    0.62       1.0  T
   5   -223.7910872 -0.123788E-04  0.988E-03    0.62       1.0  T
   6   -223.7910977 -0.105219E-04  0.299E-03    0.62       3.3  T
   7   -223.7910986 -0.853739E-06  0.129E-03    0.62       7.6  T
   8   -223.7910986 -0.590790E-07  0.727E-04    0.62      13.5  T
     SCC iter.                  ...        0 min,  0.166 sec
     gradient                   ...        0 min,  0.024 sec
 * total energy  :  -220.5699905 Eh     change       -0.1067330E-02 Eh
   gradient norm :     0.0190255 Eh/α   predicted    -0.1005770E-02 (  -5.77%)
   displ. norm   :     0.6102226 α      lambda       -0.1393516E-02
   maximum displ.:     0.3304282 α      in ANC's #10, #8, #7, ...

........................................................................
.............................. CYCLE   14 ..............................
........................................................................
   1   -223.7878637 -0.223788E+03  0.146E-01    0.63       0.0  T
   2   -223.7878857 -0.220427E-04  0.797E-02    0.63       1.0  T
   3   -223.7876763  0.209368E-03  0.407E-02    0.63       1.0  T
   4   -223.7878838 -0.207445E-03  0.149E-02    0.63       1.0  T
   5   -223.7878988 -0.150088E-04  0.970E-03    0.63       1.0  T
   6   -223.7879095 -0.107611E-04  0.305E-03    0.63       3.2  T
   7   -223.7879105 -0.936418E-06  0.135E-03    0.63       7.3  T
   8   -223.7879106 -0.907366E-07  0.726E-04    0.63      13.6  T
     SCC iter.                  ...        0 min,  0.161 sec
     gradient                   ...        0 min,  0.024 sec
 * total energy  :  -220.5709907 Eh     change       -0.1000112E-02 Eh
   gradient norm :     0.0170603 Eh/α   predicted    -0.9562167E-03 (  -4.39%)
   displ. norm   :     0.6198885 α      lambda       -0.1284967E-02
   maximum displ.:     0.3358636 α      in ANC's #10, #8, #7, ...

........................................................................
.............................. CYCLE   15 ..............................
........................................................................
   1   -223.7926584 -0.223793E+03  0.124E-01    0.63       0.0  T
   2   -223.7926767 -0.183351E-04  0.676E-02    0.63       1.0  T
   3   -223.7926434  0.333170E-04  0.215E-02    0.63       1.0  T
   4   -223.7926759 -0.324588E-04  0.108E-02    0.63       1.0  T
   5   -223.7926781 -0.224562E-05  0.742E-03    0.63       1.3  T
   6   -223.7926849 -0.674875E-05  0.256E-03    0.63       3.9  T
   7   -223.7926856 -0.783071E-06  0.118E-03    0.63       8.3  T
   8   -223.7926857 -0.971466E-07  0.625E-04    0.63      15.8  T
     SCC iter.                  ...        0 min,  0.160 sec
     gradient                   ...        0 min,  0.024 sec
 * total energy  :  -220.5719966 Eh     change       -0.1005956E-02 Eh
   gradient norm :     0.0175636 Eh/α   predicted    -0.8893788E-03 ( -11.59%)
   displ. norm   :     0.6789939 α      lambda       -0.1347456E-02
   maximum displ.:     0.3472210 α      in ANC's #10, #8, #7, ...

........................................................................
.............................. CYCLE   16 ..............................
........................................................................
   1   -223.7859414 -0.223786E+03  0.134E-01    0.64       0.0  T
   2   -223.7859575 -0.161446E-04  0.734E-02    0.64       1.0  T
   3   -223.7858668  0.906929E-04  0.280E-02    0.64       1.0  T
   4   -223.7859387 -0.718605E-04  0.152E-02    0.64       1.0  T
   5   -223.7859622 -0.234777E-04  0.752E-03    0.64       1.3  T
   6   -223.7859687 -0.656906E-05  0.211E-03    0.64       4.7  T
   7   -223.7859690 -0.279206E-06  0.108E-03    0.64       9.1  T
   8   -223.7859691 -0.566622E-07  0.626E-04    0.64      15.7  T
     SCC iter.                  ...        0 min,  0.161 sec
     gradient                   ...        0 min,  0.024 sec
 * total energy  :  -220.5731211 Eh     change       -0.1124498E-02 Eh
   gradient norm :     0.0136907 Eh/α   predicted    -0.9843353E-03 ( -12.46%)
   displ. norm   :     0.7250159 α      lambda       -0.1404520E-02
   maximum displ.:     0.3501548 α      in ANC's #10, #8, #7, ...

........................................................................
.............................. CYCLE   17 ..............................
........................................................................
   1   -223.7868057 -0.223787E+03  0.142E-01    0.64       0.0  T
   2   -223.7868188 -0.130303E-04  0.794E-02    0.64       1.0  T
   3   -223.7865565  0.262254E-03  0.440E-02    0.64       1.0  T
   4   -223.7868184 -0.261873E-03  0.140E-02    0.64       1.0  T
   5   -223.7868335 -0.150775E-04  0.809E-03    0.64       1.2  T
   6   -223.7868410 -0.752833E-05  0.294E-03    0.64       3.4  T
   7   -223.7868418 -0.847534E-06  0.113E-03    0.64       8.7  T
   8   -223.7868419 -0.629130E-07  0.653E-04    0.64      15.1  T
     SCC iter.                  ...        0 min,  0.160 sec
     gradient                   ...        0 min,  0.024 sec
 * total energy  :  -220.5742245 Eh     change       -0.1103366E-02 Eh
   gradient norm :     0.0142395 Eh/α   predicted    -0.1071388E-02 (  -2.90%)
   displ. norm   :     0.7300208 α      lambda       -0.1272211E-02
   maximum displ.:     0.3486576 α      in ANC's #10, #8, #7, ...

........................................................................
.............................. CYCLE   18 ..............................
........................................................................
   1   -223.7811985 -0.223781E+03  0.150E-01    0.64       0.0  T
   2   -223.7812122 -0.137044E-04  0.813E-02    0.64       1.0  T
   3   -223.7809321  0.280095E-03  0.436E-02    0.64       1.0  T
   4   -223.7812132 -0.281071E-03  0.149E-02    0.64       1.0  T
   5   -223.7812299 -0.167319E-04  0.802E-03    0.64       1.2  T
   6   -223.7812354 -0.548109E-05  0.194E-03    0.64       5.1  T
   7   -223.7812357 -0.282519E-06  0.105E-03    0.64       9.4  T
   8   -223.7812357 -0.438036E-07  0.611E-04    0.64      16.1  T
     SCC iter.                  ...        0 min,  0.161 sec
     gradient                   ...        0 min,  0.024 sec
 * total energy  :  -220.5752255 Eh     change       -0.1001071E-02 Eh
   gradient norm :     0.0115222 Eh/α   predicted    -0.9751241E-03 (  -2.59%)
   displ. norm   :     0.7118630 α      lambda       -0.9900723E-03
   maximum displ.:     0.3486037 α      in ANC's #10, #8, #7, ...

........................................................................
.............................. CYCLE   19 ..............................
........................................................................
   1   -223.7797659 -0.223780E+03  0.135E-01    0.64       0.0  T
   2   -223.7797809 -0.149897E-04  0.735E-02    0.64       1.0  T
   3   -223.7797514  0.294823E-04  0.191E-02    0.64       1.0  T
   4   -223.7797770 -0.255478E-04  0.110E-02    0.64       1.0  T
   5   -223.7797801 -0.313249E-05  0.758E-03    0.64       1.3  T
   6   -223.7797883 -0.822454E-05  0.217E-03    0.64       4.5  T
   7   -223.7797888 -0.471921E-06  0.964E-04    0.64      10.2  T
   8   -223.7797888 -0.254385E-07  0.567E-04    0.64      17.4  T
     SCC iter.                  ...        0 min,  0.161 sec
     gradient                   ...        0 min,  0.024 sec
 * total energy  :  -220.5760749 Eh     change       -0.8493487E-03 Eh
   gradient norm :     0.0100372 Eh/α   predicted    -0.7458958E-03 ( -12.18%)
   displ. norm   :     0.6927267 α      lambda       -0.9539605E-03
   maximum displ.:     0.3273337 α      in ANC's #7, #10, #8, ...

........................................................................
.............................. CYCLE   20 ..............................
........................................................................
   1   -223.7848509 -0.223785E+03  0.137E-01    0.64       0.0  T
   2   -223.7848709 -0.200269E-04  0.738E-02    0.64       1.0  T
   3   -223.7848069  0.640707E-04  0.253E-02    0.64       1.0  T
   4   -223.7848754 -0.685432E-04  0.109E-02    0.64       1.0  T
   5   -223.7848809 -0.546630E-05  0.567E-03    0.64       1.7  T
   6   -223.7848836 -0.271379E-05  0.185E-03    0.64       5.3  T
   7   -223.7848837 -0.121391E-06  0.125E-03    0.64       7.9  T
     SCC iter.                  ...        0 min,  0.151 sec
     gradient                   ...        0 min,  0.028 sec
 * total energy  :  -220.5768437 Eh     change       -0.7687790E-03 Eh
   gradient norm :     0.0086356 Eh/α   predicted    -0.7058674E-03 (  -8.18%)
   displ. norm   :     0.7255799 α      lambda       -0.8387906E-03
   maximum displ.:     0.3427953 α      in ANC's #7, #10, #8, ...
 * RMSD in coord.:     0.9781537 α      energy gain  -0.1113402E+00 Eh

generating ANC from model Hessian ...
Using Lindh-Hessian (1995)
 Shifting diagonal of input Hessian by   1.000711390734387E-002
 Lowest  eigenvalues of input Hessian
    0.010000   -0.000000   -0.000000    0.000000    0.000000    0.000000
    0.000000    0.010013    0.010038    0.010110    0.010138    0.010152
    0.010311    0.010353    0.010452    0.010684    0.010806    0.010957
 Highest eigenvalues
    2.288169    2.365481    2.603375    2.610324    2.646040    2.653601
 

........................................................................
.............................. CYCLE   21 ..............................
........................................................................
   1   -223.7821693 -0.223782E+03  0.144E-01    0.64       0.0  T
   2   -223.7821868 -0.174536E-04  0.783E-02    0.64       1.0  T
   3   -223.7820121  0.174703E-03  0.363E-02    0.64       1.0  T
   4   -223.7821856 -0.173520E-03  0.140E-02    0.64       1.0  T
   5   -223.7821930 -0.736896E-05  0.945E-03    0.64       1.0  T
   6   -223.7822047 -0.117029E-04  0.289E-03    0.64       3.4  T
   7   -223.7822055 -0.845974E-06  0.119E-03    0.64       8.3  T
   8   -223.7822056 -0.597884E-07  0.655E-04    0.64      15.0  T
   9   -223.7822056 -0.103392E-07  0.309E-04    0.64      31.9  T
     SCC iter.                  ...        0 min,  0.181 sec
     gradient                   ...        0 min,  0.025 sec
 * total energy  :  -220.5774504 Eh     change       -0.6067111E-03 Eh
   gradient norm :     0.0105402 Eh/α   predicted     0.0000000E+00 (-100.00%)
   displ. norm   :     0.1069349 α      lambda       -0.3099692E-03
   maximum displ.:     0.0634964 α      in ANC's #8, #16, #19, ...

........................................................................
.............................. CYCLE   22 ..............................
........................................................................
   1   -223.7848419 -0.223785E+03  0.491E-02    0.64       0.0  T
   2   -223.7848462 -0.423710E-05  0.255E-02    0.64       1.0  T
   3   -223.7848393  0.689264E-05  0.881E-03    0.64       1.1  T
   4   -223.7848447 -0.540330E-05  0.518E-03    0.64       1.9  T
   5   -223.7848469 -0.220310E-05  0.287E-03    0.64       3.4  T
   6   -223.7848479 -0.101919E-05  0.759E-04    0.64      13.0  T
     SCC iter.                  ...        0 min,  0.134 sec
     gradient                   ...        0 min,  0.024 sec
 * total energy  :  -220.5776652 Eh     change       -0.2148116E-03 Eh
   gradient norm :     0.0045699 Eh/α   predicted    -0.1567940E-03 ( -27.01%)
   displ. norm   :     0.2702050 α      lambda       -0.4894114E-03
   maximum displ.:     0.1537379 α      in ANC's #8, #16, #9, ...

........................................................................
.............................. CYCLE   23 ..............................
........................................................................
   1   -223.7889381 -0.223789E+03  0.113E-01    0.64       0.0  T
   2   -223.7889588 -0.206886E-04  0.588E-02    0.64       1.0  T
   3   -223.7889293  0.295102E-04  0.195E-02    0.64       1.0  T
   4   -223.7889541 -0.248403E-04  0.111E-02    0.64       1.0  T
   5   -223.7889605 -0.636396E-05  0.706E-03    0.64       1.4  T
   6   -223.7889673 -0.684942E-05  0.185E-03    0.64       5.3  T
   7   -223.7889677 -0.352664E-06  0.818E-04    0.64      12.1  T
   8   -223.7889677 -0.326910E-07  0.438E-04    0.64      22.5  T
     SCC iter.                  ...        0 min,  0.210 sec
     gradient                   ...        0 min,  0.027 sec
 * total energy  :  -220.5777843 Eh     change       -0.1191100E-03 Eh
   gradient norm :     0.0110783 Eh/α   predicted    -0.2625724E-03 ( 120.45%)
   displ. norm   :     0.1887033 α      lambda       -0.4371528E-03
   maximum displ.:     0.1158826 α      in ANC's #8, #19, #16, ...

........................................................................
.............................. CYCLE   24 ..............................
........................................................................
   1   -223.7884223 -0.223788E+03  0.865E-02    0.64       0.0  T
   2   -223.7884321 -0.981678E-05  0.466E-02    0.64       1.0  T
   3   -223.7884272  0.491754E-05  0.954E-03    0.64       1.0  T
   4   -223.7884332 -0.599936E-05  0.567E-03    0.64       1.7  T
   5   -223.7884349 -0.172204E-05  0.310E-03    0.64       3.2  T
   6   -223.7884362 -0.132889E-05  0.105E-03    0.64       9.4  T
   7   -223.7884364 -0.130565E-06  0.504E-04    0.64      19.6  T
     SCC iter.                  ...        0 min,  0.177 sec
     gradient                   ...        0 min,  0.024 sec
 * total energy  :  -220.5779871 Eh     change       -0.2027592E-03 Eh
   gradient norm :     0.0100019 Eh/α   predicted    -0.2263678E-03 (  11.64%)
   displ. norm   :     0.2759041 α      lambda       -0.6882756E-03
   maximum displ.:     0.1479254 α      in ANC's #8, #9, #16, ...

........................................................................
.............................. CYCLE   25 ..............................
........................................................................
   1   -223.7848220 -0.223785E+03  0.128E-01    0.64       0.0  T
   2   -223.7848427 -0.207409E-04  0.696E-02    0.64       1.0  T
   3   -223.7847936  0.490713E-04  0.223E-02    0.64       1.0  T
   4   -223.7848524 -0.587893E-04  0.672E-03    0.64       1.5  T
   5   -223.7848543 -0.184885E-05  0.301E-03    0.64       3.3  T
   6   -223.7848549 -0.612789E-06  0.108E-03    0.64       9.2  T
   7   -223.7848550 -0.719428E-07  0.581E-04    0.64      17.0  T
     SCC iter.                  ...        0 min,  0.144 sec
     gradient                   ...        0 min,  0.024 sec
 * total energy  :  -220.5780593 Eh     change       -0.7227821E-04 Eh
   gradient norm :     0.0103735 Eh/α   predicted    -0.3703348E-03 ( 412.37%)
   displ. norm   :     0.1327008 α      lambda       -0.5208022E-03
   maximum displ.:     0.0771822 α      in ANC's #8, #16, #9, ...

........................................................................
.............................. CYCLE   26 ..............................
........................................................................
   1   -223.7872418 -0.223787E+03  0.712E-02    0.64       0.0  T
   2   -223.7872478 -0.592379E-05  0.388E-02    0.64       1.0  T
   3   -223.7872399  0.787915E-05  0.105E-02    0.64       1.0  T
   4   -223.7872506 -0.106975E-04  0.290E-03    0.64       3.4  T
   5   -223.7872507 -0.997970E-07  0.153E-03    0.64       6.5  T
   6   -223.7872510 -0.293954E-06  0.548E-04    0.64      18.0  T
     SCC iter.                  ...        0 min,  0.153 sec
     gradient                   ...        0 min,  0.024 sec
 * total energy  :  -220.5784038 Eh     change       -0.3444964E-03 Eh
   gradient norm :     0.0056879 Eh/α   predicted    -0.2649910E-03 ( -23.08%)
   displ. norm   :     0.2831068 α      lambda       -0.3308662E-03
   maximum displ.:     0.1839545 α      in ANC's #8, #9, #16, ...

........................................................................
.............................. CYCLE   27 ..............................
........................................................................
   1   -223.7874146 -0.223787E+03  0.850E-02    0.64       0.0  T
   2   -223.7874229 -0.823159E-05  0.454E-02    0.64       1.0  T
   3   -223.7874213  0.156819E-05  0.891E-03    0.64       1.1  T
   4   -223.7874215 -0.199126E-06  0.639E-03    0.64       1.5  T
   5   -223.7874251 -0.360108E-05  0.238E-03    0.64       4.1  T
   6   -223.7874257 -0.619259E-06  0.826E-04    0.64      11.9  T
   7   -223.7874258 -0.326969E-07  0.575E-04    0.64      17.1  T
     SCC iter.                  ...        0 min,  0.200 sec
     gradient                   ...        0 min,  0.024 sec
 * total energy  :  -220.5785996 Eh     change       -0.1957809E-03 Eh
   gradient norm :     0.0062200 Eh/α   predicted    -0.1786945E-03 (  -8.73%)
   displ. norm   :     0.3846283 α      lambda       -0.3481515E-03
   maximum displ.:     0.2504279 α      in ANC's #8, #9, #16, ...

........................................................................
.............................. CYCLE   28 ..............................
........................................................................
   1   -223.7848924 -0.223785E+03  0.111E-01    0.64       0.0  T
   2   -223.7849065 -0.140672E-04  0.592E-02    0.64       1.0  T
   3   -223.7848997  0.678514E-05  0.129E-02    0.64       1.0  T
   4   -223.7849043 -0.460258E-05  0.869E-03    0.64       1.1  T
   5   -223.7849088 -0.451622E-05  0.459E-03    0.64       2.1  T
   6   -223.7849116 -0.273369E-05  0.135E-03    0.64       7.3  T
   7   -223.7849118 -0.196613E-06  0.712E-04    0.64      13.8  T
     SCC iter.                  ...        0 min,  0.142 sec
     gradient                   ...        0 min,  0.024 sec
 * total energy  :  -220.5788323 Eh     change       -0.2327170E-03 Eh
   gradient norm :     0.0080000 Eh/α   predicted    -0.1998285E-03 ( -14.13%)
   displ. norm   :     0.3480052 α      lambda       -0.3058528E-03
   maximum displ.:     0.2394602 α      in ANC's #8, #9, #16, ...

........................................................................
.............................. CYCLE   29 ..............................
........................................................................
   1   -223.7864686 -0.223786E+03  0.912E-02    0.64       0.0  T
   2   -223.7864775 -0.894957E-05  0.482E-02    0.64       1.0  T
   3   -223.7864733  0.419213E-05  0.108E-02    0.64       1.0  T
   4   -223.7864769 -0.356701E-05  0.685E-03    0.64       1.4  T
   5   -223.7864799 -0.299133E-05  0.287E-03    0.64       3.4  T
   6   -223.7864808 -0.901897E-06  0.732E-04    0.64      13.5  T
     SCC iter.                  ...        0 min,  0.123 sec
     gradient                   ...        0 min,  0.024 sec
 * total energy  :  -220.5790823 Eh     change       -0.2499753E-03 Eh
   gradient norm :     0.0059438 Eh/α   predicted    -0.1714475E-03 ( -31.41%)
   displ. norm   :     0.4545242 α      lambda       -0.3416029E-03
   maximum displ.:     0.3215622 α      in ANC's #8, #9, #10, ...

........................................................................
.............................. CYCLE   30 ..............................
........................................................................
   1   -223.7882142 -0.223788E+03  0.112E-01    0.64       0.0  T
   2   -223.7882264 -0.122203E-04  0.594E-02    0.64       1.0  T
   3   -223.7882215  0.490618E-05  0.130E-02    0.64       1.0  T
   4   -223.7882240 -0.248667E-05  0.894E-03    0.64       1.1  T
   5   -223.7882297 -0.570065E-05  0.309E-03    0.64       3.2  T
   6   -223.7882308 -0.103772E-05  0.823E-04    0.64      12.0  T
   7   -223.7882308 -0.133296E-07  0.551E-04    0.64      17.9  T
     SCC iter.                  ...        0 min,  0.142 sec
     gradient                   ...        0 min,  0.024 sec
 * total energy  :  -220.5793482 Eh     change       -0.2659122E-03 Eh
   gradient norm :     0.0048334 Eh/α   predicted    -0.2060915E-03 ( -22.50%)
   displ. norm   :     0.4751718 α      lambda       -0.2615458E-03
   maximum displ.:     0.3380351 α      in ANC's #8, #9, #10, ...

........................................................................
.............................. CYCLE   31 ..............................
........................................................................
   1   -223.7850560 -0.223785E+03  0.118E-01    0.64       0.0  T
   2   -223.7850692 -0.131518E-04  0.630E-02    0.64       1.0  T
   3   -223.7850654  0.378027E-05  0.129E-02    0.64       1.0  T
   4   -223.7850675 -0.215553E-05  0.892E-03    0.64       1.1  T
   5   -223.7850729 -0.539673E-05  0.283E-03    0.64       3.5  T
   6   -223.7850738 -0.910851E-06  0.867E-04    0.64      11.4  T
   7   -223.7850739 -0.860643E-08  0.573E-04    0.64      17.2  T
     SCC iter.                  ...        0 min,  0.151 sec
     gradient                   ...        0 min,  0.028 sec
 * total energy  :  -220.5795274 Eh     change       -0.1791532E-03 Eh
   gradient norm :     0.0070471 Eh/α   predicted    -0.1603009E-03 ( -10.52%)
   displ. norm   :     0.3588330 α      lambda       -0.2242215E-03
   maximum displ.:     0.2673049 α      in ANC's #8, #9, #10, ...

........................................................................
.............................. CYCLE   32 ..............................
........................................................................
   1   -223.7872957 -0.223787E+03  0.832E-02    0.64       0.0  T
   2   -223.7873019 -0.621449E-05  0.452E-02    0.64       1.0  T
   3   -223.7872967  0.526236E-05  0.102E-02    0.64       1.0  T
   4   -223.7873002 -0.358505E-05  0.651E-03    0.64       1.5  T
   5   -223.7873017 -0.142533E-05  0.416E-03    0.64       2.4  T
   6   -223.7873043 -0.262595E-05  0.119E-03    0.64       8.3  T
   7   -223.7873045 -0.160198E-06  0.487E-04    0.64      20.2  T
     SCC iter.                  ...        0 min,  0.143 sec
     gradient                   ...        0 min,  0.024 sec
 * total energy  :  -220.5796781 Eh     change       -0.1507518E-03 Eh
   gradient norm :     0.0039824 Eh/α   predicted    -0.1265478E-03 ( -16.06%)
   displ. norm   :     0.3949603 α      lambda       -0.1654813E-03
   maximum displ.:     0.2866582 α      in ANC's #8, #9, #5, ...

........................................................................
.............................. CYCLE   33 ..............................
........................................................................
   1   -223.7857420 -0.223786E+03  0.889E-02    0.64       0.0  T
   2   -223.7857485 -0.653571E-05  0.490E-02    0.64       1.0  T
   3   -223.7857477  0.832186E-06  0.874E-03    0.64       1.1  T
   4   -223.7857482 -0.536515E-06  0.561E-03    0.64       1.8  T
   5   -223.7857506 -0.235654E-05  0.150E-03    0.64       6.6  T
   6   -223.7857507 -0.182547E-06  0.678E-04    0.64      14.5  T
   7   -223.7857508 -0.185171E-07  0.362E-04    0.64      27.3  T
     SCC iter.                  ...        0 min,  0.141 sec
     gradient                   ...        0 min,  0.025 sec
 * total energy  :  -220.5797548 Eh     change       -0.7664991E-04 Eh
   gradient norm :     0.0075267 Eh/α   predicted    -0.9564891E-04 (  24.79%)
   displ. norm   :     0.1963649 α      lambda       -0.1468467E-03
   maximum displ.:     0.1510806 α      in ANC's #8, #9, #5, ...

........................................................................
.............................. CYCLE   34 ..............................
........................................................................
   1   -223.7865662 -0.223787E+03  0.458E-02    0.65       0.0  T
   2   -223.7865679 -0.166781E-05  0.259E-02    0.65       1.0  T
   3   -223.7865572  0.106896E-04  0.967E-03    0.65       1.0  T
   4   -223.7865688 -0.116189E-04  0.295E-03    0.65       3.3  T
   5   -223.7865689 -0.155830E-06  0.178E-03    0.65       5.5  T
   6   -223.7865692 -0.245023E-06  0.912E-04    0.65      10.8  T
     SCC iter.                  ...        0 min,  0.122 sec
     gradient                   ...        0 min,  0.024 sec
 * total energy  :  -220.5798526 Eh     change       -0.9786815E-04 Eh
   gradient norm :     0.0027123 Eh/α   predicted    -0.7626156E-04 ( -22.08%)
   displ. norm   :     0.2215454 α      lambda       -0.6775642E-04
   maximum displ.:     0.1729845 α      in ANC's #8, #5, #17, ...

........................................................................
.............................. CYCLE   35 ..............................
........................................................................
   1   -223.7861398 -0.223786E+03  0.479E-02    0.65       0.0  T
   2   -223.7861413 -0.152893E-05  0.274E-02    0.65       1.0  T
   3   -223.7861384  0.289727E-05  0.612E-03    0.65       1.6  T
   4   -223.7861417 -0.327342E-05  0.267E-03    0.65       3.7  T
   5   -223.7861415  0.168555E-06  0.208E-03    0.65       4.7  T
   6   -223.7861421 -0.568231E-06  0.759E-04    0.65      13.0  T
   7   -223.7861422 -0.686364E-07  0.334E-04    0.65      29.5  T
     SCC iter.                  ...        0 min,  0.141 sec
     gradient                   ...        0 min,  0.025 sec
 * total energy  :  -220.5799058 Eh     change       -0.5317906E-04 Eh
   gradient norm :     0.0019271 Eh/α   predicted    -0.3554451E-04 ( -33.16%)
   displ. norm   :     0.2949500 α      lambda       -0.5757447E-04
   maximum displ.:     0.2234600 α      in ANC's #8, #17, #5, ...

........................................................................
.............................. CYCLE   36 ..............................
........................................................................
   1   -223.7864983 -0.223786E+03  0.696E-02    0.65       0.0  T
   2   -223.7865014 -0.312449E-05  0.399E-02    0.65       1.0  T
   3   -223.7864954  0.602824E-05  0.868E-03    0.65       1.1  T
   4   -223.7865010 -0.562247E-05  0.438E-03    0.65       2.3  T
   5   -223.7865013 -0.306302E-06  0.336E-03    0.65       2.9  T
   6   -223.7865030 -0.169911E-05  0.831E-04    0.65      11.9  T
   7   -223.7865031 -0.495575E-07  0.418E-04    0.65      23.6  T
   8   -223.7865031 -0.460412E-08  0.211E-04    0.65      46.8  T
     SCC iter.                  ...        0 min,  0.166 sec
     gradient                   ...        0 min,  0.025 sec
 * total energy  :  -220.5799679 Eh     change       -0.6208297E-04 Eh
   gradient norm :     0.0024202 Eh/α   predicted    -0.2990220E-04 ( -51.84%)
   displ. norm   :     0.1451474 α      lambda       -0.3949360E-04
   maximum displ.:     0.1034489 α      in ANC's #8, #17, #7, ...

........................................................................
.............................. CYCLE   37 ..............................
........................................................................
   1   -223.7860785 -0.223786E+03  0.376E-02    0.65       0.0  T
   2   -223.7860792 -0.747536E-06  0.215E-02    0.65       1.0  T
   3   -223.7860759  0.325078E-05  0.527E-03    0.65       1.9  T
   4   -223.7860791 -0.310427E-05  0.244E-03    0.65       4.0  T
   5   -223.7860793 -0.289908E-06  0.161E-03    0.65       6.1  T
   6   -223.7860797 -0.344727E-06  0.390E-04    0.65      25.3  T
   7   -223.7860797 -0.920630E-08  0.244E-04    0.65      40.3  T
     SCC iter.                  ...        0 min,  0.148 sec
     gradient                   ...        0 min,  0.025 sec
 * total energy  :  -220.5800010 Eh     change       -0.3311312E-04 Eh
   gradient norm :     0.0022901 Eh/α   predicted    -0.2016854E-04 ( -39.09%)
   displ. norm   :     0.2543506 α      lambda       -0.6600301E-04
   maximum displ.:     0.1620526 α      in ANC's #8, #9, #7, ...

........................................................................
.............................. CYCLE   38 ..............................
........................................................................
   1   -223.7865640 -0.223787E+03  0.703E-02    0.65       0.0  T
   2   -223.7865668 -0.273461E-05  0.398E-02    0.65       1.0  T
   3   -223.7865566  0.101960E-04  0.952E-03    0.64       1.0  T
   4   -223.7865659 -0.930171E-05  0.488E-03    0.65       2.0  T
   5   -223.7865671 -0.128238E-05  0.310E-03    0.65       3.2  T
   6   -223.7865684 -0.128588E-05  0.766E-04    0.65      12.9  T
   7   -223.7865685 -0.535331E-07  0.418E-04    0.65      23.5  T
   8   -223.7865685 -0.749350E-08  0.204E-04    0.65      48.4  T
     SCC iter.                  ...        0 min,  0.161 sec
     gradient                   ...        0 min,  0.025 sec
 * total energy  :  -220.5800492 Eh     change       -0.4814207E-04 Eh
   gradient norm :     0.0018215 Eh/α   predicted    -0.3513818E-04 ( -27.01%)
   displ. norm   :     0.3314592 α      lambda       -0.4209793E-04
   maximum displ.:     0.2020274 α      in ANC's #8, #9, #7, ...

........................................................................
.............................. CYCLE   39 ..............................
........................................................................
   1   -223.7860900 -0.223786E+03  0.951E-02    0.64       0.0  T
   2   -223.7860954 -0.539274E-05  0.533E-02    0.65       1.0  T
   3   -223.7860882  0.719474E-05  0.104E-02    0.64       1.0  T
   4   -223.7860925 -0.433330E-05  0.689E-03    0.65       1.4  T
   5   -223.7860956 -0.305960E-05  0.402E-03    0.65       2.5  T
   6   -223.7860978 -0.225462E-05  0.968E-04    0.64      10.2  T
   7   -223.7860979 -0.890192E-07  0.546E-04    0.64      18.0  T
   8   -223.7860979 -0.167763E-07  0.265E-04    0.64      37.1  T
     SCC iter.                  ...        0 min,  0.176 sec
     gradient                   ...        0 min,  0.029 sec
 * total energy  :  -220.5800886 Eh     change       -0.3940374E-04 Eh
   gradient norm :     0.0025147 Eh/α   predicted    -0.2207890E-04 ( -43.97%)
   displ. norm   :     0.1106495 α      lambda       -0.2636931E-04
   maximum displ.:     0.0585394 α      in ANC's #9, #8, #10, ...

........................................................................
.............................. CYCLE   40 ..............................
........................................................................
   1   -223.7870361 -0.223787E+03  0.347E-02    0.64       0.0  T
   2   -223.7870370 -0.913479E-06  0.187E-02    0.64       1.0  T
   3   -223.7870366  0.415016E-06  0.370E-03    0.64       2.7  T
   4   -223.7870365  0.483521E-07  0.273E-03    0.64       3.6  T
   5   -223.7870369 -0.422600E-06  0.146E-03    0.64       6.7  T
   6   -223.7870373 -0.351260E-06  0.382E-04    0.64      25.8  T
   7   -223.7870373 -0.159886E-07  0.169E-04    0.64      58.3  T
     SCC iter.                  ...        0 min,  0.142 sec
     gradient                   ...        0 min,  0.026 sec
 * total energy  :  -220.5801119 Eh     change       -0.2335141E-04 Eh
   gradient norm :     0.0017747 Eh/α   predicted    -0.1334694E-04 ( -42.84%)
   displ. norm   :     0.4488693 α      lambda       -0.7558301E-04
   maximum displ.:     0.2470068 α      in ANC's #9, #8, #10, ...

........................................................................
.............................. CYCLE   41 ..............................
........................................................................
   1   -223.7878606 -0.223788E+03  0.150E-01    0.64       0.0  T
   2   -223.7878797 -0.190596E-04  0.790E-02    0.64       1.0  T
   3   -223.7878570  0.227000E-04  0.189E-02    0.64       1.0  T
   4   -223.7878633 -0.631186E-05  0.141E-02    0.64       1.0  T
   5   -223.7878777 -0.144042E-04  0.776E-03    0.64       1.3  T
   6   -223.7878869 -0.917904E-05  0.172E-03    0.64       5.7  T
   7   -223.7878872 -0.341003E-06  0.738E-04    0.64      13.4  T
   8   -223.7878872 -0.237761E-07  0.400E-04    0.64      24.6  T
     SCC iter.                  ...        0 min,  0.163 sec
     gradient                   ...        0 min,  0.025 sec
 * total energy  :  -220.5801749 Eh     change       -0.6295402E-04 Eh
   gradient norm :     0.0028919 Eh/α   predicted    -0.4117622E-04 ( -34.59%)
   displ. norm   :     0.0940151 α      lambda       -0.1887435E-04
   maximum displ.:     0.0508987 α      in ANC's #8, #9, #7, ...

........................................................................
.............................. CYCLE   42 ..............................
........................................................................
   1   -223.7877938 -0.223788E+03  0.299E-02    0.64       0.0  T
   2   -223.7877945 -0.704875E-06  0.161E-02    0.64       1.0  T
   3   -223.7877919  0.263087E-05  0.489E-03    0.64       2.0  T
   4   -223.7877941 -0.220084E-05  0.275E-03    0.64       3.6  T
   5   -223.7877945 -0.401386E-06  0.181E-03    0.64       5.5  T
   6   -223.7877950 -0.449672E-06  0.355E-04    0.64      27.7  T
   7   -223.7877950 -0.149429E-07  0.148E-04    0.64      66.6  T
     SCC iter.                  ...        0 min,  0.145 sec
     gradient                   ...        0 min,  0.026 sec
 * total energy  :  -220.5801910 Eh     change       -0.1610056E-04 Eh
   gradient norm :     0.0022143 Eh/α   predicted    -0.9523169E-05 ( -40.85%)
   displ. norm   :     0.2078158 α      lambda       -0.4455361E-04
   maximum displ.:     0.1136207 α      in ANC's #8, #9, #7, ...
 * RMSD in coord.:     0.4742059 α      energy gain  -0.3347302E-02 Eh

generating ANC from model Hessian ...
Using Lindh-Hessian (1995)
 Shifting diagonal of input Hessian by   9.995771250986902E-003
 Lowest  eigenvalues of input Hessian
   -0.000000    0.000000    0.000000    0.000000    0.000000    0.000000
    0.010000    0.010020    0.010047    0.010101    0.010130    0.010190
    0.010337    0.010442    0.010718    0.010750    0.010803    0.010929
 Highest eigenvalues
    2.288552    2.367055    2.600431    2.614350    2.640281    2.657259
 

........................................................................
.............................. CYCLE   43 ..............................
........................................................................
   1   -223.7874240 -0.223787E+03  0.666E-02    0.64       0.0  T
   2   -223.7874277 -0.370053E-05  0.358E-02    0.64       1.0  T
   3   -223.7874109  0.167855E-04  0.119E-02    0.64       1.0  T
   4   -223.7874258 -0.148671E-04  0.621E-03    0.64       1.6  T
   5   -223.7874281 -0.237663E-05  0.396E-03    0.64       2.5  T
   6   -223.7874301 -0.196200E-05  0.966E-04    0.64      10.2  T
   7   -223.7874302 -0.125770E-06  0.374E-04    0.64      26.3  T
   8   -223.7874302 -0.818952E-08  0.208E-04    0.64      47.3  T
     SCC iter.                  ...        0 min,  0.164 sec
     gradient                   ...        0 min,  0.025 sec
 * total energy  :  -220.5802222 Eh     change       -0.3119707E-04 Eh
   gradient norm :     0.0014692 Eh/α   predicted     0.0000000E+00 (-100.00%)
   displ. norm   :     0.0312328 α      lambda       -0.8686165E-05
   maximum displ.:     0.0104898 α      in ANC's #9, #25, #7, ...

........................................................................
.............................. CYCLE   44 ..............................
........................................................................
   1   -223.7877812 -0.223788E+03  0.142E-02    0.64       0.0  T
   2   -223.7877814 -0.245864E-06  0.786E-03    0.64       1.3  T
   3   -223.7877807  0.679124E-06  0.249E-03    0.64       4.0  T
   4   -223.7877814 -0.681094E-06  0.107E-03    0.64       9.2  T
   5   -223.7877815 -0.835074E-07  0.703E-04    0.64      14.0  T
   6   -223.7877816 -0.580579E-07  0.225E-04    0.64      43.7  T
     SCC iter.                  ...        0 min,  0.123 sec
     gradient                   ...        0 min,  0.025 sec
 * total energy  :  -220.5802294 Eh     change       -0.7194924E-05 Eh
   gradient norm :     0.0011082 Eh/α   predicted    -0.4346014E-05 ( -39.60%)
   displ. norm   :     0.1025741 α      lambda       -0.2208252E-04
   maximum displ.:     0.0370171 α      in ANC's #7, #9, #16, ...

........................................................................
.............................. CYCLE   45 ..............................
........................................................................
   1   -223.7885263 -0.223789E+03  0.377E-02    0.64       0.0  T
   2   -223.7885279 -0.158815E-05  0.212E-02    0.64       1.0  T
   3   -223.7885217  0.618050E-05  0.722E-03    0.64       1.4  T
   4   -223.7885274 -0.573052E-05  0.332E-03    0.64       3.0  T
   5   -223.7885285 -0.108153E-05  0.193E-03    0.64       5.1  T
   6   -223.7885289 -0.399962E-06  0.558E-04    0.64      17.7  T
   7   -223.7885289 -0.224935E-07  0.270E-04    0.64      36.5  T
     SCC iter.                  ...        0 min,  0.231 sec
     gradient                   ...        0 min,  0.025 sec
 * total energy  :  -220.5802172 Eh     change        0.1219389E-04 Eh
   gradient norm :     0.0043228 Eh/α   predicted    -0.1109333E-04 (-190.97%)
   displ. norm   :     0.0207416 α      lambda       -0.3641690E-04
   maximum displ.:     0.0066097 α      in ANC's #19, #10, #20, ...

........................................................................
.............................. CYCLE   46 ..............................
........................................................................
   1   -223.7883024 -0.223788E+03  0.162E-02    0.64       0.0  T
   2   -223.7883028 -0.339440E-06  0.889E-03    0.64       1.1  T
   3   -223.7883026  0.136248E-06  0.165E-03    0.64       6.0  T
   4   -223.7883029 -0.281074E-06  0.546E-04    0.64      18.1  T
     SCC iter.                  ...        0 min,  0.082 sec
     gradient                   ...        0 min,  0.024 sec
 * total energy  :  -220.5802403 Eh     change       -0.2308138E-04 Eh
   gradient norm :     0.0020045 Eh/α   predicted    -0.1821681E-04 ( -21.08%)
   displ. norm   :     0.0266713 α      lambda       -0.2482858E-04
   maximum displ.:     0.0077897 α      in ANC's #7, #53, #51, ...

........................................................................
.............................. CYCLE   47 ..............................
........................................................................
   1   -223.7876172 -0.223788E+03  0.183E-02    0.64       0.0  T
   2   -223.7876176 -0.445707E-06  0.101E-02    0.64       1.0  T
   3   -223.7876166  0.975339E-06  0.321E-03    0.64       3.1  T
   4   -223.7876178 -0.116505E-05  0.109E-03    0.64       9.0  T
   5   -223.7876178 -0.276304E-07  0.664E-04    0.64      14.8  T
   6   -223.7876179 -0.384394E-07  0.260E-04    0.64      37.9  T
     SCC iter.                  ...        0 min,  0.129 sec
     gradient                   ...        0 min,  0.025 sec
 * total energy  :  -220.5802419 Eh     change       -0.1690442E-05 Eh
   gradient norm :     0.0018689 Eh/α   predicted    -0.1242394E-04 ( 634.95%)
   displ. norm   :     0.0436509 α      lambda       -0.1842876E-04
   maximum displ.:     0.0167793 α      in ANC's #7, #9, #15, ...

........................................................................
.............................. CYCLE   48 ..............................
........................................................................
   1   -223.7877839 -0.223788E+03  0.225E-02    0.64       0.0  T
   2   -223.7877843 -0.481035E-06  0.125E-02    0.64       1.0  T
   3   -223.7877827  0.158910E-05  0.396E-03    0.64       2.5  T
   4   -223.7877846 -0.188371E-05  0.897E-04    0.64      11.0  T
   5   -223.7877846  0.429592E-07  0.808E-04    0.64      12.2  T
   6   -223.7877847 -0.844085E-07  0.262E-04    0.64      37.7  T
     SCC iter.                  ...        0 min,  0.137 sec
     gradient                   ...        0 min,  0.035 sec
 * total energy  :  -220.5802481 Eh     change       -0.6200101E-05 Eh
   gradient norm :     0.0012177 Eh/α   predicted    -0.9222507E-05 (  48.75%)
   displ. norm   :     0.0431983 α      lambda       -0.1125450E-04
   maximum displ.:     0.0188157 α      in ANC's #7, #9, #16, ...

........................................................................
.............................. CYCLE   49 ..............................
........................................................................
   1   -223.7879745 -0.223788E+03  0.226E-02    0.64       0.0  T
   2   -223.7879750 -0.498256E-06  0.125E-02    0.64       1.0  T
   3   -223.7879725  0.250324E-05  0.495E-03    0.64       2.0  T
   4   -223.7879754 -0.291070E-05  0.802E-04    0.64      12.3  T
   5   -223.7879754  0.825233E-08  0.592E-04    0.64      16.6  T
   6   -223.7879755 -0.363758E-07  0.286E-04    0.64      34.4  T
     SCC iter.                  ...        0 min,  0.133 sec
     gradient                   ...        0 min,  0.050 sec
 * total energy  :  -220.5802513 Eh     change       -0.3122295E-05 Eh
   gradient norm :     0.0014520 Eh/α   predicted    -0.5632392E-05 (  80.39%)
   displ. norm   :     0.0385240 α      lambda       -0.1137632E-04
   maximum displ.:     0.0181077 α      in ANC's #7, #15, #9, ...

........................................................................
.............................. CYCLE   50 ..............................
........................................................................
   1   -223.7878375 -0.223788E+03  0.178E-02    0.64       0.0  T
   2   -223.7878378 -0.327304E-06  0.982E-03    0.64       1.0  T
   3   -223.7878372  0.600830E-06  0.236E-03    0.64       4.2  T
   4   -223.7878379 -0.677548E-06  0.954E-04    0.64      10.3  T
   5   -223.7878380 -0.558861E-07  0.609E-04    0.64      16.2  T
     SCC iter.                  ...        0 min,  0.103 sec
     gradient                   ...        0 min,  0.025 sec
 * total energy  :  -220.5802582 Eh     change       -0.6892764E-05 Eh
   gradient norm :     0.0008268 Eh/α   predicted    -0.5695992E-05 ( -17.36%)
   displ. norm   :     0.0444482 α      lambda       -0.7197534E-05
   maximum displ.:     0.0221517 α      in ANC's #7, #9, #15, ...

........................................................................
.............................. CYCLE   51 ..............................
........................................................................
   1   -223.7876544 -0.223788E+03  0.176E-02    0.64       0.0  T
   2   -223.7876546 -0.181653E-06  0.985E-03    0.64       1.0  T
   3   -223.7876514  0.317623E-05  0.527E-03    0.64       1.9  T
   4   -223.7876548 -0.341472E-05  0.117E-03    0.64       8.4  T
   5   -223.7876548 -0.143974E-07  0.925E-04    0.64      10.6  T
   6   -223.7876549 -0.107509E-06  0.307E-04    0.64      32.1  T
     SCC iter.                  ...        0 min,  0.127 sec
     gradient                   ...        0 min,  0.025 sec
 * total energy  :  -220.5802616 Eh     change       -0.3429661E-05 Eh
   gradient norm :     0.0012850 Eh/α   predicted    -0.3602288E-05 (   5.03%)
   displ. norm   :     0.0447238 α      lambda        0.1518201E-04
   maximum displ.:     0.0221493 α      in ANC's #7, #9, #1, ...

........................................................................
.............................. CYCLE   52 ..............................
........................................................................
   1   -223.7873910 -0.223787E+03  0.176E-02    0.64       0.0  T
   2   -223.7873912 -0.187308E-06  0.984E-03    0.64       1.0  T
   3   -223.7873880  0.315353E-05  0.515E-03    0.64       1.9  T
   4   -223.7873913 -0.333641E-05  0.125E-03    0.64       7.9  T
   5   -223.7873914 -0.651997E-07  0.905E-04    0.64      10.9  T
   6   -223.7873915 -0.959822E-07  0.301E-04    0.64      32.7  T
     SCC iter.                  ...        0 min,  0.122 sec
     gradient                   ...        0 min,  0.025 sec
 * total energy  :  -220.5802503 Eh     change        0.1129862E-04 Eh
   gradient norm :     0.0026707 Eh/α   predicted     0.7595968E-05 ( -32.77%)
   displ. norm   :     0.0154272 α      lambda       -0.2107136E-04
   maximum displ.:     0.0062911 α      in ANC's #39, #48, #40, ...

........................................................................
.............................. CYCLE   53 ..............................
........................................................................
   1   -223.7875278 -0.223788E+03  0.124E-02    0.64       0.0  T
   2   -223.7875279 -0.156297E-06  0.690E-03    0.64       1.4  T
   3   -223.7875266  0.136279E-05  0.361E-03    0.64       2.7  T
   4   -223.7875281 -0.153820E-05  0.568E-04    0.64      17.3  T
   5   -223.7875281 -0.141022E-07  0.382E-04    0.64      25.8  T
   6   -223.7875281 -0.114346E-07  0.209E-04    0.64      47.1  T
     SCC iter.                  ...        0 min,  0.124 sec
     gradient                   ...        0 min,  0.025 sec
 * total energy  :  -220.5802652 Eh     change       -0.1495297E-04 Eh
   gradient norm :     0.0011129 Eh/α   predicted    -0.1054072E-04 ( -29.51%)
   displ. norm   :     0.0585692 α      lambda       -0.9356037E-05
   maximum displ.:     0.0302814 α      in ANC's #7, #9, #15, ...

........................................................................
.............................. CYCLE   54 ..............................
........................................................................
   1   -223.7877120 -0.223788E+03  0.219E-02    0.64       0.0  T
   2   -223.7877124 -0.390616E-06  0.121E-02    0.64       1.0  T
   3   -223.7877103  0.204453E-05  0.450E-03    0.64       2.2  T
   4   -223.7877126 -0.226660E-05  0.122E-03    0.64       8.1  T
   5   -223.7877125  0.546706E-07  0.102E-03    0.64       9.6  T
   6   -223.7877127 -0.154041E-06  0.350E-04    0.64      28.2  T
   7   -223.7877127 -0.159042E-07  0.122E-04    0.64      80.6  T
     SCC iter.                  ...        0 min,  0.149 sec
     gradient                   ...        0 min,  0.026 sec
 * total energy  :  -220.5802716 Eh     change       -0.6350856E-05 Eh
   gradient norm :     0.0005420 Eh/α   predicted    -0.4685581E-05 ( -26.22%)
   displ. norm   :     0.0492718 α      lambda       -0.2880128E-05
   maximum displ.:     0.0270083 α      in ANC's #7, #1, #9, ...

........................................................................
.............................. CYCLE   55 ..............................
........................................................................
   1   -223.7876726 -0.223788E+03  0.149E-02    0.64       0.0  T
   2   -223.7876728 -0.131334E-06  0.821E-03    0.64       1.2  T
   3   -223.7876723  0.507114E-06  0.217E-03    0.64       4.5  T
   4   -223.7876727 -0.396204E-06  0.127E-03    0.64       7.7  T
   5   -223.7876728 -0.114237E-06  0.711E-04    0.64      13.9  T
   6   -223.7876729 -0.740782E-07  0.147E-04    0.64      67.1  T
     SCC iter.                  ...        0 min,  0.124 sec
     gradient                   ...        0 min,  0.025 sec
 * total energy  :  -220.5802755 Eh     change       -0.3877517E-05 Eh
   gradient norm :     0.0004210 Eh/α   predicted    -0.1443388E-05 ( -62.78%)
   displ. norm   :     0.1221982 α      lambda       -0.6402039E-05
   maximum displ.:     0.0668106 α      in ANC's #7, #1, #9, ...

   *** GEOMETRY OPTIMIZATION CONVERGED AFTER 55 ITERATIONS ***

------------------------------------------------------------------------
 total energy gain   :        -0.1147720 Eh      -72.0205 kcal/mol
 total RMSD          :         1.2582958 a0        0.6659 Å
 total power (kW/mol):        -5.4787984 (step)  -23.5399 (real)
------------------------------------------------------------------------

 ANCopt (total)                0 d,  0 h,  0 min, 12.801 sec
 optimizer setup                ...        0 min,  0.001 sec (  0.005%)
 model hessian                  ...        0 min,  0.110 sec (  0.857%)
 ANC generation                 ...        0 min,  0.032 sec (  0.248%)
 coordinate transformation      ...        0 min,  0.009 sec (  0.069%)
 single point calculation       ...        0 min, 12.591 sec ( 98.357%)
 optimization log               ...        0 min,  0.020 sec (  0.160%)
 hessian update                 ...        0 min,  0.007 sec (  0.058%)
 rational function              ...        0 min,  0.025 sec (  0.196%)

================
 final structure:
================
$coord
   -7.16157378069938    4.59047160227328   -5.87306614484516      C 
   -6.22053252719030    6.45011307504023   -4.34831992479618      C 
   -6.28795910315633    8.86754126580326   -5.09915393628590      F 
   -5.17072205409341    5.85501916705882   -1.97434081879580      C 
   -4.26111800835282    7.71792195928446   -0.51900120204811      F 
   -5.07862630631950    3.40706789366110   -1.15625546716010      C 
   -6.03603487783183    1.44864033558737   -2.68294897928434      C 
   -7.09433098648520    2.04686464918002   -5.08544275309188      C 
   -8.06306667128768    0.11299934741062   -6.65354013223134      C 
   -7.98312289485262   -2.34446346552016   -5.84106576052555      C 
   -6.94003251428926   -2.91856638478725   -3.43480486388118      C 
   -5.97945284111042   -1.09692455706451   -1.88228308576743      C 
   -7.10923316968630   -5.66497314381539   -2.97501425781370      C 
   -6.33198079608900   -6.74361062066589   -1.10462701540261      O 
   -8.38806946384525   -6.73451687776289   -5.21773412235659      C 
   -8.81816468307972   -4.70068347819068   -7.01304779408020      C 
   -9.77259302801167   -4.88477104801531   -9.41697040134800      C 
  -10.51078090878042   -7.11732599835150  -10.67375434980251      C 
  -11.13938444897069   -8.82348108045663  -11.86129434537886      N 
  -10.12390761475590   -2.80077921670384  -11.04370907366144      C 
  -10.46811326879911   -1.19833872184675  -12.46548773648134      N 
   -9.18673058289619   -9.17029295562637   -5.61249799237268      C 
   -9.01175686261509  -11.36201549172236   -4.12866830561474      C 
   -7.92108347684631  -11.88451261741846   -1.79877910164708      C 
   -8.28422656482157  -14.36979776789082   -1.06365934210076      C 
   -9.65757872070700  -15.83276850736880   -2.82149185143648      C 
  -10.49162785192680  -14.07506314454570   -5.41848112854213      S 
   -9.99154647558394  -18.30517594022441   -1.98195582013999      C 
   -8.90313923702314  -18.72523433166153    0.42155940031099      C 
   -7.39941146873280  -16.06465686598909    1.63348523519827      S 
   -9.42820584532524  -21.20257941622511    1.09854374282061      C 
  -10.78503459068187  -22.25449804021106   -0.91444855949959      C 
  -11.11168780934978  -20.47610969807391   -2.76834663155360      N 
  -12.59880621607635  -20.67102200625416   -5.03150597158723      C 
  -11.69505324044692  -24.81618270069948   -1.06613645191711      C 
  -12.73815005697059  -26.01116155650765    1.07042884640806      C 
  -13.64499958684026  -28.56547774441611    0.98376844600712      C 
  -14.66656344362216  -29.60336337402603    3.07451880191172      N 
  -14.82859400459768  -28.28823365347560    5.12645789491215      C 
  -13.96650110665787  -25.74584786416196    5.19565992684420      C 
  -12.97553445282893  -24.67775928757920    3.23932053045373      N 
  -14.17569946326415  -24.38273407366659    7.29798367612541      F 
  -15.84303249308257  -29.38104111656221    7.14943293699736      F 
  -13.52567794774264  -30.07225666714520   -1.21567217570508      C 
  -12.39524477444237  -28.90554077218874   -3.33707892838442      C 
  -11.51376205641908  -26.31696915272974   -3.25672415231283      C 
  -10.43904498439495  -25.63937778970874   -5.44051403147327      N 
  -10.55014196924160  -27.96567097568030   -7.37722410627747      S 
  -11.95243392133002  -29.96205917572561   -5.58183150525677      N 
  -14.48264418920803  -32.58118086538449   -1.24971211249521      C 
  -14.46384487377281  -34.25380817082703   -3.26756922794555      C 
  -15.60846026346465  -36.53708890011259   -2.67243920003563      C 
  -16.52562660010326  -36.64157881773130   -0.18312548914928      C 
  -15.92987883140854  -33.86485479607607    1.43348475386855      S 
  -17.69165472974874  -38.95113917990835    0.32215935236459      C 
  -17.64484889385140  -40.60790602659920   -1.78650272488771      C 
  -16.16612151094953  -39.29336257349976   -4.41249052404029      S 
  -18.81750571960421  -42.82699653800173   -1.07708770164648      C 
  -19.60032314758558  -42.49638566446435    1.44827361285431      C 
  -18.91241087977545  -40.10748381265090    2.23774932939482      N 
  -19.26133470761759  -39.07735198434887    4.72614266259804      C 
  -21.08608164787112  -44.09479238447395    2.97248458570905      C 
  -21.58156671135763  -46.61384181637627    2.70135343192965      C 
  -23.87697180990378  -47.68665835533982    3.90905086560615      C 
  -25.21688988574255  -46.65998288882500    5.45354360278504      O 
  -24.21473430960882  -50.20055542758687    2.74257960568722      C 
[...]
    33   7 N      2.811     0.006    21.145     6.830
    34   6 C      3.691    -0.061    21.857     6.690
    35   6 C      2.963    -0.015    28.380     8.738
    36   6 C      2.971     0.066    26.515     8.446
    37   6 C      2.971     0.063    26.590     8.458
    38   7 N      2.015    -0.202    26.141     7.583
    39   6 C      2.749     0.235    23.069     7.865
    40   6 C      2.752     0.239    23.013     7.855
    41   7 N      1.848    -0.219    26.611     7.645
    42   9 F      0.789    -0.171    10.945     3.908
    43   9 F      0.788    -0.171    10.940     3.907
    44   6 C      2.999    -0.009    28.225     8.715
    45   6 C      3.336     0.069    24.134     7.781
    46   6 C      3.334     0.069    24.159     7.788
    47   7 N      1.853    -0.273    27.941     7.834
    48  16 S      2.656     0.384   126.389    18.922
    49   7 N      1.853    -0.268    27.818     7.817
    50   6 C      3.003     0.032    27.265     8.565
    51   6 C      3.061    -0.051    29.192     8.860
    52   6 C      3.180     0.026    27.005     8.483
    53   6 C      3.108    -0.001    27.912     8.656
    54  16 S      2.417    -0.002   141.135    19.995
    55   6 C      3.241     0.037    26.259     8.307
    56   6 C      3.126     0.015    27.488     8.585
    57  16 S      2.160    -0.038   142.642    20.101
    58   6 C      3.012    -0.057    29.385     8.892
    59   6 C      3.107     0.043    26.900     8.498
    60   7 N      2.813     0.002    21.229     6.843
    61   6 C      3.690    -0.060    21.857     6.690
    62   6 C      2.900    -0.019    28.473     8.749
    63   6 C      3.009    -0.034    28.822     8.807
    64   6 C      2.870     0.225    23.280     7.909
    65   8 O      0.856    -0.365    20.998     6.144
    66   6 C      3.033    -0.017    28.412     8.743
    67   6 C      2.913    -0.017    28.432     8.744
    68   6 C      2.989     0.015    27.670     8.629
    69   6 C      2.988     0.017    27.623     8.621
    70   6 C      2.920    -0.055    29.359     8.885
    71   6 C      2.775     0.161    24.502     8.107
    72   6 C      2.775     0.161    24.517     8.110
    73   6 C      2.919    -0.055    29.355     8.885
    74   9 F      0.787    -0.192    11.157     3.946
    75   9 F      0.787    -0.191    11.147     3.944
    76   6 C      2.915    -0.030    28.749     8.792
    77   6 C      3.029     0.007    27.828     8.653
    78   6 C      3.016     0.031    27.291     8.569
    79   6 C      2.948     0.004    27.925     8.667
    80   6 C      1.931     0.124    28.054     8.554
    81   7 N      0.911    -0.239    26.236     7.408
    82   6 C      1.930     0.121    28.120     8.564
    83   7 N      0.911    -0.234    26.122     7.392
    84   1 H      0.926     0.082     1.958     2.188
    85   1 H      0.926     0.079     1.987     2.204
    86   1 H      0.926     0.065     2.142     2.288
    87   1 H      0.926     0.069     2.098     2.265
    88   1 H      0.925     0.070     2.090     2.261
    89   1 H      0.926     0.110     1.694     2.035
    90   1 H      0.927     0.065     2.140     2.287
    91   1 H      0.925     0.063     2.159     2.298
    92   1 H      0.924     0.084     1.943     2.180
    93   1 H      0.925     0.077     2.010     2.217
    94   1 H      0.926     0.080     1.977     2.199
    95   1 H      0.926     0.049     2.337     2.391
    96   1 H      0.924     0.076     2.019     2.222
    97   1 H      0.924     0.072     2.068     2.249
    98   1 H      0.925     0.085     1.930     2.172
    99   1 H      0.925     0.080     1.978     2.199
   100   1 H      0.926     0.069     2.096     2.264
   101   1 H      0.926     0.082     1.957     2.187
   102   1 H      0.926     0.080     1.982     2.202
   103   1 H      0.926     0.064     2.157     2.297

 Mol. C6AA /au·bohr⁶  :     228582.042558
 Mol. C8AA /au·bohr⁸  :    6481981.862700
 Mol. α(0) /au        :        762.474248


Wiberg/Mayer (AO) data.
largest (>0.10) Wiberg bond orders for each atom
          total WBO             WBO to atom ...
     1  C   3.975        C    2 1.496    C    8 1.284    H   84 0.961    C    6 0.107
     2  C   3.888        C    1 1.496    C    4 1.244    F    3 0.984
     3  F   1.121        C    2 0.984
     4  C   3.884        C    6 1.495    C    2 1.244    F    5 0.983
     5  F   1.119        C    4 0.983
     6  C   3.977        C    4 1.495    C    7 1.287    H   85 0.962    C    1 0.107
     7  C   3.980        C    6 1.287    C   12 1.272    C    8 1.241
     8  C   3.984        C    1 1.284    C    9 1.277    C    7 1.241
     9  C   3.970        C   10 1.500    C    8 1.277    H   86 0.956
    10  C   3.980        C    9 1.500    C   11 1.207    C   16 1.086
    11  C   3.978        C   12 1.522    C   10 1.207    C   13 1.021
    12  C   3.978        C   11 1.522    C    7 1.272    H   87 0.962
    13  C   3.921        O   14 1.747    C   15 1.045    C   11 1.021
    14  O   2.043        C   13 1.747
    15  C   3.946        C   22 1.504    C   16 1.140    C   13 1.045
    16  C   3.971        C   17 1.484    C   15 1.140    C   10 1.086
    17  C   3.930        C   16 1.484    C   18 1.098    C   20 1.095
    18  C   3.945        N   19 2.750    C   17 1.098
    19  N   2.964        C   18 2.750
    20  C   3.945        N   21 2.762    C   17 1.095
    21  N   2.969        C   20 2.762
    22  C   3.945        C   15 1.504    C   23 1.289    H   88 0.940
    23  C   3.914        C   24 1.394    C   22 1.289    S   27 1.063
    24  C   3.948        C   23 1.394    C   25 1.385    H   89 0.934
    25  C   3.924        C   24 1.385    C   26 1.276    S   30 1.086
    26  C   3.930        C   25 1.276    C   28 1.272    S   27 1.154
    27  S   2.563        C   26 1.154    C   23 1.063
    28  C   3.919        C   26 1.272    C   29 1.243    N   33 1.182
    29  C   3.917        C   31 1.393    C   28 1.243    S   30 1.096
    30  S   2.483        C   29 1.096    C   25 1.086
    31  C   3.931        C   29 1.393    C   32 1.367    H   90 0.968
    32  C   3.916        C   31 1.367    N   33 1.200    C   35 1.120
    33  N   3.616        C   32 1.200    C   28 1.182    C   34 1.000
    34  C   3.960        N   33 1.000    H   91 0.976    H   93 0.974    H   92 0.962
    35  C   3.907        C   36 1.287    C   46 1.245    C   32 1.120
    36  C   3.964        C   35 1.287    N   41 1.256    C   37 1.181
    37  C   3.963        N   38 1.267    C   44 1.262    C   36 1.181
    38  N   3.160        C   39 1.516    C   37 1.267    S   54 0.107
    39  C   3.868        N   38 1.516    C   40 1.169    F   43 0.997
    40  C   3.886        N   41 1.536    C   39 1.169    F   42 0.996
    41  N   3.065        C   40 1.536    C   36 1.256
    42  F   1.154        C   40 0.996
    43  F   1.153        C   39 0.997
    44  C   3.934        C   37 1.262    C   45 1.217    C   50 1.208
    45  C   3.966        N   49 1.382    C   44 1.217    C   46 1.147
    46  C   3.967        N   47 1.364    C   35 1.245    C   45 1.147
    47  N   3.064        S   48 1.437    C   46 1.364    N   49 0.160
    48  S   3.158        N   47 1.437    N   49 1.434
    49  N   3.076        S   48 1.434    C   45 1.382    N   47 0.160
    50  C   3.926        C   51 1.415    C   44 1.208    S   54 1.110
    51  C   3.927        C   50 1.415    C   52 1.364    H   94 0.951
    52  C   3.914        C   51 1.364    C   53 1.300    S   57 1.082
    53  C   3.910        C   52 1.300    C   55 1.262    S   54 1.128
    54  S   2.668        C   53 1.128    C   50 1.110    N   38 0.107
    55  C   3.936        C   53 1.262    C   56 1.219    N   60 1.218
    56  C   3.920        C   58 1.434    C   55 1.219    S   57 1.091
    57  S   2.467        C   56 1.091    C   52 1.082
    58  C   3.971        C   56 1.434    C   59 1.311    H   95 0.970
    59  C   3.913        C   58 1.311    C   62 1.246    N   60 1.158
    60  N   3.619        C   55 1.218    C   59 1.158    C   61 0.999
    61  C   3.957        N   60 0.999    H   98 0.975    H   96 0.972    H   97 0.969
    62  C   3.944        C   63 1.530    C   59 1.246    H   99 0.946
    63  C   3.940        C   62 1.530    C   78 1.146    C   64 1.019
    64  C   3.922        O   65 1.772    C   63 1.019    C   66 1.017
    65  O   2.043        C   64 1.772
    66  C   3.976        C   67 1.524    C   77 1.202    C   64 1.017
    67  C   3.978        C   66 1.524    C   68 1.270    H  100 0.962
    68  C   3.980        C   73 1.287    C   67 1.270    C   69 1.241
    69  C   3.984        C   70 1.285    C   76 1.274    C   68 1.241
    70  C   3.975        C   71 1.495    C   69 1.285    H  101 0.961    C   73 0.107
    71  C   3.888        C   70 1.495    C   72 1.244    F   75 0.984
    72  C   3.885        C   73 1.494    C   71 1.244    F   74 0.983
    73  C   3.977        C   72 1.494    C   68 1.287    H  102 0.962    C   70 0.107
    74  F   1.120        C   72 0.983
    75  F   1.122        C   71 0.984
    76  C   3.971        C   77 1.506    C   69 1.274    H  103 0.959
    77  C   3.981        C   76 1.506    C   66 1.202    C   78 1.079
    78  C   3.973        C   79 1.475    C   63 1.146    C   77 1.079
    79  C   3.954        C   78 1.475    C   80 1.101    C   82 1.101
    80  C   3.947        N   81 2.764    C   79 1.101
    81  N   2.978        C   80 2.764
    82  C   3.947        N   83 2.765    C   79 1.101
    83  N   2.968        C   82 2.765
    84  H   0.993        C    1 0.961
    85  H   0.993        C    6 0.962
    86  H   0.995        C    9 0.956
    87  H   0.994        C   12 0.962
    88  H   0.994        C   22 0.940
    89  H   0.987        C   24 0.934
    90  H   0.995        C   31 0.968
    91  H   0.994        C   34 0.976
    92  H   0.991        C   34 0.962
    93  H   0.993        C   34 0.974
    94  H   0.993        C   51 0.951
    95  H   0.997        C   58 0.970
    96  H   0.992        C   61 0.972
    97  H   0.993        C   61 0.969
    98  H   0.992        C   61 0.975
    99  H   0.990        C   62 0.946
   100  H   0.994        C   67 0.962
   101  H   0.993        C   70 0.961
   102  H   0.993        C   73 0.962
   103  H   0.995        C   76 0.959

molecular dipole:
                 x           y           z       tot (Debye)
 q only:       -0.459      -0.994      -0.449
   full:       -0.751      -0.841       0.225       2.922
molecular quadrupole (traceless):
                xx          xy          yy          xz          yz          zz
 q only:       86.692      -7.095    -136.086       8.816      55.086      49.394
  q+dip:      107.343      18.905    -140.967      -5.661      32.991      33.624
   full:      116.101      12.895    -150.030      -5.252      29.399      33.929

           -------------------------------------------------
          |                Geometry Summary                 |
           -------------------------------------------------

      molecular mass/u    :     1187.1742000
   center of mass at/Å    :       -7.4847992     -14.2445801      -0.7649620
  moments of inertia/u·Å² :        0.6170012E+04   0.1412952E+06   0.1437756E+06
rotational constants/cm⁻¹ :        0.2732188E-02   0.1193079E-03   0.1172496E-03

 * 104 selected distances

     #   Z        #   Z                                     value/Å
     1   6 C      2   6 C                                 1.3665357
     2   6 C      3   9 F                                 1.3400057
     2   6 C      4   6 C                                 1.4092434
     4   6 C      5   9 F                                 1.3403758
     4   6 C      6   6 C                                 1.3666929
     6   6 C      7   6 C                                 1.4083337
     1   6 C      8   6 C                                 1.4095209
     7   6 C      8   6 C                                 1.4248376
     8   6 C      9   6 C                                 1.4137269
     9   6 C     10   6 C                                 1.3703167
    10   6 C     11   6 C                                 1.4206929
     7   6 C     12   6 C                                 1.4124343
    11   6 C     12   6 C                                 1.3647661
    13   6 C     14   8 O                                 1.2143354
    16   6 C     17   6 C                                 1.3721583
    18   6 C     19   7 N                                 1.1492237
    20   6 C     21   7 N                                 1.1481741
    15   6 C     22   6 C                                 1.3724682
    22   6 C     23   6 C                                 1.4036684
    23   6 C     24   6 C                                 1.3891236
    24   6 C     25   6 C                                 1.3848799
    25   6 C     26   6 C                                 1.4116595
    26   6 C     27  16 S                                 1.7171390
    26   6 C     28   6 C                                 1.3929684
    28   6 C     29   6 C                                 1.4138013
    25   6 C     30  16 S                                 1.7494919
    29   6 C     30  16 S                                 1.7397489
    29   6 C     31   6 C                                 1.3871351
    31   6 C     32   6 C                                 1.4000369
    28   6 C     33   7 N                                 1.3580467
    32   6 C     33   7 N                                 1.3703858
    33   7 N     34   6 C                                 1.4367335
    32   6 C     35   6 C                                 1.4408178
    35   6 C     36   6 C                                 1.4081423
    36   6 C     37   6 C                                 1.4350773
    37   6 C     38   7 N                                 1.3483159
    38   7 N     39   6 C                                 1.2925661
    39   6 C     40   6 C                                 1.4210866
    36   6 C     41   7 N                                 1.3531223
    40   6 C     41   7 N                                 1.2908121
    40   6 C     42   9 F                                 1.3305003
    39   6 C     43   9 F                                 1.3298827
    37   6 C     44   6 C                                 1.4122352
    44   6 C     45   6 C                                 1.4139505
    35   6 C     46   6 C                                 1.4084370
    45   6 C     46   6 C                                 1.4476816
    46   6 C     47   7 N                                 1.3369541
    47   7 N     48  16 S                                 1.6028768
    45   6 C     49   7 N                                 1.3336135
    48  16 S     49   7 N                                 1.6029288
    44   6 C     50   6 C                                 1.4210793
    50   6 C     51   6 C                                 1.3869879
    51   6 C     52   6 C                                 1.3877864
    52   6 C     53   6 C                                 1.4049427
    50   6 C     54  16 S                                 1.7504375 (max)
    53   6 C     54  16 S                                 1.7292474
    53   6 C     55   6 C                                 1.3949622
    55   6 C     56   6 C                                 1.4192928
    52   6 C     57  16 S                                 1.7499540
    56   6 C     57  16 S                                 1.7398968
    56   6 C     58   6 C                                 1.3802051
    58   6 C     59   6 C                                 1.4099924
    55   6 C     60   7 N                                 1.3488170
    59   6 C     60   7 N                                 1.3802651
    60   7 N     61   6 C                                 1.4370861
    59   6 C     62   6 C                                 1.4086060
    62   6 C     63   6 C                                 1.3661208
    64   6 C     65   8 O                                 1.2107526
    66   6 C     67   6 C                                 1.3645879
    67   6 C     68   6 C                                 1.4133047
    68   6 C     69   6 C                                 1.4250870
    69   6 C     70   6 C                                 1.4091503
    70   6 C     71   6 C                                 1.3667333
    71   6 C     72   6 C                                 1.4091177
    68   6 C     73   6 C                                 1.4083157
    72   6 C     73   6 C                                 1.3667925
    72   6 C     74   9 F                                 1.3400935
    71   6 C     75   9 F                                 1.3396470
    69   6 C     76   6 C                                 1.4141896
    66   6 C     77   6 C                                 1.4243962
    76   6 C     77   6 C                                 1.3686507
    78   6 C     79   6 C                                 1.3723345
    80   6 C     81   7 N                                 1.1478881
    82   6 C     83   7 N                                 1.1480374
     1   6 C     84   1 H                                 1.0788547
     6   6 C     85   1 H                                 1.0787579
     9   6 C     86   1 H                                 1.0775815
    12   6 C     87   1 H                                 1.0794306
    22   6 C     88   1 H                                 1.0837817
    24   6 C     89   1 H                                 1.0745339
    31   6 C     90   1 H                                 1.0693605 (min)
    34   6 C     91   1 H                                 1.0898737
    34   6 C     92   1 H                                 1.0915187
    34   6 C     93   1 H                                 1.0895286
    51   6 C     94   1 H                                 1.0734127
    58   6 C     95   1 H                                 1.0712169
    61   6 C     96   1 H                                 1.0912414
    61   6 C     97   1 H                                 1.0924238
    61   6 C     98   1 H                                 1.0885121
    62   6 C     99   1 H                                 1.0857903
    67   6 C    100   1 H                                 1.0793602
    70   6 C    101   1 H                                 1.0788251
    73   6 C    102   1 H                                 1.0787737
    76   6 C    103   1 H                                 1.0784508

 * 7 distinct bonds (by element types)

   Z      Z             #   av. dist./Å        max./Å        min./Å
   1 H    6 C          20     1.0815614     1.0924238     1.0693605
   6 C    6 C          51     1.4000993     1.4476816     1.3645879
   6 C    7 N          16     1.3050026     1.4370861     1.1478881
   6 C    8 O           2     1.2125440     1.2143354     1.2107526
   6 C    9 F           6     1.3367508     1.3403758     1.3298827
   6 C   16 S           7     1.7394165     1.7504375     1.7171390
   7 N   16 S           2     1.6029028     1.6029288     1.6028768


optimized geometry written to: xtbopt.xyz


           -------------------------------------------------
          | TOTAL ENERGY             -220.580275482324 Eh   |
          | GRADIENT NORM               0.000421631700 Eh/α |
          | HOMO-LUMO GAP               0.641743096666 eV   |
           -------------------------------------------------

------------------------------------------------------------------------
 * finished run on 2021/05/06 at 16:03:02.653     
------------------------------------------------------------------------
 total:
 * wall-time:     0 d,  0 h,  0 min, 13.401 sec
 *  cpu-time:     0 d,  0 h,  2 min, 39.006 sec
 * ratio c/w:    11.866 speedup
 SCF:
 * wall-time:     0 d,  0 h,  0 min,  0.374 sec
 *  cpu-time:     0 d,  0 h,  0 min,  4.465 sec
 * ratio c/w:    11.951 speedup
 ANC optimizer:
 * wall-time:     0 d,  0 h,  0 min, 12.952 sec
 *  cpu-time:     0 d,  0 h,  2 min, 33.782 sec
 * ratio c/w:    11.873 speedup

