
                                 *****************
                                 * O   R   C   A *
                                 *****************

           --- An Ab Initio, DFT and Semiempirical electronic structure package ---

                  #######################################################
                  #                        -***-                        #
                  #          Department of theory and spectroscopy      #
                  #               Directorship: Frank Neese             #
                  #        Max Planck Institute fuer Kohlenforschung    #
                  #                Kaiser Wilhelm Platz 1               #
                  #                 D-45470 Muelheim/Ruhr               #
                  #                      Germany                        #
                  #                                                     #
                  #                  All rights reserved                #
                  #                        -***-                        #
                  #######################################################


                         Program Version 4.2.0 -  RELEASE  -


 With contributions from (in alphabetic order):
   Daniel Aravena         : Magnetic Suceptibility
   Michael Atanasov       : Ab Initio Ligand Field Theory (pilot matlab implementation)
   Alexander A. Auer      : GIAO ZORA, VPT2
   Ute Becker             : Parallelization
   Giovanni Bistoni       : ED, misc. LED, open-shell LED, HFLED
   Martin Brehm           : Molecular dynamics
   Dmytro Bykov           : SCF Hessian
   Vijay G. Chilkuri      : MRCI spin determinant printing, contributions to CSF-ICE
   Dipayan Datta          : RHF DLPNO-CCSD density
   Achintya Kumar Dutta   : EOM-CC, STEOM-CC
   Dmitry Ganyushin       : Spin-Orbit,Spin-Spin,Magnetic field MRCI
   Miquel Garcia          : C-PCM Hessian, Gaussian charge scheme
   Yang Guo               : DLPNO-NEVPT2, CIM, IAO-localization
   Andreas Hansen         : Spin unrestricted coupled pair/coupled cluster methods
   Benjamin Helmich-Paris : CASSCF linear response (MC-RPA)
   Lee Huntington         : MR-EOM, pCC
   Robert Izsak           : Overlap fitted RIJCOSX, COSX-SCS-MP3, EOM
   Christian Kollmar      : KDIIS, OOCD, Brueckner-CCSD(T), CCSD density
   Simone Kossmann        : Meta GGA functionals, TD-DFT gradient, OOMP2, MP2 Hessian
   Martin Krupicka        : AUTO-CI
   Lucas Lang             : DCDCAS
   Dagmar Lenk            : GEPOL surface, SMD
   Dimitrios Liakos       : Extrapolation schemes; Compound Job, initial MDCI parallelization
   Dimitrios Manganas     : Further ROCIS development; embedding schemes
   Dimitrios Pantazis     : SARC Basis sets
   Taras Petrenko         : DFT Hessian,TD-DFT gradient, ASA, ECA, R-Raman, ABS, FL, XAS/XES, NRVS
   Peter Pinski           : DLPNO-MP2, DLPNO-MP2 Gradient
   Christoph Reimann      : Effective Core Potentials
   Marius Retegan         : Local ZFS, SOC
   Christoph Riplinger    : Optimizer, TS searches, QM/MM, DLPNO-CCSD(T), (RO)-DLPNO pert. Triples
   Tobias Risthaus        : Range-separated hybrids, TD-DFT gradient, RPA, STAB
   Michael Roemelt        : Original ROCIS implementation
   Masaaki Saitow         : Open-shell DLPNO-CCSD energy and density
   Barbara Sandhoefer     : DKH picture change effects
   Avijit Sen             : IP-ROCIS
   Kantharuban Sivalingam : CASSCF convergence, NEVPT2, FIC-MRCI
   Bernardo de Souza      : ESD, SOC TD-DFT
   Georgi Stoychev        : AutoAux, RI-MP2 NMR
   Willem Van den Heuvel  : Paramagnetic NMR
   Boris Wezisla          : Elementary symmetry handling
   Frank Wennmohs         : Technical directorship


 We gratefully acknowledge several colleagues who have allowed us to
 interface, adapt or use parts of their codes:
   Stefan Grimme, W. Hujo, H. Kruse,             : VdW corrections, initial TS optimization,
                  C. Bannwarth                     DFT functionals, gCP, sTDA/sTD-DF
   Ed Valeev, F. Pavosevic, A. Kumar             : LibInt (2-el integral package), F12 methods
   Garnet Chan, S. Sharma, J. Yang, R. Olivares  : DMRG
   Ulf Ekstrom                                   : XCFun DFT Library
   Mihaly Kallay                                 : mrcc  (arbitrary order and MRCC methods)
   Andreas Klamt, Michael Diedenhofen            : otool_cosmo (COSMO solvation model)
   Jiri Pittner, Ondrej Demel                    : Mk-CCSD
   Frank Weinhold                                : gennbo (NPA and NBO analysis)
   Christopher J. Cramer and Donald G. Truhlar   : smd solvation model
   Lars Goerigk                                  : TD-DFT with DH, B97 family of functionals
   V. Asgeirsson, H. Jonsson                     : NEB implementation
   FAccTs GmbH                                   : IRC, NEB, NEB-TS, Multilevel, MM, QM/MM, CI optimization
   S Lehtola, MJT Oliveira, MAL Marques          : LibXC Library


 Your calculation uses the libint2 library for the computation of 2-el integrals
 For citations please refer to: http://libint.valeyev.net

 Your ORCA version has been built with support for libXC version: 4.2.3
 For citations please refer to: https://tddft.org/programs/libxc/

 This ORCA versions uses:
   CBLAS   interface :  Fast vector & matrix operations
   LAPACKE interface :  Fast linear algebra routines
   SCALAPACK package :  Parallel linear algebra routines


Your calculation utilizes the atom-pairwise dispersion correction
with the Becke-Johnson damping scheme (D3BJ)
Cite in your paper:
S.Grimme, S.Ehrlich, L.Goerigk, J Comput Chem, (2011), 32, 1456–1465 
S.Grimme, J.Antony, S.Ehrlich and H.Krieg, J.Chem.Phys., 132, (2010), 154104 
   

----- Orbital basis set information -----
Your calculation utilizes the basis: def2-SVP
   F. Weigend and R. Ahlrichs, Phys. Chem. Chem. Phys. 7, 3297 (2005).

----- AuxJ basis set information -----
Your calculation utilizes the auxiliary basis: def2/J
   F. Weigend, Phys. Chem. Chem. Phys. 8, 1057 (2006).

================================================================================
                                        WARNINGS
                       Please study these warnings very carefully!
================================================================================


WARNING: Geometry Optimization
  ===> : Switching off AutoStart
         For restart on a previous wavefunction, please use MOREAD

INFO   : the flag for use of LIBINT has been found!

================================================================================
                                       INPUT FILE
================================================================================
NAME = 1031.inp
|  1> # ORCA input file
|  2> # SCF done        -51.122946023046          0.000923439301
|  3> ! B3LYP/G D3BJ Opt RIJCOSX def2-SVP def2/J
|  4> * xyz 0 1
|  5>    C        1.60299        -0.95917         1.16143
|  6>    S        2.81360         0.22719         0.93799
|  7>    C        1.67892         1.31558         0.19009
|  8>    C        0.42272         0.75539         0.14986
|  9>    C        0.38681        -0.54827         0.70687
| 10>    C       -0.86277        -1.36948         0.81904
| 11>    C       -1.97449        -0.83835        -0.08997
| 12>    C       -1.74844        -1.27968        -1.53229
| 13>    F       -1.95175        -2.60040        -1.66182
| 14>    F       -2.60322        -0.68092        -2.38066
| 15>    F       -0.52191        -1.04356        -2.00726
| 16>    C       -2.08619         0.69308         0.02461
| 17>    C       -2.38225         1.03333         1.39995
| 18>    N       -2.60650         1.30653         2.48595
| 19>    C       -0.79886         1.41037        -0.41541
| 20>    C        2.18616         2.59115        -0.24830
| 21>    C        1.61115         3.45719        -1.07819
| 22>    H        1.85020        -1.89624         1.61885
| 23>    H       -1.21898        -1.33569         1.85346
| 24>    H       -0.64921        -2.41404         0.57912
| 25>    H       -2.93149        -1.29025         0.19841
| 26>    H       -2.92373         1.04787        -0.58910
| 27>    H       -0.84287         2.45343        -0.08931
| 28>    H       -0.74582         1.40499        -1.50846
| 29>    H        3.16507         2.82642         0.15148
| 30>    H        0.66400         3.28449        -1.55379
| 31>    H        2.10308         4.38167        -1.32654
| 32> *
| 33> 
| 34>                          ****END OF INPUT****
================================================================================

                       *****************************
                       * Geometry Optimization Run *
                       *****************************

Geometry optimization settings:
Update method            Update   .... BFGS
Choice of coordinates    CoordSys .... Z-matrix Internals
Initial Hessian          InHess   .... Almoef's Model

Convergence Tolerances:
Energy Change            TolE     ....  5.0000e-06 Eh
Max. Gradient            TolMAXG  ....  3.0000e-04 Eh/bohr
RMS Gradient             TolRMSG  ....  1.0000e-04 Eh/bohr
Max. Displacement        TolMAXD  ....  4.0000e-03 bohr
RMS Displacement         TolRMSD  ....  2.0000e-03 bohr
Strict Convergence                ....  False
------------------------------------------------------------------------------
                        ORCA OPTIMIZATION COORDINATE SETUP
------------------------------------------------------------------------------

The optimization will be done in new redundant internal coordinates
Making redundant internal coordinates   ...  (new redundants) done
Evaluating the initial hessian          ...  (Almloef) done
Evaluating the coordinates              ...  done
Calculating the B-matrix                .... done
Calculating the G-matrix                .... done
Diagonalizing the G-matrix              .... done
Small eigenvalue found = 1.356e-02
The first mode is                       ....   76
The number of degrees of freedom        ....   75

    -----------------------------------------------------------------
                    Redundant Internal Coordinates


    -----------------------------------------------------------------
         Definition                    Initial Value    Approx d2E/dq
    -----------------------------------------------------------------
      1. B(S   1,C   0)                  1.7097         0.520598   
      2. B(C   2,S   1)                  1.7411         0.463811   
      3. B(C   3,C   2)                  1.3760         0.657689   
      4. B(C   4,C   3)                  1.4181         0.563465   
      5. B(C   4,C   0)                  1.3618         0.692940   
      6. B(C   5,C   4)                  1.4995         0.417909   
      7. B(C   6,C   5)                  1.5311         0.372045   
      8. B(C   7,C   6)                  1.5252         0.380256   
      9. B(F   8,C   7)                  1.3425         0.618993   
     10. B(F   9,C   7)                  1.3450         0.613535   
     11. B(F  10,C   7)                  1.3363         0.633323   
     12. B(C  11,C   6)                  1.5398         0.360408   
     13. B(C  12,C  11)                  1.4474         0.506002   
     14. B(N  13,C  12)                  1.1421         1.391339   
     15. B(C  14,C   3)                  1.4969         0.421838   
     16. B(C  14,C  11)                  1.5380         0.362800   
     17. B(C  15,C   2)                  1.4410         0.517999   
     18. B(C  16,C  15)                  1.3302         0.778354   
     19. B(H  17,C   0)                  1.0717         0.385203   
     20. B(H  18,C   5)                  1.0946         0.354124   
     21. B(H  19,C   5)                  1.0928         0.356377   
     22. B(H  20,C   6)                  1.0969         0.351066   
     23. B(H  21,C  11)                  1.0973         0.350617   
     24. B(H  22,C  14)                  1.0937         0.355195   
     25. B(H  23,C  14)                  1.0943         0.354392   
     26. B(H  24,C  15)                  1.0833         0.369135   
     27. B(H  25,C  16)                  1.0738         0.382137   
     28. B(H  26,C  16)                  1.0763         0.378742   
     29. A(C   4,C   0,H  17)          127.7573         0.363797   
     30. A(S   1,C   0,H  17)          119.9476         0.364656   
     31. A(S   1,C   0,C   4)          112.2948         0.453020   
     32. A(C   0,S   1,C   2)           91.6301         0.444736   
     33. A(S   1,C   2,C  15)          117.0406         0.421024   
     34. A(C   3,C   2,C  15)          132.2845         0.424764   
     35. A(S   1,C   2,C   3)          110.6720         0.439461   
     36. A(C   2,C   3,C  14)          125.3032         0.409515   
     37. A(C   4,C   3,C  14)          121.9980         0.398492   
     38. A(C   2,C   3,C   4)          112.6983         0.431219   
     39. A(C   3,C   4,C   5)          123.6381         0.397837   
     40. A(C   0,C   4,C   5)          123.6424         0.412639   
     41. A(C   0,C   4,C   3)          112.6975         0.435287   
     42. A(C   4,C   5,H  19)          110.1330         0.329801   
     43. A(H  18,C   5,H  19)          107.4926         0.289604   
     44. A(C   6,C   5,H  18)          108.3046         0.323211   
     45. A(C   6,C   5,H  19)          110.0671         0.323548   
     46. A(C   4,C   5,C   6)          111.7580         0.370143   
     47. A(C   4,C   5,H  18)          108.9651         0.329456   
     48. A(C   7,C   6,H  20)          104.9939         0.323910   
     49. A(C  11,C   6,H  20)          109.0800         0.321077   
     50. A(C   5,C   6,H  20)          109.5408         0.322752   
     51. A(C   5,C   6,C   7)          110.6983         0.364199   
     52. A(C   7,C   6,C  11)          111.6490         0.362226   
     53. A(C   5,C   6,C  11)          110.7019         0.360880   
     54. A(F   9,C   7,F  10)          106.2884         0.425450   
     55. A(F   8,C   7,F  10)          106.1723         0.426125   
     56. A(C   6,C   7,F  10)          114.8998         0.395138   
     57. A(F   8,C   7,F   9)          106.3110         0.423712   
     58. A(C   6,C   7,F   9)          111.9314         0.392946   
     59. A(C   6,C   7,F   8)          110.6988         0.393556   
     60. A(C  12,C  11,C  14)          109.4774         0.380915   
     61. A(C   6,C  11,C  14)          112.4484         0.359336   
     62. A(C  14,C  11,H  21)          109.1525         0.321357   
     63. A(C  12,C  11,H  21)          107.4169         0.339530   
     64. A(C   6,C  11,H  21)          109.5933         0.321010   
     65. A(C   6,C  11,C  12)          108.6236         0.380478   
     66. L(C  11,C  12,N  13,C   6, 2) 179.1966         0.481460   
     67. L(C  11,C  12,N  13,C   6, 1) 180.2142         0.481460   
     68. A(C   3,C  14,C  11)          111.7749         0.369139   
     69. A(H  22,C  14,H  23)          107.7243         0.289488   
     70. A(C  11,C  14,H  23)          108.9075         0.321921   
     71. A(C   3,C  14,H  23)          109.6011         0.330007   
     72. A(C  11,C  14,H  22)          109.0138         0.322041   
     73. A(C   3,C  14,H  22)          109.7262         0.330130   
     74. A(C   2,C  15,C  16)          127.8760         0.437813   
     75. A(C  16,C  15,H  24)          118.6519         0.368414   
     76. A(C   2,C  15,H  24)          113.4576         0.343813   
     77. A(H  25,C  16,H  26)          116.0463         0.295922   
     78. A(C  15,C  16,H  26)          120.3734         0.370044   
     79. A(C  15,C  16,H  25)          123.5660         0.370612   
     80. D(C   2,S   1,C   0,H  17)    179.4445         0.005533   
     81. D(C   2,S   1,C   0,C   4)     -0.7443         0.005533   
     82. D(C  15,C   2,S   1,C   0)   -179.7577         0.004666   
     83. D(C   3,C   2,S   1,C   0)      0.7884         0.004666   
     84. D(C   4,C   3,C   2,S   1)     -0.6459         0.030168   
     85. D(C  14,C   3,C   2,S   1)    179.6111         0.030168   
     86. D(C   4,C   3,C   2,C  15)   -179.9884         0.030168   
     87. D(C  14,C   3,C   2,C  15)      0.2685         0.030168   
     88. D(C   0,C   4,C   3,C  14)    179.8513         0.021758   
     89. D(C   0,C   4,C   3,C   2)      0.0986         0.021758   
     90. D(C   5,C   4,C   3,C   2)    178.4425         0.021758   
     91. D(C   5,C   4,C   0,S   1)   -177.8324         0.033761   
     92. D(C   3,C   4,C   0,S   1)      0.5115         0.033761   
     93. D(C   5,C   4,C   0,H  17)      1.9606         0.033761   
     94. D(C   3,C   4,C   0,H  17)   -179.6955         0.033761   
     95. D(C   5,C   4,C   3,C  14)     -1.8047         0.021758   
     96. D(H  19,C   5,C   4,C   3)    139.7759         0.012918   
     97. D(H  19,C   5,C   4,C   0)    -42.0593         0.012918   
     98. D(H  18,C   5,C   4,C   3)   -102.5460         0.012918   
     99. D(H  18,C   5,C   4,C   0)     75.6187         0.012918   
    100. D(C   6,C   5,C   4,C   3)     17.1057         0.012918   
    101. D(C   6,C   5,C   4,C   0)   -164.7295         0.012918   
    102. D(H  20,C   6,C   5,H  19)     71.5370         0.011058   
    103. D(C  11,C   6,C   5,H  19)   -168.1359         0.011058   
    104. D(C  11,C   6,C   5,H  18)     74.6119         0.011058   
    105. D(C  11,C   6,C   5,C   4)    -45.4281         0.011058   
    106. D(H  20,C   6,C   5,H  18)    -45.7152         0.011058   
    107. D(C   7,C   6,C   5,H  19)    -43.7765         0.011058   
    108. D(C   7,C   6,C   5,H  18)   -161.0287         0.011058   
    109. D(H  20,C   6,C   5,C   4)   -165.7552         0.011058   
    110. D(C   7,C   6,C   5,C   4)     78.9314         0.011058   
    111. D(F  10,C   7,C   6,H  20)   -168.3397         0.011523   
    112. D(F  10,C   7,C   6,C   5)    -50.2174         0.011523   
    113. D(F   9,C   7,C   6,H  20)     70.3125         0.011523   
    114. D(F   9,C   7,C   6,C  11)    -47.7479         0.011523   
    115. D(F   9,C   7,C   6,C   5)   -171.5652         0.011523   
    116. D(F   8,C   7,C   6,H  20)    -48.0981         0.011523   
    117. D(F  10,C   7,C   6,C  11)     73.5999         0.011523   
    118. D(F   8,C   7,C   6,C  11)   -166.1585         0.011523   
    119. D(F   8,C   7,C   6,C   5)     70.0243         0.011523   
    120. D(H  21,C  11,C   6,H  20)    -56.1990         0.010419   
    121. D(H  21,C  11,C   6,C   7)     59.3842         0.010419   
    122. D(H  21,C  11,C   6,C   5)   -176.8006         0.010419   
    123. D(C  14,C  11,C   6,H  20)   -177.7909         0.010419   
    124. D(C  14,C  11,C   6,C   7)    -62.2077         0.010419   
    125. D(C  14,C  11,C   6,C   5)     61.6075         0.010419   
    126. D(C  12,C  11,C   6,H  20)     60.8808         0.010419   
    127. D(C  12,C  11,C   6,C   7)    176.4640         0.010419   
    128. D(C  12,C  11,C   6,C   5)    -59.7208         0.010419   
    129. D(H  23,C  14,C  11,C   6)     76.3414         0.010549   
    130. D(H  22,C  14,C  11,H  21)     71.7829         0.010549   
    131. D(H  22,C  14,C  11,C  12)    -45.5351         0.010549   
    132. D(C   3,C  14,C  11,H  21)   -166.7446         0.010549   
    133. D(C   3,C  14,C  11,C  12)     75.9374         0.010549   
    134. D(C   3,C  14,C  11,C   6)    -44.9019         0.010549   
    135. D(H  23,C  14,C   3,C   4)   -105.3331         0.013155   
    136. D(H  23,C  14,C   3,C   2)     74.3874         0.013155   
    137. D(H  22,C  14,C  11,C   6)   -166.3744         0.010549   
    138. D(H  22,C  14,C   3,C   4)    136.5677         0.013155   
    139. D(H  22,C  14,C   3,C   2)    -43.7118         0.013155   
    140. D(C  11,C  14,C   3,C   4)     15.5077         0.013155   
    141. D(H  23,C  14,C  11,C  12)   -162.8193         0.010549   
    142. D(C  11,C  14,C   3,C   2)   -164.7718         0.013155   
    143. D(H  23,C  14,C  11,H  21)    -45.5013         0.010549   
    144. D(H  24,C  15,C   2,C   3)    165.2673         0.018296   
    145. D(H  24,C  15,C   2,S   1)    -14.0421         0.018296   
    146. D(C  16,C  15,C   2,C   3)    -16.1585         0.018296   
    147. D(C  16,C  15,C   2,S   1)    164.5321         0.018296   
    148. D(H  26,C  16,C  15,H  24)     -1.3670         0.043527   
    149. D(H  26,C  16,C  15,C   2)   -179.8764         0.043527   
    150. D(H  25,C  16,C  15,H  24)    177.1992         0.043527   
    151. D(H  25,C  16,C  15,C   2)     -1.3103         0.043527   
    -----------------------------------------------------------------

Number of atoms                         .... 27
Number of degrees of freedom            .... 151

         *************************************************************
         *                GEOMETRY OPTIMIZATION CYCLE   1            *
         *************************************************************
---------------------------------
CARTESIAN COORDINATES (ANGSTROEM)
---------------------------------
  C      1.602990   -0.959170    1.161430
  S      2.813600    0.227190    0.937990
  C      1.678920    1.315580    0.190090
  C      0.422720    0.755390    0.149860
  C      0.386810   -0.548270    0.706870
  C     -0.862770   -1.369480    0.819040
  C     -1.974490   -0.838350   -0.089970
  C     -1.748440   -1.279680   -1.532290
  F     -1.951750   -2.600400   -1.661820
  F     -2.603220   -0.680920   -2.380660
  F     -0.521910   -1.043560   -2.007260
  C     -2.086190    0.693080    0.024610
  C     -2.382250    1.033330    1.399950
  N     -2.606500    1.306530    2.485950
  C     -0.798860    1.410370   -0.415410
  C      2.186160    2.591150   -0.248300
  C      1.611150    3.457190   -1.078190
  H      1.850200   -1.896240    1.618850
  H     -1.218980   -1.335690    1.853460
  H     -0.649210   -2.414040    0.579120
  H     -2.931490   -1.290250    0.198410
  H     -2.923730    1.047870   -0.589100
  H     -0.842870    2.453430   -0.089310
  H     -0.745820    1.404990   -1.508460
  H      3.165070    2.826420    0.151480
  H      0.664000    3.284490   -1.553790
  H      2.103080    4.381670   -1.326540

----------------------------
CARTESIAN COORDINATES (A.U.)
----------------------------
  NO LB      ZA    FRAG     MASS         X           Y           Z
   0 C     6.0000    0    12.011    3.029212   -1.812569    2.194785
   1 S    16.0000    0    32.060    5.316933    0.429327    1.772544
   2 C     6.0000    0    12.011    3.172699    2.486086    0.359218
   3 C     6.0000    0    12.011    0.798825    1.427480    0.283194
   4 C     6.0000    0    12.011    0.730965   -1.036080    1.335791
   5 C     6.0000    0    12.011   -1.630399   -2.587942    1.547761
   6 C     6.0000    0    12.011   -3.731245   -1.584252   -0.170019
   7 C     6.0000    0    12.011   -3.304073   -2.418245   -2.895608
   8 F     9.0000    0    18.998   -3.688273   -4.914044   -3.140385
   9 F     9.0000    0    18.998   -4.919373   -1.286752   -4.498795
  10 F     9.0000    0    18.998   -0.986267   -1.972043   -3.793172
  11 C     6.0000    0    12.011   -3.942328    1.309731    0.046506
  12 C     6.0000    0    12.011   -4.501800    1.952711    2.645522
  13 N     7.0000    0    14.007   -4.925571    2.468984    4.697765
  14 C     6.0000    0    12.011   -1.509627    2.665213   -0.785011
  15 C     6.0000    0    12.011    4.131244    4.896564   -0.469219
  16 C     6.0000    0    12.011    3.044632    6.533142   -2.037484
  17 H     1.0000    0     1.008    3.496371   -3.583374    3.059183
  18 H     1.0000    0     1.008   -2.303538   -2.524088    3.502532
  19 H     1.0000    0     1.008   -1.226829   -4.561874    1.094378
  20 H     1.0000    0     1.008   -5.539713   -2.438219    0.374941
  21 H     1.0000    0     1.008   -5.525049    1.980187   -1.113238
  22 H     1.0000    0     1.008   -1.592793    4.636311   -0.168771
  23 H     1.0000    0     1.008   -1.409396    2.655046   -2.850576
  24 H     1.0000    0     1.008    5.981115    5.341160    0.286256
  25 H     1.0000    0     1.008    1.254778    6.206787   -2.936238
  26 H     1.0000    0     1.008    3.974245    8.280156   -2.506797

--------------------------------
INTERNAL COORDINATES (ANGSTROEM)
--------------------------------
 C      0   0   0     0.000000000000     0.00000000     0.00000000
 S      1   0   0     1.709664310705     0.00000000     0.00000000
 C      2   1   0     1.741104794233    91.63011029     0.00000000
 C      3   2   1     1.376034058081   110.67203203     0.78839715
 C      1   2   3     1.361821352454   112.29483638   359.25568474
 C      5   1   2     1.499472623758   123.64238236   182.16760000
 C      6   5   1     1.531117113548   111.75803732   195.27046699
 C      7   6   5     1.525174663375   110.69825596    78.93135843
 F      8   7   6     1.342540239769   110.69882734    70.02425555
 F      8   7   6     1.344951316182   111.93139462   188.43482110
 F      8   7   6     1.336310217053   114.89978849   309.78264973
 C      7   6   5     1.539767291281   110.70191188   314.57194389
 C     12   7   6     1.447405161556   108.62363568   300.27921543
 N     13  12   7     1.142069307223   179.47265623   114.28912621
 C      4   3   2     1.496925739541   125.30317680   179.61107730
 C      3   2   1     1.441026382340   117.04056081   180.24231681
 C     16   3   2     1.330180135846   127.87595058   164.53208784
 H      1   2   3     1.071655740152   119.94756808   179.44452821
 H      6   5   1     1.094555647101   108.96508859    75.61872424
 H      6   5   1     1.092828931535   110.13303483   317.94069441
 H      7   6   5     1.096916420882   109.54079050   194.24484325
 H     12   7   6     1.097264398311   109.59331427   183.19942467
 H     15   4   3     1.093733172991   109.72623312   316.28818844
 H     15   4   3     1.094349344816   109.60106682    74.38739569
 H     16   3   2     1.083254729692   113.45755528   345.95792439
 H     17  16   3     1.073831351982   123.56595015   358.68974809
 H     17  16   3     1.076260246316   120.37342102   180.12357426

---------------------------
INTERNAL COORDINATES (A.U.)
---------------------------
 C      0   0   0     0.000000000000     0.00000000     0.00000000
 S      1   0   0     3.230797328173     0.00000000     0.00000000
 C      2   1   0     3.290211231557    91.63011029     0.00000000
 C      3   2   1     2.600327520722   110.67203203     0.78839715
 C      1   2   3     2.573469399465   112.29483638   359.25568474
 C      5   1   2     2.833592604215   123.64238236   182.16760000
 C      6   5   1     2.893392023566   111.75803732   195.27046699
 C      7   6   5     2.882162420174   110.69825596    78.93135843
 F      8   7   6     2.537033376933   110.69882734    70.02425555
 F      8   7   6     2.541589651041   111.93139462   188.43482110
 F      8   7   6     2.525260340191   114.89978849   309.78264973
 C      7   6   5     2.909738490492   110.70191188   314.57194389
 C     12   7   6     2.735199360166   108.62363568   300.27921543
 N     13  12   7     2.158198216608   179.47265623   114.28912621
 C      4   3   2     2.828779690550   125.30317680   179.61107730
 C      3   2   1     2.723145214378   117.04056081   180.24231681
 C     16   3   2     2.513676165532   127.87595058   164.53208784
 H      1   2   3     2.025135858731   119.94756808   179.44452821
 H      6   5   1     2.068410411357   108.96508859    75.61872424
 H      6   5   1     2.065147391827   110.13303483   317.94069441
 H      7   6   5     2.072871627268   109.54079050   194.24484325
 H     12   7   6     2.073529209309   109.59331427   183.19942467
 H     15   4   3     2.066856160537   109.72623312   316.28818844
 H     15   4   3     2.068020556539   109.60106682    74.38739569
 H     16   3   2     2.047054772393   113.45755528   345.95792439
 H     17  16   3     2.029247169265   123.56595015   358.68974809
 H     17  16   3     2.033837114364   120.37342102   180.12357426

---------------------
BASIS SET INFORMATION
---------------------
There are 5 groups of distinct atoms

 Group   1 Type C   : 7s4p1d contracted to 3s2p1d pattern {511/31/1}
 Group   2 Type S   : 10s7p1d contracted to 4s3p1d pattern {5311/511/1}
 Group   3 Type F   : 7s4p1d contracted to 3s2p1d pattern {511/31/1}
 Group   4 Type N   : 7s4p1d contracted to 3s2p1d pattern {511/31/1}
 Group   5 Type H   : 4s1p contracted to 2s1p pattern {31/1}

Atom   0C    basis set group =>   1
Atom   1S    basis set group =>   2
Atom   2C    basis set group =>   1
Atom   3C    basis set group =>   1
Atom   4C    basis set group =>   1
Atom   5C    basis set group =>   1
Atom   6C    basis set group =>   1
Atom   7C    basis set group =>   1
Atom   8F    basis set group =>   3
Atom   9F    basis set group =>   3
Atom  10F    basis set group =>   3
Atom  11C    basis set group =>   1
Atom  12C    basis set group =>   1
Atom  13N    basis set group =>   4
Atom  14C    basis set group =>   1
Atom  15C    basis set group =>   1
Atom  16C    basis set group =>   1
Atom  17H    basis set group =>   5
Atom  18H    basis set group =>   5
Atom  19H    basis set group =>   5
Atom  20H    basis set group =>   5
Atom  21H    basis set group =>   5
Atom  22H    basis set group =>   5
Atom  23H    basis set group =>   5
Atom  24H    basis set group =>   5
Atom  25H    basis set group =>   5
Atom  26H    basis set group =>   5
---------------------------------
AUXILIARY/J BASIS SET INFORMATION
---------------------------------
There are 5 groups of distinct atoms

 Group   1 Type C   : 12s5p4d2f1g contracted to 6s4p3d1f1g pattern {711111/2111/211/2/1}
 Group   2 Type S   : 14s5p5d2f1g contracted to 8s4p3d1f1g pattern {71111111/2111/311/2/1}
 Group   3 Type F   : 12s5p4d2f1g contracted to 6s4p3d1f1g pattern {711111/2111/211/2/1}
 Group   4 Type N   : 12s5p4d2f1g contracted to 6s4p3d1f1g pattern {711111/2111/211/2/1}
 Group   5 Type H   : 5s2p1d contracted to 3s1p1d pattern {311/2/1}

Atom   0C    basis set group =>   1
Atom   1S    basis set group =>   2
Atom   2C    basis set group =>   1
Atom   3C    basis set group =>   1
Atom   4C    basis set group =>   1
Atom   5C    basis set group =>   1
Atom   6C    basis set group =>   1
Atom   7C    basis set group =>   1
Atom   8F    basis set group =>   3
Atom   9F    basis set group =>   3
Atom  10F    basis set group =>   3
Atom  11C    basis set group =>   1
Atom  12C    basis set group =>   1
Atom  13N    basis set group =>   4
Atom  14C    basis set group =>   1
Atom  15C    basis set group =>   1
Atom  16C    basis set group =>   1
Atom  17H    basis set group =>   5
Atom  18H    basis set group =>   5
Atom  19H    basis set group =>   5
Atom  20H    basis set group =>   5
Atom  21H    basis set group =>   5
Atom  22H    basis set group =>   5
Atom  23H    basis set group =>   5
Atom  24H    basis set group =>   5
Atom  25H    basis set group =>   5
Atom  26H    basis set group =>   5
------------------------------------------------------------------------------
                           ORCA GTO INTEGRAL CALCULATION
                           -- RI-GTO INTEGRALS CHOSEN --
------------------------------------------------------------------------------

                         BASIS SET STATISTICS AND STARTUP INFO

Gaussian basis set:
 # of primitive gaussian shells          ...  260
 # of primitive gaussian functions       ...  490
 # of contracted shells                  ...  134
 # of contracted basis functions         ...  292
 Highest angular momentum                ...    2
 Maximum contraction depth               ...    5
Auxiliary gaussian basis set:
 # of primitive gaussian shells          ...  491
 # of primitive gaussian functions       ... 1357
 # of contracted shells                  ...  307
 # of contracted aux-basis functions     ...  945
 Highest angular momentum                ...    4
 Maximum contraction depth               ...    7
Ratio of auxiliary to basis functions    ...  3.24
Integral package used                  ... LIBINT
 One Electron integrals                  ... done
 Ordering auxiliary basis shells         ... done
 Integral threshhold             Thresh  ...  2.500e-11
 Primitive cut-off               TCut    ...  2.500e-12
 Pre-screening matrix                    ... done
 Shell pair data                         ... 
 Ordering of the shell pairs             ... done (   0.001 sec) 7713 of 9045 pairs
 Determination of significant pairs      ... done (   0.000 sec)
 Creation of shell pair data             ... done (   0.001 sec)
 Storage of shell pair data              ... done (   0.002 sec)
 Shell pair data done in (   0.004 sec)
 Computing two index integrals           ... done
 Cholesky decomposition of the V-matrix  ... done


Timings:
 Total evaluation time                   ...   0.253 sec (  0.004 min)
 One electron matrix time                ...   0.041 sec (  0.001 min) = 16.4%
 Schwartz matrix evaluation time         ...   0.114 sec (  0.002 min) = 45.1%
 Two index repulsion integral time       ...   0.027 sec (  0.000 min) = 10.5%
 Cholesky decomposition of V             ...   0.052 sec (  0.001 min) = 20.7%
 Three index repulsion integral time     ...   0.000 sec (  0.000 min) =  0.0%

-------------------------------------------------------------------------------
                                 ORCA SCF
-------------------------------------------------------------------------------

------------
SCF SETTINGS
------------
Hamiltonian:
 Density Functional     Method          .... DFT(GTOs)
 Exchange Functional    Exchange        .... B88
   X-Alpha parameter    XAlpha          ....  0.666667
   Becke's b parameter  XBeta           ....  0.004200
 Correlation Functional Correlation     .... LYP
 LDA part of GGA corr.  LDAOpt          .... VWN-3
 Gradients option       PostSCFGGA      .... off
 Hybrid DFT is turned on
   Fraction HF Exchange ScalHFX         ....  0.200000
   Scaling of DF-GGA-X  ScalDFX         ....  0.720000
   Scaling of DF-GGA-C  ScalDFC         ....  0.810000
   Scaling of DF-LDA-C  ScalLDAC        ....  1.000000
   Perturbative correction              ....  0.000000
   Density functional embedding theory  .... OFF
   NL short-range parameter             ....  4.800000
 RI-approximation to the Coulomb term is turned on
   Number of auxiliary basis functions  .... 945
   RIJ-COSX (HFX calculated with COS-X)).... on


General Settings:
 Integral files         IntName         .... 1031
 Hartree-Fock type      HFTyp           .... RHF
 Total Charge           Charge          ....    0
 Multiplicity           Mult            ....    1
 Number of Electrons    NEL             ....  132
 Basis Dimension        Dim             ....  292
 Nuclear Repulsion      ENuc            ....   1381.4749937637 Eh

Convergence Acceleration:
 DIIS                   CNVDIIS         .... on
   Start iteration      DIISMaxIt       ....    12
   Startup error        DIISStart       ....  0.200000
   # of expansion vecs  DIISMaxEq       ....     5
   Bias factor          DIISBfac        ....   1.050
   Max. coefficient     DIISMaxC        ....  10.000
 Newton-Raphson         CNVNR           .... off
 SOSCF                  CNVSOSCF        .... on
   Start iteration      SOSCFMaxIt      ....   150
   Startup grad/error   SOSCFStart      ....  0.003300
 Level Shifting         CNVShift        .... on
   Level shift para.    LevelShift      ....    0.2500
   Turn off err/grad.   ShiftErr        ....    0.0010
 Zerner damping         CNVZerner       .... off
 Static damping         CNVDamp         .... on
   Fraction old density DampFac         ....    0.7000
   Max. Damping (<1)    DampMax         ....    0.9800
   Min. Damping (>=0)   DampMin         ....    0.0000
   Turn off err/grad.   DampErr         ....    0.1000
 Fernandez-Rico         CNVRico         .... off

SCF Procedure:
 Maximum # iterations   MaxIter         ....   125
 SCF integral mode      SCFMode         .... Direct
   Integral package                     .... LIBINT
 Reset frequency        DirectResetFreq ....    20
 Integral Threshold     Thresh          ....  2.500e-11 Eh
 Primitive CutOff       TCut            ....  2.500e-12 Eh

Convergence Tolerance:
 Convergence Check Mode ConvCheckMode   .... Total+1el-Energy
 Convergence forced     ConvForced      .... 0
 Energy Change          TolE            ....  1.000e-08 Eh
 1-El. energy change                    ....  1.000e-05 Eh
 Orbital Gradient       TolG            ....  1.000e-05
 Orbital Rotation angle TolX            ....  1.000e-05
 DIIS Error             TolErr          ....  5.000e-07


Diagonalization of the overlap matrix:
Smallest eigenvalue                        ... 4.073e-04
Time for diagonalization                   ...    0.058 sec
Threshold for overlap eigenvalues          ... 1.000e-08
Number of eigenvalues below threshold      ... 0
Time for construction of square roots      ...    0.005 sec
Total time needed                          ...    0.064 sec

-------------------
DFT GRID GENERATION
-------------------

General Integration Accuracy     IntAcc      ...  4.340
Radial Grid Type                 RadialGrid  ... Gauss-Chebyshev
Angular Grid (max. acc.)         AngularGrid ... Lebedev-110
Angular grid pruning method      GridPruning ... 3 (G Style)
Weight generation scheme         WeightScheme... Becke
Basis function cutoff            BFCut       ...    1.0000e-11
Integration weight cutoff        WCut        ...    1.0000e-14
Grids for H and He will be reduced by one unit

# of grid points (after initial pruning)     ...  36540 (   0.0 sec)
# of grid points (after weights+screening)   ...  32807 (   0.1 sec)
nearest neighbour list constructed           ...    0.0 sec
Grid point re-assignment to atoms done       ...    0.0 sec
Grid point division into batches done        ...    0.0 sec
Reduced shell lists constructed in    0.3 sec

Total number of grid points                  ...    32807
Total number of batches                      ...      523
Average number of points per batch           ...       62
Average number of grid points per atom       ...     1215
Average number of shells per batch           ...    79.53 (59.35%)
Average number of basis functions per batch  ...   167.70 (57.43%)
Average number of large shells per batch     ...    56.20 (70.66%)
Average number of large basis fcns per batch ...   116.55 (69.50%)
Maximum spatial batch extension              ...  18.58, 19.73, 24.56 au
Average spatial batch extension              ...   3.42,  3.50,  3.52 au

Time for grid setup =    0.486 sec

------------------------------
INITIAL GUESS: MODEL POTENTIAL
------------------------------
Loading Hartree-Fock densities                     ... done
Calculating cut-offs                               ... done
Setting up the integral package                    ... done
Initializing the effective Hamiltonian             ... done
Starting the Coulomb interaction                   ... done (   0.4 sec)
Reading the grid                                   ... done
Mapping shells                                     ... done
Starting the XC term evaluation                    ... done (   0.5 sec)
  promolecular density results
     # of electrons  =    131.984949115
     EX              =   -126.484158540
     EC              =     -4.711949126
     EX+EC           =   -131.196107666
Transforming the Hamiltonian                       ... done (   0.0 sec)
Diagonalizing the Hamiltonian                      ... done (   0.0 sec)
Back transforming the eigenvectors                 ... done (   0.0 sec)
Now organizing SCF variables                       ... done
                      ------------------
                      INITIAL GUESS DONE (   1.5 sec)
                      ------------------
--------------------
COSX GRID GENERATION
--------------------

General Integration Accuracy     IntAcc      ...  3.340
Radial Grid Type                 RadialGrid  ... Gauss-Chebyshev
Angular Grid (max. acc.)         AngularGrid ... Lebedev-50
Angular grid pruning method      GridPruning ... 3 (G Style)
Weight generation scheme         WeightScheme... Becke
Basis function cutoff            BFCut       ...    1.0000e-11
Integration weight cutoff        WCut        ...    1.0000e-14
Grids for H and He will be reduced by one unit

# of grid points (after initial pruning)     ...  13172 (   0.0 sec)
# of grid points (after weights+screening)   ...  11983 (   0.0 sec)
nearest neighbour list constructed           ...    0.0 sec
Grid point re-assignment to atoms done       ...    0.0 sec
Grid point division into batches done        ...    0.0 sec
Reduced shell lists constructed in    0.1 sec

Total number of grid points                  ...    11983
Total number of batches                      ...      200
Average number of points per batch           ...       59
Average number of grid points per atom       ...      444
Average number of shells per batch           ...    85.21 (63.59%)
Average number of basis functions per batch  ...   181.19 (62.05%)
Average number of large shells per batch     ...    61.06 (71.66%)
Average number of large basis fcns per batch ...   127.88 (70.58%)
Maximum spatial batch extension              ...  16.42, 15.90, 20.98 au
Average spatial batch extension              ...   4.41,  4.50,  4.87 au

Overlap Fitting                  UseSFitting ... on
Constructing numerical overlap ... done (      0.1 sec)
Inverting numerical overlap    ... done (      0.0 sec)
Obtaining analytic overlap     ... done (      0.0 sec)
Final contraction and storage  ... done (      0.0 sec)


General Integration Accuracy     IntAcc      ...  3.670
Radial Grid Type                 RadialGrid  ... Gauss-Chebyshev
Angular Grid (max. acc.)         AngularGrid ... Lebedev-50
Angular grid pruning method      GridPruning ... 3 (G Style)
Weight generation scheme         WeightScheme... Becke
Basis function cutoff            BFCut       ...    1.0000e-11
Integration weight cutoff        WCut        ...    1.0000e-14
Grids for H and He will be reduced by one unit

# of grid points (after initial pruning)     ...  16526 (   0.0 sec)
# of grid points (after weights+screening)   ...  14979 (   0.1 sec)
nearest neighbour list constructed           ...    0.0 sec
Grid point re-assignment to atoms done       ...    0.0 sec
Grid point division into batches done        ...    0.0 sec
Reduced shell lists constructed in    0.2 sec

Total number of grid points                  ...    14979
Total number of batches                      ...      249
Average number of points per batch           ...       60
Average number of grid points per atom       ...      555
Average number of shells per batch           ...    84.12 (62.78%)
Average number of basis functions per batch  ...   178.59 (61.16%)
Average number of large shells per batch     ...    59.96 (71.28%)
Average number of large basis fcns per batch ...   125.08 (70.04%)
Maximum spatial batch extension              ...  18.57, 18.51, 23.06 au
Average spatial batch extension              ...   4.22,  4.42,  4.61 au

Overlap Fitting                  UseSFitting ... on
Constructing numerical overlap ... done (      0.1 sec)
Inverting numerical overlap    ... done (      0.0 sec)
Obtaining analytic overlap     ... done (      0.0 sec)
Final contraction and storage  ... done (      0.0 sec)


General Integration Accuracy     IntAcc      ...  4.010
Radial Grid Type                 RadialGrid  ... Gauss-Chebyshev
Angular Grid (max. acc.)         AngularGrid ... Lebedev-110
Angular grid pruning method      GridPruning ... 3 (G Style)
Weight generation scheme         WeightScheme... Becke
Basis function cutoff            BFCut       ...    1.0000e-11
Integration weight cutoff        WCut        ...    1.0000e-14
Grids for H and He will be reduced by one unit

# of grid points (after initial pruning)     ...  31734 (   0.0 sec)
# of grid points (after weights+screening)   ...  28575 (   0.1 sec)
nearest neighbour list constructed           ...    0.0 sec
Grid point re-assignment to atoms done       ...    0.0 sec
Grid point division into batches done        ...    0.0 sec
Reduced shell lists constructed in    0.3 sec

Total number of grid points                  ...    28575
Total number of batches                      ...      458
Average number of points per batch           ...       62
Average number of grid points per atom       ...     1058
Average number of shells per batch           ...    80.48 (60.06%)
Average number of basis functions per batch  ...   170.05 (58.24%)
Average number of large shells per batch     ...    57.13 (70.98%)
Average number of large basis fcns per batch ...   118.76 (69.84%)
Maximum spatial batch extension              ...  21.18, 19.08, 23.33 au
Average spatial batch extension              ...   3.56,  3.55,  3.64 au

Overlap Fitting                  UseSFitting ... on
Constructing numerical overlap ... done (      0.2 sec)
Inverting numerical overlap    ... done (      0.0 sec)
Obtaining analytic overlap     ... done (      0.0 sec)
Final contraction and storage  ... done (      0.0 sec)

Time for X-Grid setup             =    1.208 sec
--------------
SCF ITERATIONS
--------------
ITER       Energy         Delta-E        Max-DP      RMS-DP      [F,P]     Damp
               ***  Starting incremental Fock matrix formation  ***
  0  -1214.6081585283   0.000000000000 0.09212302  0.00209591  0.2283342 0.7000
  1  -1214.8083944303  -0.200235902023 0.05563916  0.00139948  0.0936048 0.7000
                               ***Turning on DIIS***
  2  -1214.8802652202  -0.071870789872 0.10114221  0.00230012  0.0307412 0.0000
  3  -1214.9932733162  -0.113008096066 0.03700184  0.00111061  0.0480979 0.0000
  4  -1215.0218857494  -0.028612433121 0.02243316  0.00034099  0.0217166 0.0000
  5  -1215.0237036666  -0.001817917219 0.01057812  0.00013802  0.0100614 0.0000
                      *** Initiating the SOSCF procedure ***
                           *** Shutting down DIIS ***
                      *** Re-Reading the Fockian *** 
                      *** Removing any level shift *** 
ITER      Energy       Delta-E        Grad      Rot      Max-DP    RMS-DP
  6  -1215.02387988  -0.0001762099  0.000424  0.000424  0.001429  0.000035
               *** Restarting incremental Fock matrix formation ***
  7  -1215.02388210  -0.0000022213  0.000203  0.000882  0.001046  0.000025
  8  -1215.02388084   0.0000012548  0.000254  0.000534  0.000662  0.000013
  9  -1215.02388437  -0.0000035227  0.000088  0.000335  0.000458  0.000008
 10  -1215.02388421   0.0000001574  0.000100  0.000155  0.000268  0.000005
 11  -1215.02388452  -0.0000003082  0.000026  0.000062  0.000112  0.000002
 12  -1215.02388447   0.0000000487  0.000049  0.000043  0.000074  0.000001
 13  -1215.02388453  -0.0000000646  0.000003  0.000009  0.000017  0.000000
 14  -1215.02388453  -0.0000000024  0.000005  0.000007  0.000009  0.000000
                  ***Gradient check signals convergence***
              ***Rediagonalizing the Fockian in SOSCF/NRSCF***

               *****************************************************
               *                     SUCCESS                       *
               *           SCF CONVERGED AFTER  15 CYCLES          *
               *****************************************************

Setting up the final grid:

General Integration Accuracy     IntAcc      ...  4.670
Radial Grid Type                 RadialGrid  ... Gauss-Chebyshev
Angular Grid (max. acc.)         AngularGrid ... Lebedev-302
Angular grid pruning method      GridPruning ... 3 (G Style)
Weight generation scheme         WeightScheme... Becke
Basis function cutoff            BFCut       ...    1.0000e-11
Integration weight cutoff        WCut        ...    1.0000e-14
Grids for H and He will be reduced by one unit

# of grid points (after initial pruning)     ... 140358 (   0.1 sec)
# of grid points (after weights+screening)   ... 123466 (   0.5 sec)
nearest neighbour list constructed           ...    0.0 sec
Grid point re-assignment to atoms done       ...    0.0 sec
Grid point division into batches done        ...    0.4 sec
Reduced shell lists constructed in    1.5 sec

Total number of grid points                  ...   123466
Total number of batches                      ...     1945
Average number of points per batch           ...       63
Average number of grid points per atom       ...     4573
Average number of shells per batch           ...    72.54 (54.13%)
Average number of basis functions per batch  ...   151.60 (51.92%)
Average number of large shells per batch     ...    50.23 (69.25%)
Average number of large basis fcns per batch ...   103.31 (68.15%)
Maximum spatial batch extension              ...  18.08, 21.42, 21.50 au
Average spatial batch extension              ...   2.28,  2.30,  2.31 au

Final grid set up in    2.0 sec
Final integration                            ... done (   2.0 sec)
Change in XC energy                          ...    -0.000221139
Integrated number of electrons               ...   131.999917934
Previous integrated no of electrons          ...   131.993454342
Old exchange energy                            =    -25.512829527 Eh
New exchange energy                            =    -25.512815574 Eh
Exchange energy change after final integration =      0.000013953 Eh
Total energy after final integration           =  -1215.024091718 Eh
Final COS-X integration done in                =    16.902 sec

----------------
TOTAL SCF ENERGY
----------------

Total Energy       :        -1215.02409172 Eh          -33062.48640 eV

Components:
Nuclear Repulsion  :         1381.47499376 Eh           37591.84571 eV
Electronic Energy  :        -2596.49908548 Eh          -70654.33211 eV
One Electron Energy:        -4412.81347449 Eh         -120078.75933 eV
Two Electron Energy:         1816.31438901 Eh           49424.42721 eV

Virial components:
Potential Energy   :        -2422.38260813 Eh          -65916.38189 eV
Kinetic Energy     :         1207.35851642 Eh           32853.89549 eV
Virial Ratio       :            2.00634905


DFT components:
N(Alpha)           :       65.999958967215 electrons
N(Beta)            :       65.999958967215 electrons
N(Total)           :      131.999917934430 electrons
E(X)               :     -101.376048809942 Eh       
E(C)               :       -6.022322472057 Eh       
E(XC)              :     -107.398371281999 Eh       
DFET-embed. en.    :        0.000000000000 Eh       

---------------
SCF CONVERGENCE
---------------

  Last Energy change         ...    3.3876e-09  Tolerance :   1.0000e-08
  Last MAX-Density change    ...    4.8850e-15  Tolerance :   1.0000e-07
  Last RMS-Density change    ...    4.8290e-17  Tolerance :   5.0000e-09
  Last Orbital Gradient      ...    7.6748e-07  Tolerance :   1.0000e-05
  Last Orbital Rotation      ...    2.2114e-06  Tolerance :   1.0000e-05

             **** THE GBW FILE WAS UPDATED (1031.gbw) ****
             **** DENSITY FILE WAS UPDATED (1031.scfp) ****
             **** ENERGY FILE WAS UPDATED (1031.en.tmp) ****
             **** THE GBW FILE WAS UPDATED (1031.gbw) ****
             **** DENSITY FILE WAS UPDATED (1031.scfp) ****
----------------
ORBITAL ENERGIES
----------------

  NO   OCC          E(Eh)            E(eV) 
   0   2.0000     -88.877718     -2418.4857 
   1   2.0000     -24.733479      -673.0322 
   2   2.0000     -24.731606      -672.9812 
   3   2.0000     -24.728961      -672.9092 
   4   2.0000     -14.331710      -389.9857 
   5   2.0000     -10.443901      -284.1930 
   6   2.0000     -10.257438      -279.1191 
   7   2.0000     -10.245188      -278.7857 
   8   2.0000     -10.230740      -278.3926 
   9   2.0000     -10.221028      -278.1283 
  10   2.0000     -10.219731      -278.0930 
  11   2.0000     -10.218265      -278.0531 
  12   2.0000     -10.212294      -277.8907 
  13   2.0000     -10.206850      -277.7425 
  14   2.0000     -10.204591      -277.6810 
  15   2.0000     -10.203741      -277.6579 
  16   2.0000     -10.191335      -277.3203 
  17   2.0000      -7.973404      -216.9674 
  18   2.0000      -5.941280      -161.6705 
  19   2.0000      -5.937434      -161.5658 
  20   2.0000      -5.934859      -161.4957 
  21   2.0000      -1.315293       -35.7909 
  22   2.0000      -1.220469       -33.2107 
  23   2.0000      -1.217412       -33.1275 
  24   2.0000      -0.921023       -25.0623 
  25   2.0000      -0.902181       -24.5496 
  26   2.0000      -0.868102       -23.6222 
  27   2.0000      -0.807363       -21.9695 
  28   2.0000      -0.786374       -21.3983 
  29   2.0000      -0.766702       -20.8630 
  30   2.0000      -0.730132       -19.8679 
  31   2.0000      -0.698678       -19.0120 
  32   2.0000      -0.667869       -18.1737 
  33   2.0000      -0.655885       -17.8475 
  34   2.0000      -0.612968       -16.6797 
  35   2.0000      -0.609869       -16.5954 
  36   2.0000      -0.605645       -16.4804 
  37   2.0000      -0.578940       -15.7538 
  38   2.0000      -0.561764       -15.2864 
  39   2.0000      -0.537945       -14.6382 
  40   2.0000      -0.514877       -14.0105 
  41   2.0000      -0.500828       -13.6282 
  42   2.0000      -0.485947       -13.2233 
  43   2.0000      -0.482410       -13.1270 
  44   2.0000      -0.475149       -12.9294 
  45   2.0000      -0.469565       -12.7775 
  46   2.0000      -0.464094       -12.6286 
  47   2.0000      -0.457047       -12.4369 
  48   2.0000      -0.438475       -11.9315 
  49   2.0000      -0.436153       -11.8683 
  50   2.0000      -0.432556       -11.7704 
  51   2.0000      -0.424774       -11.5587 
  52   2.0000      -0.421041       -11.4571 
  53   2.0000      -0.411452       -11.1962 
  54   2.0000      -0.391878       -10.6635 
  55   2.0000      -0.387211       -10.5366 
  56   2.0000      -0.378398       -10.2967 
  57   2.0000      -0.373172       -10.1545 
  58   2.0000      -0.365271        -9.9395 
  59   2.0000      -0.361086        -9.8257 
  60   2.0000      -0.351719        -9.5708 
  61   2.0000      -0.338215        -9.2033 
  62   2.0000      -0.337418        -9.1816 
  63   2.0000      -0.309779        -8.4295 
  64   2.0000      -0.255090        -6.9413 
  65   2.0000      -0.225346        -6.1320 
  66   0.0000      -0.050751        -1.3810 
  67   0.0000       0.010359         0.2819 
  68   0.0000       0.024308         0.6615 
  69   0.0000       0.025114         0.6834 
  70   0.0000       0.029619         0.8060 
  71   0.0000       0.041502         1.1293 
  72   0.0000       0.067250         1.8300 
  73   0.0000       0.073324         1.9953 
  74   0.0000       0.082749         2.2517 
  75   0.0000       0.093507         2.5444 
  76   0.0000       0.098942         2.6923 
  77   0.0000       0.107494         2.9251 
  78   0.0000       0.117813         3.2059 
  79   0.0000       0.120880         3.2893 
  80   0.0000       0.131038         3.5657 
  81   0.0000       0.133848         3.6422 
  82   0.0000       0.143476         3.9042 
  83   0.0000       0.156130         4.2485 
  84   0.0000       0.165346         4.4993 
  85   0.0000       0.189511         5.1568 
  86   0.0000       0.195780         5.3275 
  87   0.0000       0.208879         5.6839 
  88   0.0000       0.217356         5.9146 
  89   0.0000       0.227541         6.1917 
  90   0.0000       0.231289         6.2937 
  91   0.0000       0.245909         6.6915 
  92   0.0000       0.279864         7.6155 
  93   0.0000       0.296618         8.0714 
  94   0.0000       0.301760         8.2113 
  95   0.0000       0.316473         8.6117 
  96   0.0000       0.329826         8.9750 
  97   0.0000       0.346501         9.4288 
  98   0.0000       0.358953         9.7676 
  99   0.0000       0.373488        10.1631 
 100   0.0000       0.387185        10.5358 
 101   0.0000       0.399006        10.8575 
 102   0.0000       0.402830        10.9616 
 103   0.0000       0.409866        11.1530 
 104   0.0000       0.428782        11.6678 
 105   0.0000       0.436101        11.8669 
 106   0.0000       0.444634        12.0991 
 107   0.0000       0.470338        12.7985 
 108   0.0000       0.481622        13.1056 
 109   0.0000       0.492530        13.4024 
 110   0.0000       0.500596        13.6219 
 111   0.0000       0.506487        13.7822 
 112   0.0000       0.515989        14.0408 
 113   0.0000       0.521216        14.1830 
 114   0.0000       0.529852        14.4180 
 115   0.0000       0.541623        14.7383 
 116   0.0000       0.549138        14.9428 
 117   0.0000       0.575054        15.6480 
 118   0.0000       0.580716        15.8021 
 119   0.0000       0.591114        16.0850 
 120   0.0000       0.601673        16.3724 
 121   0.0000       0.603578        16.4242 
 122   0.0000       0.612778        16.6745 
 123   0.0000       0.618870        16.8403 
 124   0.0000       0.625014        17.0075 
 125   0.0000       0.632352        17.2072 
 126   0.0000       0.636504        17.3201 
 127   0.0000       0.639297        17.3961 
 128   0.0000       0.644215        17.5300 
 129   0.0000       0.651953        17.7405 
 130   0.0000       0.659330        17.9413 
 131   0.0000       0.663553        18.0562 
 132   0.0000       0.671903        18.2834 
 133   0.0000       0.678526        18.4636 
 134   0.0000       0.684689        18.6313 
 135   0.0000       0.687973        18.7207 
 136   0.0000       0.696436        18.9510 
 137   0.0000       0.706327        19.2201 
 138   0.0000       0.720002        19.5923 
 139   0.0000       0.722723        19.6663 
 140   0.0000       0.730928        19.8896 
 141   0.0000       0.749164        20.3858 
 142   0.0000       0.759832        20.6761 
 143   0.0000       0.770064        20.9545 
 144   0.0000       0.792746        21.5717 
 145   0.0000       0.797916        21.7124 
 146   0.0000       0.818704        22.2781 
 147   0.0000       0.822691        22.3866 
 148   0.0000       0.838046        22.8044 
 149   0.0000       0.863942        23.5091 
 150   0.0000       0.876423        23.8487 
 151   0.0000       0.883726        24.0474 
 152   0.0000       0.919663        25.0253 
 153   0.0000       0.931865        25.3573 
 154   0.0000       0.944285        25.6953 
 155   0.0000       0.964704        26.2509 
 156   0.0000       0.977007        26.5857 
 157   0.0000       1.002942        27.2914 
 158   0.0000       1.022088        27.8124 
 159   0.0000       1.036500        28.2046 
 160   0.0000       1.076883        29.3035 
 161   0.0000       1.092238        29.7213 
 162   0.0000       1.124224        30.5917 
 163   0.0000       1.131716        30.7956 
 164   0.0000       1.135817        30.9071 
 165   0.0000       1.146714        31.2037 
 166   0.0000       1.160914        31.5901 
 167   0.0000       1.170517        31.8514 
 168   0.0000       1.183922        32.2162 
 169   0.0000       1.205543        32.8045 
 170   0.0000       1.213056        33.0089 
 171   0.0000       1.223224        33.2856 
 172   0.0000       1.241147        33.7733 
 173   0.0000       1.251601        34.0578 
 174   0.0000       1.272980        34.6396 
 175   0.0000       1.283378        34.9225 
 176   0.0000       1.290001        35.1027 
 177   0.0000       1.325389        36.0657 
 178   0.0000       1.335674        36.3455 
 179   0.0000       1.346407        36.6376 
 180   0.0000       1.364927        37.1415 
 181   0.0000       1.375423        37.4272 
 182   0.0000       1.410457        38.3805 
 183   0.0000       1.428480        38.8709 
 184   0.0000       1.458873        39.6980 
 185   0.0000       1.472927        40.0804 
 186   0.0000       1.512811        41.1657 
 187   0.0000       1.527414        41.5630 
 188   0.0000       1.537027        41.8246 
 189   0.0000       1.546373        42.0789 
 190   0.0000       1.559365        42.4325 
 191   0.0000       1.586936        43.1827 
 192   0.0000       1.600775        43.5593 
 193   0.0000       1.633671        44.4544 
 194   0.0000       1.644009        44.7358 
 195   0.0000       1.665007        45.3071 
 196   0.0000       1.686196        45.8837 
 197   0.0000       1.687719        45.9252 
 198   0.0000       1.691315        46.0230 
 199   0.0000       1.729908        47.0732 
 200   0.0000       1.735555        47.2268 
 201   0.0000       1.742040        47.4033 
 202   0.0000       1.750505        47.6337 
 203   0.0000       1.764747        48.0212 
 204   0.0000       1.770720        48.1838 
 205   0.0000       1.778571        48.3974 
 206   0.0000       1.802807        49.0569 
 207   0.0000       1.819955        49.5235 
 208   0.0000       1.825867        49.6844 
 209   0.0000       1.831823        49.8464 
 210   0.0000       1.854149        50.4539 
 211   0.0000       1.865843        50.7722 
 212   0.0000       1.876654        51.0664 
 213   0.0000       1.888174        51.3798 
 214   0.0000       1.901454        51.7412 
 215   0.0000       1.917473        52.1771 
 216   0.0000       1.925360        52.3917 
 217   0.0000       1.933104        52.6024 
 218   0.0000       1.940037        52.7911 
 219   0.0000       1.948272        53.0152 
 220   0.0000       1.962717        53.4082 
 221   0.0000       1.974108        53.7182 
 222   0.0000       1.998633        54.3856 
 223   0.0000       1.999879        54.4195 
 224   0.0000       2.019065        54.9415 
 225   0.0000       2.038407        55.4679 
 226   0.0000       2.060377        56.0657 
 227   0.0000       2.072918        56.4070 
 228   0.0000       2.088885        56.8414 
 229   0.0000       2.097229        57.0685 
 230   0.0000       2.108694        57.3805 
 231   0.0000       2.122971        57.7690 
 232   0.0000       2.144134        58.3449 
 233   0.0000       2.161522        58.8180 
 234   0.0000       2.187288        59.5191 
 235   0.0000       2.192920        59.6724 
 236   0.0000       2.227179        60.6046 
 237   0.0000       2.231875        60.7324 
 238   0.0000       2.262642        61.5696 
 239   0.0000       2.282123        62.0997 
 240   0.0000       2.288755        62.2802 
 241   0.0000       2.293184        62.4007 
 242   0.0000       2.314271        62.9745 
 243   0.0000       2.339626        63.6645 
 244   0.0000       2.353050        64.0297 
 245   0.0000       2.375896        64.6514 
 246   0.0000       2.402436        65.3736 
 247   0.0000       2.415400        65.7264 
 248   0.0000       2.448897        66.6379 
 249   0.0000       2.458614        66.9023 
 250   0.0000       2.495945        67.9181 
 251   0.0000       2.506146        68.1957 
 252   0.0000       2.523040        68.6554 
 253   0.0000       2.558359        69.6165 
 254   0.0000       2.586276        70.3762 
 255   0.0000       2.638514        71.7976 
 256   0.0000       2.658753        72.3484 
 257   0.0000       2.670726        72.6741 
 258   0.0000       2.678982        72.8988 
 259   0.0000       2.733854        74.3919 
 260   0.0000       2.782378        75.7124 
 261   0.0000       2.841294        77.3155 
 262   0.0000       2.860632        77.8417 
 263   0.0000       2.864160        77.9378 
 264   0.0000       2.906486        79.0895 
 265   0.0000       2.927033        79.6486 
 266   0.0000       2.953351        80.3648 
 267   0.0000       2.975235        80.9603 
 268   0.0000       2.980408        81.1010 
 269   0.0000       2.997444        81.5646 
 270   0.0000       3.018467        82.1367 
 271   0.0000       3.030810        82.4725 
 272   0.0000       3.041929        82.7751 
 273   0.0000       3.044659        82.8494 
 274   0.0000       3.059787        83.2610 
 275   0.0000       3.068250        83.4913 
 276   0.0000       3.078445        83.7687 
 277   0.0000       3.089711        84.0753 
 278   0.0000       3.114769        84.7572 
 279   0.0000       3.133608        85.2698 
 280   0.0000       3.171256        86.2943 
 281   0.0000       3.184346        86.6505 
 282   0.0000       3.196048        86.9689 
 283   0.0000       3.224478        87.7425 
 284   0.0000       3.404846        92.6506 
 285   0.0000       3.435217        93.4770 
 286   0.0000       3.529151        96.0331 
 287   0.0000       3.552356        96.6645 
 288   0.0000       3.564894        97.0057 
 289   0.0000       3.648696        99.2861 
 290   0.0000       3.855488       104.9132 
 291   0.0000       3.866617       105.2160 

                    ********************************
                    * MULLIKEN POPULATION ANALYSIS *
                    ********************************

-----------------------
MULLIKEN ATOMIC CHARGES
-----------------------
   0 C :   -0.124380
   1 S :    0.117428
   2 C :   -0.172254
   3 C :   -0.020006
   4 C :   -0.047723
   5 C :    0.167438
   6 C :   -0.142882
   7 C :    0.528863
   8 F :   -0.166838
   9 F :   -0.175229
  10 F :   -0.157228
  11 C :   -0.059439
  12 C :   -0.241259
  13 N :    0.111671
  14 C :    0.128442
  15 C :    0.046345
  16 C :   -0.020038
  17 H :    0.002947
  18 H :    0.040876
  19 H :    0.020554
  20 H :    0.033205
  21 H :    0.039861
  22 H :    0.039336
  23 H :    0.046028
  24 H :   -0.018677
  25 H :    0.005372
  26 H :    0.017585
Sum of atomic charges:    0.0000000

--------------------------------
MULLIKEN REDUCED ORBITAL CHARGES
--------------------------------
  0 C s       :     3.208510  s :     3.208510
      pz      :     1.071700  p :     2.879454
      px      :     0.945650
      py      :     0.862104
      dz2     :     0.003750  d :     0.036416
      dxz     :     0.007637
      dyz     :     0.004347
      dx2y2   :     0.008293
      dxy     :     0.012389
  1 S s       :     5.846465  s :     5.846465
      pz      :     3.522549  p :     9.922694
      px      :     3.333390
      py      :     3.066755
      dz2     :     0.016917  d :     0.113413
      dxz     :     0.017182
      dyz     :     0.019648
      dx2y2   :     0.016875
      dxy     :     0.042791
  2 C s       :     3.088860  s :     3.088860
      pz      :     1.059877  p :     3.038655
      px      :     1.025046
      py      :     0.953733
      dz2     :     0.004974  d :     0.044739
      dxz     :     0.008762
      dyz     :     0.006386
      dx2y2   :     0.009465
      dxy     :     0.015151
  3 C s       :     3.086557  s :     3.086557
      pz      :     1.006311  p :     2.890223
      px      :     0.916259
      py      :     0.967653
      dz2     :     0.005330  d :     0.043226
      dxz     :     0.007707
      dyz     :     0.006428
      dx2y2   :     0.012778
      dxy     :     0.010983
  4 C s       :     3.089879  s :     3.089879
      pz      :     1.005940  p :     2.913104
      px      :     0.886082
      py      :     1.021082
      dz2     :     0.005723  d :     0.044740
      dxz     :     0.008301
      dyz     :     0.006152
      dx2y2   :     0.012938
      dxy     :     0.011627
  5 C s       :     2.881536  s :     2.881536
      pz      :     0.995969  p :     2.915187
      px      :     0.926998
      py      :     0.992220
      dz2     :     0.008356  d :     0.035838
      dxz     :     0.008366
      dyz     :     0.003236
      dx2y2   :     0.008472
      dxy     :     0.007408
  6 C s       :     3.111864  s :     3.111864
      pz      :     0.996338  p :     2.989543
      px      :     1.035837
      py      :     0.957368
      dz2     :     0.012243  d :     0.041475
      dxz     :     0.005595
      dyz     :     0.006467
      dx2y2   :     0.008969
      dxy     :     0.008200
  7 C s       :     2.939417  s :     2.939417
      pz      :     0.925517  p :     2.352616
      px      :     0.713769
      py      :     0.713330
      dz2     :     0.031635  d :     0.179104
      dxz     :     0.036628
      dyz     :     0.028593
      dx2y2   :     0.047030
      dxy     :     0.035217
  8 F s       :     3.891808  s :     3.891808
      pz      :     1.899962  p :     5.266895
      px      :     1.884891
      py      :     1.482042
      dz2     :     0.001183  d :     0.008135
      dxz     :     0.000122
      dyz     :     0.001807
      dx2y2   :     0.003260
      dxy     :     0.001762
  9 F s       :     3.894289  s :     3.894289
      pz      :     1.730573  p :     5.272899
      px      :     1.729644
      py      :     1.812681
      dz2     :     0.001379  d :     0.008041
      dxz     :     0.002520
      dyz     :     0.001551
      dx2y2   :     0.001063
      dxy     :     0.001528
 10 F s       :     3.895170  s :     3.895170
      pz      :     1.843196  p :     5.253677
      px      :     1.532397
      py      :     1.878084
      dz2     :     0.001107  d :     0.008381
      dxz     :     0.002553
      dyz     :     0.000350
      dx2y2   :     0.002713
      dxy     :     0.001658
 11 C s       :     2.986501  s :     2.986501
      pz      :     1.017649  p :     3.027137
      px      :     1.040200
      py      :     0.969288
      dz2     :     0.011631  d :     0.045801
      dxz     :     0.009091
      dyz     :     0.007165
      dx2y2   :     0.009503
      dxy     :     0.008410
 12 C s       :     3.129879  s :     3.129879
      pz      :     1.140021  p :     3.064064
      px      :     0.958753
      py      :     0.965290
      dz2     :     0.013958  d :     0.047316
      dxz     :     0.015576
      dyz     :     0.014467
      dx2y2   :     0.001897
      dxy     :     0.001418
 13 N s       :     3.477150  s :     3.477150
      pz      :     1.265074  p :     3.377988
      px      :     1.056480
      py      :     1.056433
      dz2     :     0.011665  d :     0.033191
      dxz     :     0.009688
      dyz     :     0.009817
      dx2y2   :     0.001013
      dxy     :     0.001007
 14 C s       :     2.894064  s :     2.894064
      pz      :     1.013560  p :     2.941047
      px      :     0.932433
      py      :     0.995053
      dz2     :     0.010530  d :     0.036447
      dxz     :     0.006239
      dyz     :     0.003287
      dx2y2   :     0.009071
      dxy     :     0.007321
 15 C s       :     3.138262  s :     3.138262
      pz      :     0.935192  p :     2.777715
      px      :     0.906328
      py      :     0.936195
      dz2     :     0.006791  d :     0.037678
      dxz     :     0.005340
      dyz     :     0.007724
      dx2y2   :     0.010369
      dxy     :     0.007454
 16 C s       :     3.093057  s :     3.093057
      pz      :     0.986656  p :     2.899655
      px      :     0.940067
      py      :     0.972931
      dz2     :     0.004804  d :     0.027326
      dxz     :     0.004865
      dyz     :     0.004341
      dx2y2   :     0.007082
      dxy     :     0.006235
 17 H s       :     0.972826  s :     0.972826
      pz      :     0.007556  p :     0.024227
      px      :     0.003942
      py      :     0.012729
 18 H s       :     0.935560  s :     0.935560
      pz      :     0.013531  p :     0.023564
      px      :     0.005174
      py      :     0.004859
 19 H s       :     0.956370  s :     0.956370
      pz      :     0.005094  p :     0.023076
      px      :     0.004439
      py      :     0.013543
 20 H s       :     0.945116  s :     0.945116
      pz      :     0.004518  p :     0.021680
      px      :     0.011898
      py      :     0.005264
 21 H s       :     0.938060  s :     0.938060
      pz      :     0.007684  p :     0.022079
      px      :     0.009789
      py      :     0.004606
 22 H s       :     0.937776  s :     0.937776
      pz      :     0.005433  p :     0.022888
      px      :     0.003939
      py      :     0.013516
 23 H s       :     0.930802  s :     0.930802
      pz      :     0.014227  p :     0.023170
      px      :     0.003987
      py      :     0.004956
 24 H s       :     0.995058  s :     0.995058
      pz      :     0.005977  p :     0.023619
      px      :     0.013110
      py      :     0.004532
 25 H s       :     0.969632  s :     0.969632
      pz      :     0.007121  p :     0.024996
      px      :     0.012886
      py      :     0.004989
 26 H s       :     0.957806  s :     0.957806
      pz      :     0.005430  p :     0.024609
      px      :     0.006772
      py      :     0.012407


                     *******************************
                     * LOEWDIN POPULATION ANALYSIS *
                     *******************************

----------------------
LOEWDIN ATOMIC CHARGES
----------------------
   0 C :   -0.191880
   1 S :    0.448778
   2 C :   -0.177160
   3 C :   -0.062352
   4 C :   -0.068637
   5 C :   -0.010118
   6 C :   -0.048117
   7 C :    0.166074
   8 F :   -0.061304
   9 F :   -0.066037
  10 F :   -0.046857
  11 C :   -0.041928
  12 C :   -0.032093
  13 N :   -0.062014
  14 C :   -0.007368
  15 C :   -0.037351
  16 C :   -0.048423
  17 H :    0.019155
  18 H :    0.044147
  19 H :    0.036641
  20 H :    0.047473
  21 H :    0.055301
  22 H :    0.042009
  23 H :    0.033821
  24 H :    0.026673
  25 H :    0.016718
  26 H :    0.024852

-------------------------------
LOEWDIN REDUCED ORBITAL CHARGES
-------------------------------
  0 C s       :     2.914584  s :     2.914584
      pz      :     1.098950  p :     3.188845
      px      :     1.049022
      py      :     1.040873
      dz2     :     0.007505  d :     0.088451
      dxz     :     0.017798
      dyz     :     0.009045
      dx2y2   :     0.022331
      dxy     :     0.031770
  1 S s       :     5.494527  s :     5.494527
      pz      :     3.486761  p :     9.916838
      px      :     3.367762
      py      :     3.062315
      dz2     :     0.020658  d :     0.139856
      dxz     :     0.019171
      dyz     :     0.025334
      dx2y2   :     0.018635
      dxy     :     0.056058
  2 C s       :     2.899877  s :     2.899877
      pz      :     1.067908  p :     3.169172
      px      :     1.057920
      py      :     1.043343
      dz2     :     0.010857  d :     0.108112
      dxz     :     0.019756
      dyz     :     0.012998
      dx2y2   :     0.025286
      dxy     :     0.039214
  3 C s       :     2.844616  s :     2.844616
      pz      :     1.021116  p :     3.105893
      px      :     1.044356
      py      :     1.040420
      dz2     :     0.011601  d :     0.111844
      dxz     :     0.017380
      dyz     :     0.015420
      dx2y2   :     0.037043
      dxy     :     0.030400
  4 C s       :     2.847180  s :     2.847180
      pz      :     1.017898  p :     3.106511
      px      :     1.050184
      py      :     1.038429
      dz2     :     0.013032  d :     0.114947
      dxz     :     0.018787
      dyz     :     0.014730
      dx2y2   :     0.036820
      dxy     :     0.031577
  5 C s       :     2.821187  s :     2.821187
      pz      :     1.044519  p :     3.097610
      px      :     1.005381
      py      :     1.047709
      dz2     :     0.021609  d :     0.091321
      dxz     :     0.021435
      dyz     :     0.007622
      dx2y2   :     0.020953
      dxy     :     0.019701
  6 C s       :     2.852475  s :     2.852475
      pz      :     1.016261  p :     3.093418
      px      :     1.060811
      py      :     1.016347
      dz2     :     0.030898  d :     0.102223
      dxz     :     0.014772
      dyz     :     0.015137
      dx2y2   :     0.023293
      dxy     :     0.018123
  7 C s       :     2.855909  s :     2.855909
      pz      :     0.990229  p :     2.600039
      px      :     0.797167
      py      :     0.812644
      dz2     :     0.072326  d :     0.377978
      dxz     :     0.074110
      dyz     :     0.058255
      dx2y2   :     0.102021
      dxy     :     0.071266
  8 F s       :     3.729716  s :     3.729716
      pz      :     1.896476  p :     5.318632
      px      :     1.887214
      py      :     1.534942
      dz2     :     0.002103  d :     0.012956
      dxz     :     0.000147
      dyz     :     0.002506
      dx2y2   :     0.005849
      dxy     :     0.002352
  9 F s       :     3.731000  s :     3.731000
      pz      :     1.746465  p :     5.322222
      px      :     1.751268
      py      :     1.824488
      dz2     :     0.001876  d :     0.012816
      dxz     :     0.004396
      dyz     :     0.002527
      dx2y2   :     0.001429
      dxy     :     0.002588
 10 F s       :     3.728269  s :     3.728269
      pz      :     1.845649  p :     5.305229
      px      :     1.581491
      py      :     1.878088
      dz2     :     0.001662  d :     0.013359
      dxz     :     0.004199
      dyz     :     0.000450
      dx2y2   :     0.004745
      dxy     :     0.002303
 11 C s       :     2.825798  s :     2.825798
      pz      :     1.024266  p :     3.103602
      px      :     1.055211
      py      :     1.024125
      dz2     :     0.030810  d :     0.112528
      dxz     :     0.022423
      dyz     :     0.016834
      dx2y2   :     0.023786
      dxy     :     0.018675
 12 C s       :     2.908719  s :     2.908719
      pz      :     1.145569  p :     3.011382
      px      :     0.932156
      py      :     0.933658
      dz2     :     0.039209  d :     0.111992
      dxz     :     0.033470
      dyz     :     0.032556
      dx2y2   :     0.003751
      dxy     :     0.003005
 13 N s       :     3.411050  s :     3.411050
      pz      :     1.444420  p :     3.594981
      px      :     1.073267
      py      :     1.077293
      dz2     :     0.023160  d :     0.055983
      dxz     :     0.014622
      dyz     :     0.015288
      dx2y2   :     0.001433
      dxy     :     0.001481
 14 C s       :     2.823753  s :     2.823753
      pz      :     1.055722  p :     3.091880
      px      :     0.989823
      py      :     1.046336
      dz2     :     0.026934  d :     0.091735
      dxz     :     0.014423
      dyz     :     0.007924
      dx2y2   :     0.022866
      dxy     :     0.019588
 15 C s       :     2.855653  s :     2.855653
      pz      :     1.011905  p :     3.082673
      px      :     1.034252
      py      :     1.036516
      dz2     :     0.015064  d :     0.099026
      dxz     :     0.014223
      dyz     :     0.020971
      dx2y2   :     0.028889
      dxy     :     0.019880
 16 C s       :     2.869980  s :     2.869980
      pz      :     1.021630  p :     3.107115
      px      :     1.041083
      py      :     1.044402
      dz2     :     0.010131  d :     0.071328
      dxz     :     0.013479
      dyz     :     0.012347
      dx2y2   :     0.019098
      dxy     :     0.016272
 17 H s       :     0.904313  s :     0.904313
      pz      :     0.023784  p :     0.076532
      px      :     0.013282
      py      :     0.039466
 18 H s       :     0.887090  s :     0.887090
      pz      :     0.039593  p :     0.068764
      px      :     0.016002
      py      :     0.013170
 19 H s       :     0.895237  s :     0.895237
      pz      :     0.014597  p :     0.068122
      px      :     0.013862
      py      :     0.039663
 20 H s       :     0.883115  s :     0.883115
      pz      :     0.015306  p :     0.069412
      px      :     0.035901
      py      :     0.018204
 21 H s       :     0.875691  s :     0.875691
      pz      :     0.021642  p :     0.069008
      px      :     0.030908
      py      :     0.016458
 22 H s       :     0.889595  s :     0.889595
      pz      :     0.015496  p :     0.068396
      px      :     0.012457
      py      :     0.040442
 23 H s       :     0.896969  s :     0.896969
      pz      :     0.042834  p :     0.069210
      px      :     0.013009
      py      :     0.013367
 24 H s       :     0.905436  s :     0.905436
      pz      :     0.017085  p :     0.067890
      px      :     0.037329
      py      :     0.013476
 25 H s       :     0.910787  s :     0.910787
      pz      :     0.020737  p :     0.072496
      px      :     0.037576
      py      :     0.014183
[...]
      dxz     :     0.002109
      dyz     :     0.001729
      dx2y2   :     0.001079
      dxy     :     0.001820
 10 F s       :     3.898753  s :     3.898753
      pz      :     1.848121  p :     5.260181
      px      :     1.526887
      py      :     1.885174
      dz2     :     0.001099  d :     0.008189
      dxz     :     0.002526
      dyz     :     0.000302
      dx2y2   :     0.002748
      dxy     :     0.001515
 11 C s       :     2.998153  s :     2.998153
      pz      :     1.013361  p :     3.025197
      px      :     1.038919
      py      :     0.972917
      dz2     :     0.011476  d :     0.044661
      dxz     :     0.008944
      dyz     :     0.006775
      dx2y2   :     0.009352
      dxy     :     0.008115
 12 C s       :     3.137806  s :     3.137806
      pz      :     1.121378  p :     3.034879
      px      :     0.953959
      py      :     0.959543
      dz2     :     0.013627  d :     0.045425
      dxz     :     0.015016
      dyz     :     0.014212
      dx2y2   :     0.001465
      dxy     :     0.001105
 13 N s       :     3.507101  s :     3.507101
      pz      :     1.259689  p :     3.372495
      px      :     1.059002
      py      :     1.053804
      dz2     :     0.011352  d :     0.031890
      dxz     :     0.009492
      dyz     :     0.009515
      dx2y2   :     0.000768
      dxy     :     0.000764
 14 C s       :     2.910096  s :     2.910096
      pz      :     1.012202  p :     2.930594
      px      :     0.930192
      py      :     0.988199
      dz2     :     0.010631  d :     0.035748
      dxz     :     0.006181
      dyz     :     0.002821
      dx2y2   :     0.009102
      dxy     :     0.007013
 15 C s       :     3.147430  s :     3.147430
      pz      :     0.931080  p :     2.805352
      px      :     0.936112
      py      :     0.938160
      dz2     :     0.007554  d :     0.036133
      dxz     :     0.006470
      dyz     :     0.008700
      dx2y2   :     0.007105
      dxy     :     0.006304
 16 C s       :     3.114656  s :     3.114656
      pz      :     0.972044  p :     2.888335
      px      :     0.964712
      py      :     0.951579
      dz2     :     0.005940  d :     0.026319
      dxz     :     0.005686
      dyz     :     0.005583
      dx2y2   :     0.004477
      dxy     :     0.004633
 17 H s       :     0.961244  s :     0.961244
      pz      :     0.007344  p :     0.023499
      px      :     0.003865
      py      :     0.012290
 18 H s       :     0.935809  s :     0.935809
      pz      :     0.013324  p :     0.023133
      px      :     0.005016
      py      :     0.004793
 19 H s       :     0.952587  s :     0.952587
      pz      :     0.005477  p :     0.022707
      px      :     0.004356
      py      :     0.012874
 20 H s       :     0.944698  s :     0.944698
      pz      :     0.004853  p :     0.021584
      px      :     0.011561
      py      :     0.005170
 21 H s       :     0.936917  s :     0.936917
      pz      :     0.007496  p :     0.021988
      px      :     0.009793
      py      :     0.004699
 22 H s       :     0.940262  s :     0.940262
      pz      :     0.005019  p :     0.022477
      px      :     0.003671
      py      :     0.013786
 23 H s       :     0.930650  s :     0.930650
      pz      :     0.013973  p :     0.022867
      px      :     0.003888
      py      :     0.005006
 24 H s       :     0.976311  s :     0.976311
      pz      :     0.007000  p :     0.022886
      px      :     0.010484
      py      :     0.005402
 25 H s       :     0.957716  s :     0.957716
      pz      :     0.008020  p :     0.023817
      px      :     0.010220
      py      :     0.005578
 26 H s       :     0.950215  s :     0.950215
      pz      :     0.004941  p :     0.023659
      px      :     0.006003
      py      :     0.012715


                     *******************************
                     * LOEWDIN POPULATION ANALYSIS *
                     *******************************

----------------------
LOEWDIN ATOMIC CHARGES
----------------------
   0 C :   -0.193819
   1 S :    0.441894
   2 C :   -0.180273
   3 C :   -0.062103
   4 C :   -0.065945
   5 C :   -0.012544
   6 C :   -0.049844
   7 C :    0.173252
   8 F :   -0.059271
   9 F :   -0.065156
  10 F :   -0.055764
  11 C :   -0.041612
  12 C :   -0.028455
  13 N :   -0.067423
  14 C :   -0.010154
  15 C :   -0.040402
  16 C :   -0.047365
  17 H :    0.024444
  18 H :    0.045213
  19 H :    0.038107
  20 H :    0.047036
  21 H :    0.054157
  22 H :    0.042415
  23 H :    0.033076
  24 H :    0.030791
  25 H :    0.021790
  26 H :    0.027953

-------------------------------
LOEWDIN REDUCED ORBITAL CHARGES
-------------------------------
  0 C s       :     2.926474  s :     2.926474
      pz      :     1.100737  p :     3.182898
      px      :     1.048009
      py      :     1.034152
      dz2     :     0.007782  d :     0.084447
      dxz     :     0.016329
      dyz     :     0.009407
      dx2y2   :     0.020942
      dxy     :     0.029988
  1 S s       :     5.502818  s :     5.502818
      pz      :     3.490422  p :     9.918260
      px      :     3.375718
      py      :     3.052120
      dz2     :     0.020035  d :     0.137028
      dxz     :     0.018279
      dyz     :     0.025587
      dx2y2   :     0.018125
      dxy     :     0.055002
  2 C s       :     2.908374  s :     2.908374
      pz      :     1.066296  p :     3.167662
      px      :     1.056943
      py      :     1.044423
      dz2     :     0.011004  d :     0.104238
      dxz     :     0.018822
      dyz     :     0.013300
      dx2y2   :     0.024239
      dxy     :     0.036873
  3 C s       :     2.852767  s :     2.852767
      pz      :     1.022478  p :     3.101503
      px      :     1.041573
      py      :     1.037452
      dz2     :     0.010875  d :     0.107833
      dxz     :     0.016386
      dyz     :     0.015425
      dx2y2   :     0.035516
      dxy     :     0.029630
  4 C s       :     2.855997  s :     2.855997
      pz      :     1.019147  p :     3.100388
      px      :     1.045902
      py      :     1.035339
      dz2     :     0.012570  d :     0.109560
      dxz     :     0.018004
      dyz     :     0.014276
      dx2y2   :     0.035150
      dxy     :     0.029561
  5 C s       :     2.828654  s :     2.828654
      pz      :     1.048741  p :     3.095209
      px      :     1.002826
      py      :     1.043642
      dz2     :     0.019965  d :     0.088681
      dxz     :     0.019695
      dyz     :     0.009079
      dx2y2   :     0.019724
      dxy     :     0.020219
  6 C s       :     2.857214  s :     2.857214
      pz      :     1.015074  p :     3.092501
      px      :     1.061313
      py      :     1.016114
      dz2     :     0.031685  d :     0.100128
      dxz     :     0.013748
      dyz     :     0.014228
      dx2y2   :     0.022604
      dxy     :     0.017864
  7 C s       :     2.856229  s :     2.856229
      pz      :     0.996115  p :     2.597367
      px      :     0.792286
      py      :     0.808966
      dz2     :     0.072713  d :     0.373151
      dxz     :     0.067689
      dyz     :     0.058648
      dx2y2   :     0.097843
      dxy     :     0.076259
  8 F s       :     3.730331  s :     3.730331
      pz      :     1.896019  p :     5.315977
      px      :     1.871269
      py      :     1.548689
      dz2     :     0.002086  d :     0.012962
      dxz     :     0.000236
      dyz     :     0.002480
      dx2y2   :     0.005227
      dxy     :     0.002933
  9 F s       :     3.733043  s :     3.733043
      pz      :     1.770653  p :     5.319437
      px      :     1.759939
      py      :     1.788845
      dz2     :     0.001659  d :     0.012676
      dxz     :     0.003620
      dyz     :     0.002905
      dx2y2   :     0.001356
      dxy     :     0.003137
 10 F s       :     3.732892  s :     3.732892
      pz      :     1.849788  p :     5.309895
      px      :     1.574958
      py      :     1.885149
      dz2     :     0.001616  d :     0.012977
      dxz     :     0.004187
      dyz     :     0.000369
      dx2y2   :     0.004841
      dxy     :     0.001964
 11 C s       :     2.834067  s :     2.834067
      pz      :     1.017913  p :     3.098455
      px      :     1.056580
      py      :     1.023963
      dz2     :     0.030335  d :     0.109090
      dxz     :     0.021833
      dyz     :     0.015828
      dx2y2   :     0.023177
      dxy     :     0.017917
 12 C s       :     2.920125  s :     2.920125
      pz      :     1.141142  p :     3.002310
      px      :     0.931457
      py      :     0.929711
      dz2     :     0.038419  d :     0.106020
      dxz     :     0.031699
      dyz     :     0.030720
      dx2y2   :     0.002868
      dxy     :     0.002314
 13 N s       :     3.424723  s :     3.424723
      pz      :     1.443287  p :     3.588800
      px      :     1.074732
      py      :     1.070781
      dz2     :     0.023181  d :     0.053900
      dxz     :     0.014228
      dyz     :     0.014305
      dx2y2   :     0.001077
      dxy     :     0.001108
 14 C s       :     2.829804  s :     2.829804
      pz      :     1.053143  p :     3.090548
      px      :     0.989869
      py      :     1.047536
      dz2     :     0.026874  d :     0.089802
      dxz     :     0.014704
      dyz     :     0.006663
      dx2y2   :     0.022968
      dxy     :     0.018593
 15 C s       :     2.867147  s :     2.867147
      pz      :     1.039423  p :     3.079110
      px      :     1.015311
      py      :     1.024377
      dz2     :     0.017825  d :     0.094144
      dxz     :     0.016845
      dyz     :     0.023924
      dx2y2   :     0.019448
      dxy     :     0.016103
 16 C s       :     2.885176  s :     2.885176
      pz      :     1.033304  p :     3.094013
      px      :     1.024069
      py      :     1.036640
      dz2     :     0.013554  d :     0.068176
      dxz     :     0.015162
      dyz     :     0.015938
      dx2y2   :     0.012076
      dxy     :     0.011447
 17 H s       :     0.901968  s :     0.901968
      pz      :     0.022732  p :     0.073588
      px      :     0.012638
      py      :     0.038219
 18 H s       :     0.887608  s :     0.887608
      pz      :     0.038923  p :     0.067178
      px      :     0.015378
      py      :     0.012877
 19 H s       :     0.895138  s :     0.895138
      pz      :     0.015304  p :     0.066755
      px      :     0.013437
      py      :     0.038014
 20 H s       :     0.883976  s :     0.883976
      pz      :     0.016022  p :     0.068988
      px      :     0.034946
      py      :     0.018021
 21 H s       :     0.876868  s :     0.876868
      pz      :     0.021302  p :     0.068975
      px      :     0.031136
      py      :     0.016537
 22 H s       :     0.890496  s :     0.890496
      pz      :     0.014111  p :     0.067089
      px      :     0.011855
      py      :     0.041123
 23 H s       :     0.898958  s :     0.898958
      pz      :     0.042328  p :     0.067967
      px      :     0.012502
      py      :     0.013136
 24 H s       :     0.903070  s :     0.903070
      pz      :     0.019496  p :     0.066139
      px      :     0.030519
      py      :     0.016124
 25 H s       :     0.909243  s :     0.909243
      pz      :     0.022745  p :     0.068967
      px      :     0.030150
      py      :     0.016072
 26 H s       :     0.904216  s :     0.904216
      pz      :     0.013429  p :     0.067831
      px      :     0.017750
      py      :     0.036652


                      *****************************
                      * MAYER POPULATION ANALYSIS *
                      *****************************

  NA   - Mulliken gross atomic population
  ZA   - Total nuclear charge
  QA   - Mulliken gross atomic charge
  VA   - Mayer's total valence
  BVA  - Mayer's bonded valence
  FA   - Mayer's free valence

  ATOM       NA         ZA         QA         VA         BVA        FA
  0 C      6.1325     6.0000    -0.1325     3.8130     3.8130    -0.0000
  1 S     15.8823    16.0000     0.1177     2.5055     2.5055    -0.0000
  2 C      6.1656     6.0000    -0.1656     3.8847     3.8847    -0.0000
  3 C      6.0124     6.0000    -0.0124     4.0797     4.0797    -0.0000
  4 C      6.0358     6.0000    -0.0358     4.0677     4.0677     0.0000
  5 C      5.8495     6.0000     0.1505     3.9044     3.9044    -0.0000
  6 C      6.1486     6.0000    -0.1486     3.9824     3.9824    -0.0000
  7 C      5.4569     6.0000     0.5431     4.4359     4.4359    -0.0000
  8 F      9.1665     9.0000    -0.1665     1.1945     1.1945     0.0000
  9 F      9.1755     9.0000    -0.1755     1.1853     1.1853     0.0000
 10 F      9.1671     9.0000    -0.1671     1.1914     1.1914    -0.0000
 11 C      6.0680     6.0000    -0.0680     4.1398     4.1398    -0.0000
 12 C      6.2181     6.0000    -0.2181     4.1839     4.1839     0.0000
 13 N      6.9115     7.0000     0.0885     3.1803     3.1803     0.0000
 14 C      5.8764     6.0000     0.1236     3.9227     3.9227     0.0000
 15 C      5.9889     6.0000     0.0111     4.0249     4.0249    -0.0000
 16 C      6.0293     6.0000    -0.0293     3.9466     3.9466    -0.0000
 17 H      0.9847     1.0000     0.0153     0.9984     0.9984    -0.0000
 18 H      0.9589     1.0000     0.0411     0.9923     0.9923    -0.0000
 19 H      0.9753     1.0000     0.0247     0.9988     0.9988     0.0000
 20 H      0.9663     1.0000     0.0337     0.9907     0.9907     0.0000
 21 H      0.9589     1.0000     0.0411     0.9962     0.9962    -0.0000
 22 H      0.9627     1.0000     0.0373     0.9942     0.9942    -0.0000
 23 H      0.9535     1.0000     0.0465     0.9999     0.9999     0.0000
 24 H      0.9992     1.0000     0.0008     0.9854     0.9854    -0.0000
 25 H      0.9815     1.0000     0.0185     0.9939     0.9939     0.0000
 26 H      0.9739     1.0000     0.0261     0.9751     0.9751    -0.0000

  Mayer bond orders larger than 0.100000
B(  0-C ,  1-S ) :   1.1607 B(  0-C ,  4-C ) :   1.5441 B(  0-C , 17-H ) :   0.9661 
B(  1-S ,  2-C ) :   1.1336 B(  2-C ,  3-C ) :   1.5152 B(  2-C , 15-C ) :   1.0903 
B(  3-C ,  4-C ) :   1.2885 B(  3-C , 14-C ) :   1.0580 B(  4-C ,  5-C ) :   1.0255 
B(  5-C ,  6-C ) :   1.0341 B(  5-C , 18-H ) :   0.9064 B(  5-C , 19-H ) :   0.9165 
B(  6-C ,  7-C ) :   0.9901 B(  6-C , 11-C ) :   1.0274 B(  6-C , 20-H ) :   0.8957 
B(  7-C ,  8-F ) :   1.1423 B(  7-C ,  9-F ) :   1.1146 B(  7-C , 10-F ) :   1.1274 
B( 11-C , 12-C ) :   1.0793 B( 11-C , 14-C ) :   1.0397 B( 11-C , 21-H ) :   0.8592 
B( 12-C , 13-N ) :   3.0771 B( 14-C , 22-H ) :   0.9094 B( 14-C , 23-H ) :   0.8934 
B( 15-C , 16-C ) :   1.9223 B( 15-C , 24-H ) :   0.9496 B( 16-C , 25-H ) :   0.9537 
B( 16-C , 26-H ) :   0.9424 

-------
TIMINGS
-------

Total SCF time: 0 days 0 hours 1 min 20 sec 

Total time                  ....      80.994 sec
Sum of individual times     ....      80.818 sec  ( 99.8%)

Fock matrix formation       ....      76.962 sec  ( 95.0%)
  Split-RI-J                ....       7.338 sec  (  9.5% of F)
  Chain of spheres X        ....      64.615 sec  ( 84.0% of F)
  COS-X 1 center corr.      ....       0.000 sec  (  0.0% of F)
  XC integration            ....       4.946 sec  (  6.4% of F)
    Basis function eval.    ....       1.851 sec  ( 37.4% of XC)
    Density eval.           ....       1.243 sec  ( 25.1% of XC)
    XC-Functional eval.     ....       0.262 sec  (  5.3% of XC)
    XC-Potential eval.      ....       1.416 sec  ( 28.6% of XC)
Diagonalization             ....       0.012 sec  (  0.0%)
Density matrix formation    ....       0.013 sec  (  0.0%)
Population analysis         ....       0.008 sec  (  0.0%)
Initial guess               ....       0.016 sec  (  0.0%)
Orbital Transformation      ....       0.000 sec  (  0.0%)
Orbital Orthonormalization  ....       0.012 sec  (  0.0%)
DIIS solution               ....       0.003 sec  (  0.0%)
SOSCF solution              ....       0.052 sec  (  0.1%)
Grid generation             ....       3.752 sec  (  4.6%)


-------------------------------------------------------------------------------
                          DFT DISPERSION CORRECTION                            
                                                                               
                              DFTD3 V3.1  Rev 1                                
                          USING Becke-Johnson damping                          
-------------------------------------------------------------------------------
Gaussians B3LYP functional is recognized, using regular B3LYP params
Active option DFTDOPT                   ...         4   

molecular C6(AA) [au] = 9493.035978 


            DFT-D V3
 parameters
 s6 scaling factor         :     1.0000 
 a1 scaling factor         :     0.3981 
 s8 scaling factor         :     1.9889 
 a2 scaling factor         :     4.4211 
 ad hoc parameters k1-k3   :    16.0000     1.3333    -4.0000 

 Edisp/kcal,au: -39.682151273270  -0.063237526572 
 E6   /kcal   : -18.291998557 
 E8   /kcal   : -21.390152716 
 % E8         :  53.903712450 

-------------------------   ----------------
Dispersion correction           -0.063237527
-------------------------   ----------------


-------------------------   --------------------
FINAL SINGLE POINT ENERGY     -1215.091784738554
-------------------------   --------------------

                                *** OPTIMIZATION RUN DONE ***

                            ***************************************
                            *     ORCA property calculations      *
                            ***************************************

                                    ---------------------
                                    Active property flags
                                    ---------------------
   (+) Dipole Moment


------------------------------------------------------------------------------
                       ORCA ELECTRIC PROPERTIES CALCULATION
------------------------------------------------------------------------------

Dipole Moment Calculation                       ... on
Quadrupole Moment Calculation                   ... off
Polarizability Calculation                      ... off
GBWName                                         ... 1031.gbw
Electron density file                           ... 1031.scfp
The origin for moment calculation is the CENTER OF MASS  = (-0.535029,  0.237758 -0.233827)

-------------
DIPOLE MOMENT
-------------
                                X             Y             Z
Electronic contribution:     -5.37199     -10.94306      -6.17867
Nuclear contribution   :      5.61511      10.74105       5.57434
                        -----------------------------------------
Total Dipole Moment    :      0.24312      -0.20201      -0.60433
                        -----------------------------------------
Magnitude (a.u.)       :      0.68201
Magnitude (Debye)      :      1.73353



--------------------
Rotational spectrum 
--------------------
 
Rotational constants in cm-1:     0.020327     0.010382     0.010045 
Rotational constants in MHz :   609.394894   311.241584   301.132172 

 Dipole components along the rotational axes: 
x,y,z [a.u.] :    -0.085898    -0.581863    -0.345241 
x,y,z [Debye]:    -0.218335    -1.478979    -0.877532 

 

Timings for individual modules:

Sum of individual times         ...     2201.374 sec (=  36.690 min)
GTO integral calculation        ...        9.405 sec (=   0.157 min)   0.4 %
SCF iterations                  ...     1711.724 sec (=  28.529 min)  77.8 %
SCF Gradient evaluation         ...      478.374 sec (=   7.973 min)  21.7 %
Geometry relaxation             ...        1.870 sec (=   0.031 min)   0.1 %
                             ****ORCA TERMINATED NORMALLY****
TOTAL RUN TIME: 0 days 0 hours 36 minutes 43 seconds 580 msec
