
                                 *****************
                                 * O   R   C   A *
                                 *****************

           --- An Ab Initio, DFT and Semiempirical electronic structure package ---

                  #######################################################
                  #                        -***-                        #
                  #          Department of theory and spectroscopy      #
                  #               Directorship: Frank Neese             #
                  #        Max Planck Institute fuer Kohlenforschung    #
                  #                Kaiser Wilhelm Platz 1               #
                  #                 D-45470 Muelheim/Ruhr               #
                  #                      Germany                        #
                  #                                                     #
                  #                  All rights reserved                #
                  #                        -***-                        #
                  #######################################################


                         Program Version 4.2.0 -  RELEASE  -


 With contributions from (in alphabetic order):
   Daniel Aravena         : Magnetic Suceptibility
   Michael Atanasov       : Ab Initio Ligand Field Theory (pilot matlab implementation)
   Alexander A. Auer      : GIAO ZORA, VPT2
   Ute Becker             : Parallelization
   Giovanni Bistoni       : ED, misc. LED, open-shell LED, HFLED
   Martin Brehm           : Molecular dynamics
   Dmytro Bykov           : SCF Hessian
   Vijay G. Chilkuri      : MRCI spin determinant printing, contributions to CSF-ICE
   Dipayan Datta          : RHF DLPNO-CCSD density
   Achintya Kumar Dutta   : EOM-CC, STEOM-CC
   Dmitry Ganyushin       : Spin-Orbit,Spin-Spin,Magnetic field MRCI
   Miquel Garcia          : C-PCM Hessian, Gaussian charge scheme
   Yang Guo               : DLPNO-NEVPT2, CIM, IAO-localization
   Andreas Hansen         : Spin unrestricted coupled pair/coupled cluster methods
   Benjamin Helmich-Paris : CASSCF linear response (MC-RPA)
   Lee Huntington         : MR-EOM, pCC
   Robert Izsak           : Overlap fitted RIJCOSX, COSX-SCS-MP3, EOM
   Christian Kollmar      : KDIIS, OOCD, Brueckner-CCSD(T), CCSD density
   Simone Kossmann        : Meta GGA functionals, TD-DFT gradient, OOMP2, MP2 Hessian
   Martin Krupicka        : AUTO-CI
   Lucas Lang             : DCDCAS
   Dagmar Lenk            : GEPOL surface, SMD
   Dimitrios Liakos       : Extrapolation schemes; Compound Job, initial MDCI parallelization
   Dimitrios Manganas     : Further ROCIS development; embedding schemes
   Dimitrios Pantazis     : SARC Basis sets
   Taras Petrenko         : DFT Hessian,TD-DFT gradient, ASA, ECA, R-Raman, ABS, FL, XAS/XES, NRVS
   Peter Pinski           : DLPNO-MP2, DLPNO-MP2 Gradient
   Christoph Reimann      : Effective Core Potentials
   Marius Retegan         : Local ZFS, SOC
   Christoph Riplinger    : Optimizer, TS searches, QM/MM, DLPNO-CCSD(T), (RO)-DLPNO pert. Triples
   Tobias Risthaus        : Range-separated hybrids, TD-DFT gradient, RPA, STAB
   Michael Roemelt        : Original ROCIS implementation
   Masaaki Saitow         : Open-shell DLPNO-CCSD energy and density
   Barbara Sandhoefer     : DKH picture change effects
   Avijit Sen             : IP-ROCIS
   Kantharuban Sivalingam : CASSCF convergence, NEVPT2, FIC-MRCI
   Bernardo de Souza      : ESD, SOC TD-DFT
   Georgi Stoychev        : AutoAux, RI-MP2 NMR
   Willem Van den Heuvel  : Paramagnetic NMR
   Boris Wezisla          : Elementary symmetry handling
   Frank Wennmohs         : Technical directorship


 We gratefully acknowledge several colleagues who have allowed us to
 interface, adapt or use parts of their codes:
   Stefan Grimme, W. Hujo, H. Kruse,             : VdW corrections, initial TS optimization,
                  C. Bannwarth                     DFT functionals, gCP, sTDA/sTD-DF
   Ed Valeev, F. Pavosevic, A. Kumar             : LibInt (2-el integral package), F12 methods
   Garnet Chan, S. Sharma, J. Yang, R. Olivares  : DMRG
   Ulf Ekstrom                                   : XCFun DFT Library
   Mihaly Kallay                                 : mrcc  (arbitrary order and MRCC methods)
   Andreas Klamt, Michael Diedenhofen            : otool_cosmo (COSMO solvation model)
   Jiri Pittner, Ondrej Demel                    : Mk-CCSD
   Frank Weinhold                                : gennbo (NPA and NBO analysis)
   Christopher J. Cramer and Donald G. Truhlar   : smd solvation model
   Lars Goerigk                                  : TD-DFT with DH, B97 family of functionals
   V. Asgeirsson, H. Jonsson                     : NEB implementation
   FAccTs GmbH                                   : IRC, NEB, NEB-TS, Multilevel, MM, QM/MM, CI optimization
   S Lehtola, MJT Oliveira, MAL Marques          : LibXC Library


 Your calculation uses the libint2 library for the computation of 2-el integrals
 For citations please refer to: http://libint.valeyev.net

 Your ORCA version has been built with support for libXC version: 4.2.3
 For citations please refer to: https://tddft.org/programs/libxc/

 This ORCA versions uses:
   CBLAS   interface :  Fast vector & matrix operations
   LAPACKE interface :  Fast linear algebra routines
   SCALAPACK package :  Parallel linear algebra routines


Your calculation utilizes the atom-pairwise dispersion correction
with the Becke-Johnson damping scheme (D3BJ)
Cite in your paper:
S.Grimme, S.Ehrlich, L.Goerigk, J Comput Chem, (2011), 32, 1456–1465 
S.Grimme, J.Antony, S.Ehrlich and H.Krieg, J.Chem.Phys., 132, (2010), 154104 
   

----- Orbital basis set information -----
Your calculation utilizes the basis: def2-SVP
   F. Weigend and R. Ahlrichs, Phys. Chem. Chem. Phys. 7, 3297 (2005).

----- AuxJ basis set information -----
Your calculation utilizes the auxiliary basis: def2/J
   F. Weigend, Phys. Chem. Chem. Phys. 8, 1057 (2006).

================================================================================
                                        WARNINGS
                       Please study these warnings very carefully!
================================================================================


WARNING: Geometry Optimization
  ===> : Switching off AutoStart
         For restart on a previous wavefunction, please use MOREAD

INFO   : the flag for use of LIBINT has been found!

================================================================================
                                       INPUT FILE
================================================================================
NAME = 162.inp
|  1> # ORCA input file
|  2> # SCF done        -29.243933558194          0.000960674138
|  3> ! B3LYP/G D3BJ Opt RIJCOSX def2-SVP def2/J
|  4> * xyz 0 1
|  5>    C       -1.35485         1.47465         0.04196
|  6>    C       -0.16049         0.73821         0.08644
|  7>    N        1.08295         1.20955         0.20251
|  8>    S        2.10299        -0.03073         0.20589
|  9>    N        1.03571        -1.22378         0.06294
| 10>    C       -0.18817        -0.69849         0.00429
| 11>    C       -1.41538        -1.39940        -0.12378
| 12>    C       -2.55667        -0.62586        -0.16336
| 13>    C       -2.52582         0.77702        -0.08243
| 14>    C       -1.38266        -2.85056        -0.19781
| 15>    C       -2.42883        -3.65621        -0.35091
| 16>    H       -1.32577         2.55014         0.10631
| 17>    H       -3.51778        -1.10701        -0.25800
| 18>    H       -3.46262         1.31361        -0.11918
| 19>    H       -0.38688        -3.26729        -0.11672
| 20>    H       -3.43915        -3.29294        -0.44229
| 21>    H       -2.30655        -4.72465        -0.39302
| 22> *
| 23> 
| 24>                          ****END OF INPUT****
================================================================================

                       *****************************
                       * Geometry Optimization Run *
                       *****************************

Geometry optimization settings:
Update method            Update   .... BFGS
Choice of coordinates    CoordSys .... Z-matrix Internals
Initial Hessian          InHess   .... Almoef's Model

Convergence Tolerances:
Energy Change            TolE     ....  5.0000e-06 Eh
Max. Gradient            TolMAXG  ....  3.0000e-04 Eh/bohr
RMS Gradient             TolRMSG  ....  1.0000e-04 Eh/bohr
Max. Displacement        TolMAXD  ....  4.0000e-03 bohr
RMS Displacement         TolRMSD  ....  2.0000e-03 bohr
Strict Convergence                ....  False
------------------------------------------------------------------------------
                        ORCA OPTIMIZATION COORDINATE SETUP
------------------------------------------------------------------------------

The optimization will be done in new redundant internal coordinates
Making redundant internal coordinates   ...  (new redundants) done
Evaluating the initial hessian          ...  (Almloef) done
Evaluating the coordinates              ...  done
Calculating the B-matrix                .... done
Calculating the G-matrix                .... done
Diagonalizing the G-matrix              .... done
Small eigenvalue found = 2.454e-02
The first mode is                       ....   38
The number of degrees of freedom        ....   45

    -----------------------------------------------------------------
                    Redundant Internal Coordinates


    -----------------------------------------------------------------
         Definition                    Initial Value    Approx d2E/dq
    -----------------------------------------------------------------
      1. B(C   1,C   0)                  1.4039         0.593784   
      2. B(N   2,C   1)                  1.3348         0.685318   
      3. B(S   3,N   2)                  1.6059         0.682734   
      4. B(N   4,S   3)                  1.6071         0.679540   
      5. B(C   5,N   4)                  1.3331         0.689602   
      6. B(C   5,C   1)                  1.4393         0.521270   
      7. B(C   6,C   5)                  1.4191         0.561540   
      8. B(C   7,C   6)                  1.3793         0.649841   
      9. B(C   8,C   7)                  1.4056         0.590103   
     10. B(C   8,C   0)                  1.3687         0.675657   
     11. B(C   9,C   6)                  1.4534         0.494952   
     12. B(C  10,C   9)                  1.3293         0.780935   
     13. B(H  11,C   0)                  1.0778         0.376598   
     14. B(H  12,C   7)                  1.0790         0.374979   
     15. B(H  13,C   8)                  1.0802         0.373274   
     16. B(H  14,C   9)                  1.0825         0.370153   
     17. B(H  15,C  10)                  1.0775         0.376986   
     18. B(H  16,C  10)                  1.0762         0.378772   
     19. A(C   8,C   0,H  11)          122.4876         0.360836   
     20. A(C   1,C   0,C   8)          117.6043         0.437422   
     21. A(C   1,C   0,H  11)          119.9081         0.353004   
     22. A(C   0,C   1,C   5)          120.3619         0.417553   
     23. A(C   0,C   1,N   2)          127.5924         0.435667   
     24. A(N   2,C   1,C   5)          112.0456         0.425597   
     25. A(C   1,N   2,S   3)          108.6127         0.469235   
     26. A(N   2,S   3,N   4)           98.7042         0.495654   
     27. A(S   3,N   4,C   5)          108.7278         0.469367   
     28. A(C   1,C   5,N   4)          111.9097         0.426072   
     29. A(N   4,C   5,C   6)          127.1054         0.431797   
     30. A(C   1,C   5,C   6)          120.9849         0.413427   
     31. A(C   7,C   6,C   9)          125.2479         0.420421   
     32. A(C   5,C   6,C   9)          118.5737         0.409645   
     33. A(C   5,C   6,C   7)          116.1780         0.430026   
     34. A(C   6,C   7,C   8)          122.6796         0.433877   
     35. A(C   8,C   7,H  12)          118.0139         0.352376   
     36. A(C   6,C   7,H  12)          119.3064         0.358187   
     37. A(C   0,C   8,C   7)          122.1912         0.436932   
     38. A(C   7,C   8,H  13)          118.3466         0.352104   
     39. A(C   0,C   8,H  13)          119.4622         0.360292   
     40. A(C  10,C   9,H  14)          119.9520         0.368798   
     41. A(C   6,C   9,H  14)          113.6572         0.341359   
     42. A(C   6,C   9,C  10)          126.3907         0.434497   
     43. A(H  15,C  10,H  16)          115.9702         0.295291   
     44. A(C   9,C  10,H  16)          121.1162         0.370260   
     45. A(C   9,C  10,H  15)          122.9134         0.369959   
     46. D(C   5,C   1,C   0,C   8)     -0.0737         0.024279   
     47. D(C   5,C   1,C   0,H  11)    179.8623         0.024279   
     48. D(N   2,C   1,C   0,H  11)     -0.1010         0.024279   
     49. D(N   2,C   1,C   0,C   8)    179.9630         0.024279   
     50. D(S   3,N   2,C   1,C   0)   -179.9940         0.035031   
     51. D(S   3,N   2,C   1,C   5)      0.0402         0.035031   
     52. D(N   4,S   3,N   2,C   1)     -0.0425         0.008760   
     53. D(C   5,N   4,S   3,N   2)      0.0317         0.008687   
     54. D(C   6,C   5,C   1,N   2)   -179.9829         0.018533   
     55. D(C   6,C   5,N   4,S   3)    179.9494         0.035512   
     56. D(N   4,C   5,C   1,N   2)     -0.0188         0.018533   
     57. D(C   1,C   5,N   4,S   3)     -0.0120         0.035512   
     58. D(C   6,C   5,C   1,C   0)      0.0485         0.018533   
     59. D(N   4,C   5,C   1,C   0)   -179.9874         0.018533   
     60. D(C   9,C   6,C   5,N   4)      0.2450         0.021604   
     61. D(C   9,C   6,C   5,C   1)   -179.7967         0.021604   
     62. D(C   7,C   6,C   5,N   4)   -179.9588         0.021604   
     63. D(C   7,C   6,C   5,C   1)     -0.0005         0.021604   
     64. D(H  12,C   7,C   6,C   9)     -0.1053         0.029402   
     65. D(H  12,C   7,C   6,C   5)   -179.8861         0.029402   
     66. D(C   8,C   7,C   6,C   9)    179.7603         0.029402   
     67. D(C   8,C   7,C   6,C   5)     -0.0205         0.029402   
     68. D(H  13,C   8,C   7,H  12)     -0.0575         0.023964   
     69. D(H  13,C   8,C   7,C   6)   -179.9247         0.023964   
     70. D(C   0,C   8,C   7,H  12)    179.8606         0.023964   
     71. D(C   0,C   8,C   7,C   6)     -0.0066         0.023964   
     72. D(H  13,C   8,C   0,H  11)      0.0371         0.031968   
     73. D(H  13,C   8,C   0,C   1)    179.9713         0.031968   
     74. D(C   7,C   8,C   0,H  11)   -179.8801         0.031968   
     75. D(C   7,C   8,C   0,C   1)      0.0541         0.031968   
     76. D(C  10,C   9,C   6,C   5)   -178.2424         0.016683   
     77. D(H  14,C   9,C   6,C   7)   -178.1015         0.016683   
     78. D(H  14,C   9,C   6,C   5)      1.6745         0.016683   
     79. D(C  10,C   9,C   6,C   7)      1.9816         0.016683   
     80. D(H  16,C  10,C   9,H  14)      0.2153         0.043846   
     81. D(H  16,C  10,C   9,C   6)   -179.8726         0.043846   
     82. D(H  15,C  10,C   9,H  14)   -179.6317         0.043846   
     83. D(H  15,C  10,C   9,C   6)      0.2804         0.043846   
    -----------------------------------------------------------------

Number of atoms                         .... 17
Number of degrees of freedom            .... 83

         *************************************************************
         *                GEOMETRY OPTIMIZATION CYCLE   1            *
         *************************************************************
---------------------------------
CARTESIAN COORDINATES (ANGSTROEM)
---------------------------------
  C     -1.354850    1.474650    0.041960
  C     -0.160490    0.738210    0.086440
  N      1.082950    1.209550    0.202510
  S      2.102990   -0.030730    0.205890
  N      1.035710   -1.223780    0.062940
  C     -0.188170   -0.698490    0.004290
  C     -1.415380   -1.399400   -0.123780
  C     -2.556670   -0.625860   -0.163360
  C     -2.525820    0.777020   -0.082430
  C     -1.382660   -2.850560   -0.197810
  C     -2.428830   -3.656210   -0.350910
  H     -1.325770    2.550140    0.106310
  H     -3.517780   -1.107010   -0.258000
  H     -3.462620    1.313610   -0.119180
  H     -0.386880   -3.267290   -0.116720
  H     -3.439150   -3.292940   -0.442290
  H     -2.306550   -4.724650   -0.393020

----------------------------
CARTESIAN COORDINATES (A.U.)
----------------------------
  NO LB      ZA    FRAG     MASS         X           Y           Z
   0 C     6.0000    0    12.011   -2.560295    2.786685    0.079293
   1 C     6.0000    0    12.011   -0.303282    1.395015    0.163348
   2 N     7.0000    0    14.007    2.046479    2.285718    0.382688
   3 S    16.0000    0    32.060    3.974075   -0.058071    0.389076
   4 N     7.0000    0    14.007    1.957208   -2.312609    0.118939
   5 C     6.0000    0    12.011   -0.355590   -1.319955    0.008107
   6 C     6.0000    0    12.011   -2.674681   -2.644483   -0.233910
   7 C     6.0000    0    12.011   -4.831406   -1.182704   -0.308706
   8 C     6.0000    0    12.011   -4.773108    1.468355   -0.155770
   9 C     6.0000    0    12.011   -2.612849   -5.386778   -0.373807
  10 C     6.0000    0    12.011   -4.589824   -6.909236   -0.663124
  11 H     1.0000    0     1.008   -2.505342    4.819066    0.200897
  12 H     1.0000    0     1.008   -6.647641   -2.091946   -0.487549
  13 H     1.0000    0     1.008   -6.543404    2.482363   -0.225218
  14 H     1.0000    0     1.008   -0.731097   -6.174283   -0.220569
  15 H     1.0000    0     1.008   -6.499052   -6.222755   -0.835807
  16 H     1.0000    0     1.008   -4.358748   -8.928295   -0.742700

--------------------------------
INTERNAL COORDINATES (ANGSTROEM)
--------------------------------
 C      0   0   0     0.000000000000     0.00000000     0.00000000
 C      1   0   0     1.403858309659     0.00000000     0.00000000
 N      2   1   0     1.334832077117   127.59243359     0.00000000
 S      3   2   1     1.605860362672   108.61271412   180.00602102
 N      4   3   2     1.607137082952    98.70415398   359.95746769
 C      5   4   3     1.333136024943   108.72783182     0.03174254
 C      6   5   4     1.419056424918   127.10539481   179.94943537
 C      7   6   5     1.379301842274   116.17804670   180.04118507
 C      1   2   3     1.368696909436   117.60426554   179.96303954
 C      7   6   5     1.453415420621   118.57366570     0.24502426
 C     10   7   6     1.329279203704   126.39071954   181.75764702
 H      1   2   3     1.077805784453   119.90805754   359.89898042
 H      8   7   6     1.078978444734   119.30641304   180.11392704
 H      9   1   2     1.080219251171   119.46216427   179.97129222
 H     10   7   6     1.082505099018   113.65722920     1.67453934
 H     11  10   7     1.077525823217   122.91342518     0.28040528
 H     11  10   7     1.076238674319   121.11619753   180.12741988

---------------------------
INTERNAL COORDINATES (A.U.)
---------------------------
 C      0   0   0     0.000000000000     0.00000000     0.00000000
 C      1   0   0     2.652907736086     0.00000000     0.00000000
 N      2   1   0     2.522467060524   127.59243359     0.00000000
 S      3   2   1     3.034636294769   108.61271412   180.00602102
 N      4   3   2     3.037048946449    98.70415398   359.95746769
 C      5   4   3     2.519261986406   108.72783182     0.03174254
 C      6   5   4     2.681628011676   127.10539481   179.94943537
 C      7   6   5     2.606502737911   116.17804670   180.04118507
 C      1   2   3     2.586462319179   117.60426554   179.96303954
 C      7   6   5     2.746557103792   118.57366570     0.24502426
 C     10   7   6     2.511973650518   126.39071954   181.75764702
 H      1   2   3     2.036757758172   119.90805754   359.89898042
 H      8   7   6     2.038973764951   119.30641304   180.11392704
 H      9   1   2     2.041318549302   119.46216427   179.97129222
 H     10   7   6     2.045638175717   113.65722920     1.67453934
 H     11  10   7     2.036228708109   122.91342518     0.28040528
 H     11  10   7     2.033796349197   121.11619753   180.12741988

---------------------
BASIS SET INFORMATION
---------------------
There are 4 groups of distinct atoms

 Group   1 Type C   : 7s4p1d contracted to 3s2p1d pattern {511/31/1}
 Group   2 Type N   : 7s4p1d contracted to 3s2p1d pattern {511/31/1}
 Group   3 Type S   : 10s7p1d contracted to 4s3p1d pattern {5311/511/1}
 Group   4 Type H   : 4s1p contracted to 2s1p pattern {31/1}

Atom   0C    basis set group =>   1
Atom   1C    basis set group =>   1
Atom   2N    basis set group =>   2
Atom   3S    basis set group =>   3
Atom   4N    basis set group =>   2
Atom   5C    basis set group =>   1
Atom   6C    basis set group =>   1
Atom   7C    basis set group =>   1
Atom   8C    basis set group =>   1
Atom   9C    basis set group =>   1
Atom  10C    basis set group =>   1
Atom  11H    basis set group =>   4
Atom  12H    basis set group =>   4
Atom  13H    basis set group =>   4
Atom  14H    basis set group =>   4
Atom  15H    basis set group =>   4
Atom  16H    basis set group =>   4
---------------------------------
AUXILIARY/J BASIS SET INFORMATION
---------------------------------
There are 4 groups of distinct atoms

 Group   1 Type C   : 12s5p4d2f1g contracted to 6s4p3d1f1g pattern {711111/2111/211/2/1}
 Group   2 Type N   : 12s5p4d2f1g contracted to 6s4p3d1f1g pattern {711111/2111/211/2/1}
 Group   3 Type S   : 14s5p5d2f1g contracted to 8s4p3d1f1g pattern {71111111/2111/311/2/1}
 Group   4 Type H   : 5s2p1d contracted to 3s1p1d pattern {311/2/1}

Atom   0C    basis set group =>   1
Atom   1C    basis set group =>   1
Atom   2N    basis set group =>   2
Atom   3S    basis set group =>   3
Atom   4N    basis set group =>   2
Atom   5C    basis set group =>   1
Atom   6C    basis set group =>   1
Atom   7C    basis set group =>   1
Atom   8C    basis set group =>   1
Atom   9C    basis set group =>   1
Atom  10C    basis set group =>   1
Atom  11H    basis set group =>   4
Atom  12H    basis set group =>   4
Atom  13H    basis set group =>   4
Atom  14H    basis set group =>   4
Atom  15H    basis set group =>   4
Atom  16H    basis set group =>   4
------------------------------------------------------------------------------
                           ORCA GTO INTEGRAL CALCULATION
                           -- RI-GTO INTEGRALS CHOSEN --
------------------------------------------------------------------------------

                         BASIS SET STATISTICS AND STARTUP INFO

Gaussian basis set:
 # of primitive gaussian shells          ...  168
 # of primitive gaussian functions       ...  318
 # of contracted shells                  ...   86
 # of contracted basis functions         ...  188
 Highest angular momentum                ...    2
 Maximum contraction depth               ...    5
Auxiliary gaussian basis set:
 # of primitive gaussian shells          ...  315
 # of primitive gaussian functions       ...  873
 # of contracted shells                  ...  197
 # of contracted aux-basis functions     ...  607
 Highest angular momentum                ...    4
 Maximum contraction depth               ...    7
Ratio of auxiliary to basis functions    ...  3.23
Integral package used                  ... LIBINT
 One Electron integrals                  ... done
 Ordering auxiliary basis shells         ... done
 Integral threshhold             Thresh  ...  2.500e-11
 Primitive cut-off               TCut    ...  2.500e-12
 Pre-screening matrix                    ... done
 Shell pair data                         ... 
 Ordering of the shell pairs             ... done (   0.001 sec) 3385 of 3741 pairs
 Determination of significant pairs      ... done (   0.000 sec)
 Creation of shell pair data             ... done (   0.001 sec)
 Storage of shell pair data              ... done (   0.001 sec)
 Shell pair data done in (   0.002 sec)
 Computing two index integrals           ... done
 Cholesky decomposition of the V-matrix  ... done


Timings:
 Total evaluation time                   ...   0.154 sec (  0.003 min)
 One electron matrix time                ...   0.016 sec (  0.000 min) = 10.7%
 Schwartz matrix evaluation time         ...   0.103 sec (  0.002 min) = 66.9%
 Two index repulsion integral time       ...   0.009 sec (  0.000 min) =  6.1%
 Cholesky decomposition of V             ...   0.006 sec (  0.000 min) =  4.1%
 Three index repulsion integral time     ...   0.000 sec (  0.000 min) =  0.0%

-------------------------------------------------------------------------------
                                 ORCA SCF
-------------------------------------------------------------------------------

------------
SCF SETTINGS
------------
Hamiltonian:
 Density Functional     Method          .... DFT(GTOs)
 Exchange Functional    Exchange        .... B88
   X-Alpha parameter    XAlpha          ....  0.666667
   Becke's b parameter  XBeta           ....  0.004200
 Correlation Functional Correlation     .... LYP
 LDA part of GGA corr.  LDAOpt          .... VWN-3
 Gradients option       PostSCFGGA      .... off
 Hybrid DFT is turned on
   Fraction HF Exchange ScalHFX         ....  0.200000
   Scaling of DF-GGA-X  ScalDFX         ....  0.720000
   Scaling of DF-GGA-C  ScalDFC         ....  0.810000
   Scaling of DF-LDA-C  ScalLDAC        ....  1.000000
   Perturbative correction              ....  0.000000
   Density functional embedding theory  .... OFF
   NL short-range parameter             ....  4.800000
 RI-approximation to the Coulomb term is turned on
   Number of auxiliary basis functions  .... 607
   RIJ-COSX (HFX calculated with COS-X)).... on


General Settings:
 Integral files         IntName         .... 162
 Hartree-Fock type      HFTyp           .... RHF
 Total Charge           Charge          ....    0
 Multiplicity           Mult            ....    1
 Number of Electrons    NEL             ....   84
 Basis Dimension        Dim             ....  188
 Nuclear Repulsion      ENuc            ....    640.1166907689 Eh

Convergence Acceleration:
 DIIS                   CNVDIIS         .... on
   Start iteration      DIISMaxIt       ....    12
   Startup error        DIISStart       ....  0.200000
   # of expansion vecs  DIISMaxEq       ....     5
   Bias factor          DIISBfac        ....   1.050
   Max. coefficient     DIISMaxC        ....  10.000
 Newton-Raphson         CNVNR           .... off
 SOSCF                  CNVSOSCF        .... on
   Start iteration      SOSCFMaxIt      ....   150
   Startup grad/error   SOSCFStart      ....  0.003300
 Level Shifting         CNVShift        .... on
   Level shift para.    LevelShift      ....    0.2500
   Turn off err/grad.   ShiftErr        ....    0.0010
 Zerner damping         CNVZerner       .... off
 Static damping         CNVDamp         .... on
   Fraction old density DampFac         ....    0.7000
   Max. Damping (<1)    DampMax         ....    0.9800
   Min. Damping (>=0)   DampMin         ....    0.0000
   Turn off err/grad.   DampErr         ....    0.1000
 Fernandez-Rico         CNVRico         .... off

SCF Procedure:
 Maximum # iterations   MaxIter         ....   125
 SCF integral mode      SCFMode         .... Direct
   Integral package                     .... LIBINT
 Reset frequency        DirectResetFreq ....    20
 Integral Threshold     Thresh          ....  2.500e-11 Eh
 Primitive CutOff       TCut            ....  2.500e-12 Eh

Convergence Tolerance:
 Convergence Check Mode ConvCheckMode   .... Total+1el-Energy
 Convergence forced     ConvForced      .... 0
 Energy Change          TolE            ....  1.000e-08 Eh
 1-El. energy change                    ....  1.000e-05 Eh
 Orbital Gradient       TolG            ....  1.000e-05
 Orbital Rotation angle TolX            ....  1.000e-05
 DIIS Error             TolErr          ....  5.000e-07


Diagonalization of the overlap matrix:
Smallest eigenvalue                        ... 2.080e-04
Time for diagonalization                   ...    0.005 sec
Threshold for overlap eigenvalues          ... 1.000e-08
Number of eigenvalues below threshold      ... 0
Time for construction of square roots      ...    0.001 sec
Total time needed                          ...    0.006 sec

-------------------
DFT GRID GENERATION
-------------------

General Integration Accuracy     IntAcc      ...  4.340
Radial Grid Type                 RadialGrid  ... Gauss-Chebyshev
Angular Grid (max. acc.)         AngularGrid ... Lebedev-110
Angular grid pruning method      GridPruning ... 3 (G Style)
Weight generation scheme         WeightScheme... Becke
Basis function cutoff            BFCut       ...    1.0000e-11
Integration weight cutoff        WCut        ...    1.0000e-14
Grids for H and He will be reduced by one unit

# of grid points (after initial pruning)     ...  23222 (   0.0 sec)
# of grid points (after weights+screening)   ...  21455 (   0.0 sec)
nearest neighbour list constructed           ...    0.0 sec
Grid point re-assignment to atoms done       ...    0.0 sec
Grid point division into batches done        ...    0.0 sec
Reduced shell lists constructed in    0.1 sec

Total number of grid points                  ...    21455
Total number of batches                      ...      342
Average number of points per batch           ...       62
Average number of grid points per atom       ...     1262
Average number of shells per batch           ...    57.60 (66.98%)
Average number of basis functions per batch  ...   124.85 (66.41%)
Average number of large shells per batch     ...    44.37 (77.03%)
Average number of large basis fcns per batch ...    95.45 (76.45%)
Maximum spatial batch extension              ...  20.53, 18.53, 25.69 au
Average spatial batch extension              ...   3.80,  3.45,  4.88 au

Time for grid setup =    0.201 sec

------------------------------
INITIAL GUESS: MODEL POTENTIAL
------------------------------
Loading Hartree-Fock densities                     ... done
Calculating cut-offs                               ... done
Setting up the integral package                    ... done
Initializing the effective Hamiltonian             ... done
Starting the Coulomb interaction                   ... done (   0.1 sec)
Reading the grid                                   ... done
Mapping shells                                     ... done
Starting the XC term evaluation                    ... done (   0.2 sec)
  promolecular density results
     # of electrons  =     84.003494988
     EX              =    -81.130678645
     EC              =     -2.979870712
     EX+EC           =    -84.110549356
Transforming the Hamiltonian                       ... done (   0.0 sec)
Diagonalizing the Hamiltonian                      ... done (   0.0 sec)
Back transforming the eigenvectors                 ... done (   0.0 sec)
Now organizing SCF variables                       ... done
                      ------------------
                      INITIAL GUESS DONE (   0.6 sec)
                      ------------------
--------------------
COSX GRID GENERATION
--------------------

General Integration Accuracy     IntAcc      ...  3.340
Radial Grid Type                 RadialGrid  ... Gauss-Chebyshev
Angular Grid (max. acc.)         AngularGrid ... Lebedev-50
Angular grid pruning method      GridPruning ... 3 (G Style)
Weight generation scheme         WeightScheme... Becke
Basis function cutoff            BFCut       ...    1.0000e-11
Integration weight cutoff        WCut        ...    1.0000e-14
Grids for H and He will be reduced by one unit

# of grid points (after initial pruning)     ...   8398 (   0.0 sec)
# of grid points (after weights+screening)   ...   7851 (   0.0 sec)
nearest neighbour list constructed           ...    0.0 sec
Grid point re-assignment to atoms done       ...    0.0 sec
Grid point division into batches done        ...    0.0 sec
Reduced shell lists constructed in    0.1 sec

Total number of grid points                  ...     7851
Total number of batches                      ...      132
Average number of points per batch           ...       59
Average number of grid points per atom       ...      462
Average number of shells per batch           ...    61.47 (71.47%)
Average number of basis functions per batch  ...   134.20 (71.38%)
Average number of large shells per batch     ...    47.72 (77.64%)
Average number of large basis fcns per batch ...   103.71 (77.28%)
Maximum spatial batch extension              ...  17.91, 21.68, 20.99 au
Average spatial batch extension              ...   4.89,  4.61,  6.67 au

Overlap Fitting                  UseSFitting ... on
Constructing numerical overlap ... done (      0.0 sec)
Inverting numerical overlap    ... done (      0.0 sec)
Obtaining analytic overlap     ... done (      0.0 sec)
Final contraction and storage  ... done (      0.0 sec)


General Integration Accuracy     IntAcc      ...  3.670
Radial Grid Type                 RadialGrid  ... Gauss-Chebyshev
Angular Grid (max. acc.)         AngularGrid ... Lebedev-50
Angular grid pruning method      GridPruning ... 3 (G Style)
Weight generation scheme         WeightScheme... Becke
Basis function cutoff            BFCut       ...    1.0000e-11
Integration weight cutoff        WCut        ...    1.0000e-14
Grids for H and He will be reduced by one unit

# of grid points (after initial pruning)     ...  10546 (   0.0 sec)
# of grid points (after weights+screening)   ...   9838 (   0.0 sec)
nearest neighbour list constructed           ...    0.0 sec
Grid point re-assignment to atoms done       ...    0.0 sec
Grid point division into batches done        ...    0.0 sec
Reduced shell lists constructed in    0.1 sec

Total number of grid points                  ...     9838
Total number of batches                      ...      165
Average number of points per batch           ...       59
Average number of grid points per atom       ...      579
Average number of shells per batch           ...    60.59 (70.45%)
Average number of basis functions per batch  ...   131.76 (70.08%)
Average number of large shells per batch     ...    46.64 (76.98%)
Average number of large basis fcns per batch ...   100.98 (76.64%)
Maximum spatial batch extension              ...  19.83, 17.93, 33.72 au
Average spatial batch extension              ...   4.54,  4.23,  6.25 au

Overlap Fitting                  UseSFitting ... on
Constructing numerical overlap ... done (      0.0 sec)
Inverting numerical overlap    ... done (      0.0 sec)
Obtaining analytic overlap     ... done (      0.0 sec)
Final contraction and storage  ... done (      0.0 sec)


General Integration Accuracy     IntAcc      ...  4.010
Radial Grid Type                 RadialGrid  ... Gauss-Chebyshev
Angular Grid (max. acc.)         AngularGrid ... Lebedev-110
Angular grid pruning method      GridPruning ... 3 (G Style)
Weight generation scheme         WeightScheme... Becke
Basis function cutoff            BFCut       ...    1.0000e-11
Integration weight cutoff        WCut        ...    1.0000e-14
Grids for H and He will be reduced by one unit

# of grid points (after initial pruning)     ...  20320 (   0.0 sec)
# of grid points (after weights+screening)   ...  18834 (   0.0 sec)
nearest neighbour list constructed           ...    0.0 sec
Grid point re-assignment to atoms done       ...    0.0 sec
Grid point division into batches done        ...    0.0 sec
Reduced shell lists constructed in    0.1 sec

Total number of grid points                  ...    18834
Total number of batches                      ...      304
Average number of points per batch           ...       61
Average number of grid points per atom       ...     1108
Average number of shells per batch           ...    58.13 (67.59%)
Average number of basis functions per batch  ...   126.22 (67.14%)
Average number of large shells per batch     ...    44.70 (76.91%)
Average number of large basis fcns per batch ...    96.13 (76.16%)
Maximum spatial batch extension              ...  19.89, 17.48, 24.32 au
Average spatial batch extension              ...   3.89,  3.50,  4.77 au

Overlap Fitting                  UseSFitting ... on
Constructing numerical overlap ... done (      0.1 sec)
Inverting numerical overlap    ... done (      0.0 sec)
Obtaining analytic overlap     ... done (      0.0 sec)
Final contraction and storage  ... done (      0.0 sec)

Time for X-Grid setup             =    0.577 sec
--------------
SCF ITERATIONS
--------------
ITER       Energy         Delta-E        Max-DP      RMS-DP      [F,P]     Damp
               ***  Starting incremental Fock matrix formation  ***
  0   -815.3373022763   0.000000000000 0.10282114  0.00316953  0.2187967 0.7000
  1   -815.5146094567  -0.177307180492 0.06956899  0.00209317  0.1034058 0.7000
                               ***Turning on DIIS***
  2   -815.5778356970  -0.063226240232 0.17468168  0.00351189  0.0362937 0.0000
  3   -815.6645235620  -0.086687864973 0.06904809  0.00145715  0.0562417 0.0000
  4   -815.6963723216  -0.031848759687 0.01624741  0.00045730  0.0169096 0.0000
  5   -815.6985186080  -0.002146286315 0.00743380  0.00020887  0.0064176 0.0000
                      *** Initiating the SOSCF procedure ***
                           *** Shutting down DIIS ***
                      *** Re-Reading the Fockian *** 
                      *** Removing any level shift *** 
ITER      Energy       Delta-E        Grad      Rot      Max-DP    RMS-DP
  6   -815.69886173  -0.0003431197  0.000984  0.000984  0.002285  0.000063
               *** Restarting incremental Fock matrix formation ***
  7   -815.69889305  -0.0000313274  0.000314  0.001344  0.002080  0.000047
  8   -815.69889505  -0.0000019907  0.000358  0.000615  0.001001  0.000023
  9   -815.69889785  -0.0000028024  0.000139  0.000438  0.000603  0.000015
 10   -815.69889788  -0.0000000315  0.000102  0.000349  0.000305  0.000008
 11   -815.69889821  -0.0000003299  0.000067  0.000210  0.000311  0.000007
 12   -815.69889821   0.0000000045  0.000067  0.000112  0.000140  0.000004
 13   -815.69889836  -0.0000001530  0.000011  0.000047  0.000162  0.000002
 14   -815.69889835   0.0000000090  0.000012  0.000025  0.000053  0.000001
 15   -815.69889836  -0.0000000116  0.000004  0.000007  0.000039  0.000001
 16   -815.69889836   0.0000000030  0.000003  0.000006  0.000023  0.000000
                  ***Gradient check signals convergence***
              ***Rediagonalizing the Fockian in SOSCF/NRSCF***

               *****************************************************
               *                     SUCCESS                       *
               *           SCF CONVERGED AFTER  17 CYCLES          *
               *****************************************************

Setting up the final grid:

General Integration Accuracy     IntAcc      ...  4.670
Radial Grid Type                 RadialGrid  ... Gauss-Chebyshev
Angular Grid (max. acc.)         AngularGrid ... Lebedev-302
Angular grid pruning method      GridPruning ... 3 (G Style)
Weight generation scheme         WeightScheme... Becke
Basis function cutoff            BFCut       ...    1.0000e-11
Integration weight cutoff        WCut        ...    1.0000e-14
Grids for H and He will be reduced by one unit

# of grid points (after initial pruning)     ...  89330 (   0.0 sec)
# of grid points (after weights+screening)   ...  81378 (   0.2 sec)
nearest neighbour list constructed           ...    0.0 sec
Grid point re-assignment to atoms done       ...    0.0 sec
Grid point division into batches done        ...    0.3 sec
Reduced shell lists constructed in    0.8 sec

Total number of grid points                  ...    81378
Total number of batches                      ...     1278
Average number of points per batch           ...       63
Average number of grid points per atom       ...     4787
Average number of shells per batch           ...    52.13 (60.61%)
Average number of basis functions per batch  ...   112.13 (59.65%)
Average number of large shells per batch     ...    39.32 (75.42%)
Average number of large basis fcns per batch ...    83.85 (74.78%)
Maximum spatial batch extension              ...  19.20, 18.01, 22.94 au
Average spatial batch extension              ...   2.50,  2.34,  2.81 au

Final grid set up in    1.0 sec
Final integration                            ... done (   1.0 sec)
Change in XC energy                          ...    -0.000566032
Integrated number of electrons               ...    84.000059819
Previous integrated no of electrons          ...    84.001961779
Old exchange energy                            =    -16.362308589 Eh
New exchange energy                            =    -16.362826405 Eh
Exchange energy change after final integration =     -0.000517816 Eh
Total energy after final integration           =   -815.699982207 Eh
Final COS-X integration done in                =     6.430 sec

----------------
TOTAL SCF ENERGY
----------------

Total Energy       :         -815.69998221 Eh          -22196.32496 eV

Components:
Nuclear Repulsion  :          640.11669077 Eh           17418.46069 eV
Electronic Energy  :        -1455.81667298 Eh          -39614.78565 eV
One Electron Energy:        -2383.45641394 Eh          -64857.14630 eV
Two Electron Energy:          927.63974096 Eh           25242.36065 eV

Virial components:
Potential Energy   :        -1626.64476395 Eh          -44263.25433 eV
Kinetic Energy     :          810.94478174 Eh           22066.92937 eV
Virial Ratio       :            2.00586378


DFT components:
N(Alpha)           :       42.000029909573 electrons
N(Beta)            :       42.000029909573 electrons
N(Total)           :       84.000059819146 electrons
E(X)               :      -65.025523186786 Eh       
E(C)               :       -3.817124817902 Eh       
E(XC)              :      -68.842648004688 Eh       
DFET-embed. en.    :        0.000000000000 Eh       

---------------
SCF CONVERGENCE
---------------

  Last Energy change         ...   -1.1266e-09  Tolerance :   1.0000e-08
  Last MAX-Density change    ...    3.5527e-15  Tolerance :   1.0000e-07
  Last RMS-Density change    ...    5.2804e-17  Tolerance :   5.0000e-09
  Last Orbital Gradient      ...    1.6396e-06  Tolerance :   1.0000e-05
  Last Orbital Rotation      ...    7.7826e-06  Tolerance :   1.0000e-05

             **** THE GBW FILE WAS UPDATED (162.gbw) ****
             **** DENSITY FILE WAS UPDATED (162.scfp) ****
             **** ENERGY FILE WAS UPDATED (162.en.tmp) ****
             **** THE GBW FILE WAS UPDATED (162.gbw) ****
             **** DENSITY FILE WAS UPDATED (162.scfp) ****
----------------
ORBITAL ENERGIES
----------------

  NO   OCC          E(Eh)            E(eV) 
   0   2.0000     -88.938497     -2420.1395 
   1   2.0000     -14.351839      -390.5334 
   2   2.0000     -14.350332      -390.4924 
   3   2.0000     -10.236507      -278.5495 
   4   2.0000     -10.236069      -278.5376 
   5   2.0000     -10.210516      -277.8423 
   6   2.0000     -10.206344      -277.7287 
   7   2.0000     -10.203748      -277.6581 
   8   2.0000     -10.203084      -277.6400 
   9   2.0000     -10.195350      -277.4296 
  10   2.0000     -10.190413      -277.2952 
  11   2.0000      -8.030157      -218.5117 
  12   2.0000      -6.000089      -163.2707 
  13   2.0000      -5.992627      -163.0677 
  14   2.0000      -5.991634      -163.0406 
  15   2.0000      -1.028105       -27.9762 
  16   2.0000      -0.886003       -24.1094 
  17   2.0000      -0.867050       -23.5936 
  18   2.0000      -0.793737       -21.5987 
  19   2.0000      -0.767131       -20.8747 
  20   2.0000      -0.731290       -19.8994 
  21   2.0000      -0.657451       -17.8902 
  22   2.0000      -0.626068       -17.0362 
  23   2.0000      -0.611331       -16.6352 
  24   2.0000      -0.554665       -15.0932 
  25   2.0000      -0.516314       -14.0496 
  26   2.0000      -0.511056       -13.9066 
  27   2.0000      -0.488466       -13.2918 
  28   2.0000      -0.466535       -12.6951 
  29   2.0000      -0.463231       -12.6052 
  30   2.0000      -0.433806       -11.8045 
  31   2.0000      -0.406139       -11.0516 
  32   2.0000      -0.392206       -10.6725 
  33   2.0000      -0.388276       -10.5655 
  34   2.0000      -0.376115       -10.2346 
  35   2.0000      -0.364669        -9.9231 
  36   2.0000      -0.345021        -9.3885 
  37   2.0000      -0.320774        -8.7287 
  38   2.0000      -0.296186        -8.0596 
  39   2.0000      -0.293560        -7.9882 
  40   2.0000      -0.273075        -7.4307 
  41   2.0000      -0.229411        -6.2426 
  42   0.0000      -0.092860        -2.5268 
  43   0.0000      -0.029191        -0.7943 
  44   0.0000       0.004136         0.1125 
  45   0.0000       0.023610         0.6424 
  46   0.0000       0.055483         1.5098 
  47   0.0000       0.062971         1.7135 
  48   0.0000       0.088938         2.4201 
  49   0.0000       0.090920         2.4741 
  50   0.0000       0.115492         3.1427 
  51   0.0000       0.131257         3.5717 
  52   0.0000       0.160868         4.3774 
  53   0.0000       0.168294         4.5795 
  54   0.0000       0.182835         4.9752 
  55   0.0000       0.215650         5.8681 
  56   0.0000       0.253883         6.9085 
  57   0.0000       0.264893         7.2081 
  58   0.0000       0.270137         7.3508 
  59   0.0000       0.292706         7.9649 
  60   0.0000       0.302169         8.2224 
  61   0.0000       0.309339         8.4176 
  62   0.0000       0.326928         8.8962 
  63   0.0000       0.335918         9.1408 
  64   0.0000       0.365839         9.9550 
  65   0.0000       0.389850        10.6084 
  66   0.0000       0.407502        11.0887 
  67   0.0000       0.444317        12.0905 
  68   0.0000       0.446986        12.1631 
  69   0.0000       0.453240        12.3333 
  70   0.0000       0.459068        12.4919 
  71   0.0000       0.474226        12.9043 
  72   0.0000       0.480655        13.0793 
  73   0.0000       0.513074        13.9615 
  74   0.0000       0.518412        14.1067 
  75   0.0000       0.519254        14.1296 
  76   0.0000       0.544791        14.8245 
  77   0.0000       0.546392        14.8681 
  78   0.0000       0.564780        15.3685 
  79   0.0000       0.571885        15.5618 
  80   0.0000       0.590045        16.0559 
  81   0.0000       0.603098        16.4111 
  82   0.0000       0.607071        16.5192 
  83   0.0000       0.611791        16.6477 
  84   0.0000       0.634726        17.2718 
  85   0.0000       0.642111        17.4727 
  86   0.0000       0.650297        17.6955 
  87   0.0000       0.655008        17.8237 
  88   0.0000       0.669346        18.2138 
  89   0.0000       0.677377        18.4324 
  90   0.0000       0.681287        18.5388 
  91   0.0000       0.703851        19.1528 
  92   0.0000       0.712309        19.3829 
  93   0.0000       0.731271        19.8989 
  94   0.0000       0.741247        20.1704 
  95   0.0000       0.752565        20.4783 
  96   0.0000       0.755139        20.5484 
  97   0.0000       0.776147        21.1200 
  98   0.0000       0.783212        21.3123 
  99   0.0000       0.800860        21.7925 
 100   0.0000       0.831098        22.6153 
 101   0.0000       0.862821        23.4785 
 102   0.0000       0.871374        23.7113 
 103   0.0000       0.879835        23.9415 
 104   0.0000       0.926440        25.2097 
 105   0.0000       0.938647        25.5419 
 106   0.0000       0.979193        26.6452 
 107   0.0000       1.022294        27.8180 
 108   0.0000       1.043820        28.4038 
 109   0.0000       1.063644        28.9432 
 110   0.0000       1.101065        29.9615 
 111   0.0000       1.127372        30.6774 
 112   0.0000       1.174768        31.9671 
 113   0.0000       1.181635        32.1539 
 114   0.0000       1.189692        32.3732 
 115   0.0000       1.206180        32.8218 
 116   0.0000       1.213846        33.0304 
 117   0.0000       1.219056        33.1722 
 118   0.0000       1.246293        33.9134 
 119   0.0000       1.251733        34.0614 
 120   0.0000       1.254574        34.1387 
 121   0.0000       1.267194        34.4821 
 122   0.0000       1.287279        35.0286 
 123   0.0000       1.317000        35.8374 
 124   0.0000       1.339466        36.4487 
 125   0.0000       1.399267        38.0760 
 126   0.0000       1.421694        38.6863 
 127   0.0000       1.469064        39.9753 
 128   0.0000       1.614763        43.9399 
 129   0.0000       1.647832        44.8398 
 130   0.0000       1.655227        45.0410 
 131   0.0000       1.658739        45.1366 
 132   0.0000       1.703162        46.3454 
 133   0.0000       1.715118        46.6707 
 134   0.0000       1.725194        46.9449 
 135   0.0000       1.727832        47.0167 
 136   0.0000       1.774373        48.2831 
 137   0.0000       1.775021        48.3008 
 138   0.0000       1.817391        49.4537 
 139   0.0000       1.829484        49.7828 
 140   0.0000       1.855638        50.4945 
 141   0.0000       1.863843        50.7178 
 142   0.0000       1.865673        50.7675 
 143   0.0000       1.927038        52.4374 
 144   0.0000       1.937880        52.7324 
 145   0.0000       1.979646        53.8689 
 146   0.0000       1.996693        54.3328 
 147   0.0000       2.013807        54.7985 
 148   0.0000       2.065803        56.2134 
 149   0.0000       2.074236        56.4428 
 150   0.0000       2.103418        57.2369 
 151   0.0000       2.115093        57.5546 
 152   0.0000       2.125676        57.8426 
 153   0.0000       2.144059        58.3428 
 154   0.0000       2.173868        59.1540 
 155   0.0000       2.225806        60.5673 
 156   0.0000       2.241661        60.9987 
 157   0.0000       2.260029        61.4985 
 158   0.0000       2.284197        62.1562 
 159   0.0000       2.313514        62.9539 
 160   0.0000       2.341880        63.7258 
 161   0.0000       2.361871        64.2698 
 162   0.0000       2.375522        64.6412 
 163   0.0000       2.425649        66.0053 
 164   0.0000       2.438711        66.3607 
 165   0.0000       2.521404        68.6109 
 166   0.0000       2.538636        69.0798 
 167   0.0000       2.570426        69.9448 
 168   0.0000       2.593561        70.5744 
 169   0.0000       2.606896        70.9372 
 170   0.0000       2.640865        71.8616 
 171   0.0000       2.660742        72.4025 
 172   0.0000       2.691412        73.2371 
 173   0.0000       2.699263        73.4507 
 174   0.0000       2.758331        75.0580 
 175   0.0000       2.761613        75.1473 
 176   0.0000       2.775916        75.5365 
 177   0.0000       2.812675        76.5368 
 178   0.0000       2.897473        78.8442 
 179   0.0000       2.924296        79.5741 
 180   0.0000       2.943584        80.0990 
 181   0.0000       3.001695        81.6803 
 182   0.0000       3.055299        83.1389 
 183   0.0000       3.164114        86.0999 
 184   0.0000       3.181275        86.5669 
 185   0.0000       3.267251        88.9064 
 186   0.0000       3.437336        93.5347 
 187   0.0000       3.634973        98.9127 

                    ********************************
                    * MULLIKEN POPULATION ANALYSIS *
                    ********************************

-----------------------
MULLIKEN ATOMIC CHARGES
-----------------------
   0 C :   -0.033360
   1 C :    0.079999
   2 N :   -0.282632
   3 S :    0.491430
   4 N :   -0.294596
   5 C :   -0.001406
   6 C :    0.079447
   7 C :   -0.042220
   8 C :    0.056934
   9 C :   -0.000770
  10 C :   -0.000110
  11 H :   -0.025696
  12 H :   -0.035579
  13 H :   -0.017760
  14 H :   -0.004700
  15 H :    0.006766
  16 H :    0.024253
Sum of atomic charges:    0.0000000

--------------------------------
MULLIKEN REDUCED ORBITAL CHARGES
--------------------------------
  0 C s       :     3.324627  s :     3.324627
      pz      :     0.990800  p :     2.673814
      px      :     0.945585
      py      :     0.737428
      dz2     :     0.002678  d :     0.034920
      dxz     :     0.006227
      dyz     :     0.002828
      dx2y2   :     0.011863
      dxy     :     0.011325
  1 C s       :     3.010076  s :     3.010076
      pz      :     0.984395  p :     2.848343
      px      :     0.837394
      py      :     1.026554
      dz2     :     0.004373  d :     0.061582
      dxz     :     0.011924
      dyz     :     0.005596
      dx2y2   :     0.021890
      dxy     :     0.017800
  2 N s       :     3.577537  s :     3.577537
      pz      :     1.214465  p :     3.674610
      px      :     1.047508
      py      :     1.412637
      dz2     :     0.003444  d :     0.030486
      dxz     :     0.004993
      dyz     :     0.004846
      dx2y2   :     0.005851
      dxy     :     0.011352
  3 S s       :     5.832919  s :     5.832919
      pz      :     3.500997  p :     9.458969
      px      :     3.192818
      py      :     2.765153
      dz2     :     0.020758  d :     0.216682
      dxz     :     0.017695
      dyz     :     0.044069
      dx2y2   :     0.056022
      dxy     :     0.078139
  4 N s       :     3.586121  s :     3.586121
      pz      :     1.215685  p :     3.678079
      px      :     1.043895
      py      :     1.418499
      dz2     :     0.003383  d :     0.030395
      dxz     :     0.005040
      dyz     :     0.004841
      dx2y2   :     0.005447
      dxy     :     0.011683
  5 C s       :     3.070708  s :     3.070708
      pz      :     0.988540  p :     2.870208
      px      :     0.883916
      py      :     0.997753
      dz2     :     0.004379  d :     0.060489
      dxz     :     0.011453
      dyz     :     0.005616
      dx2y2   :     0.021696
      dxy     :     0.017345
  6 C s       :     3.103846  s :     3.103846
      pz      :     0.981605  p :     2.773872
      px      :     0.964236
      py      :     0.828031
      dz2     :     0.003224  d :     0.042836
      dxz     :     0.006028
      dyz     :     0.006799
      dx2y2   :     0.012613
      dxy     :     0.014172
  7 C s       :     3.248544  s :     3.248544
      pz      :     0.980733  p :     2.758434
      px      :     0.879784
      py      :     0.897918
      dz2     :     0.002598  d :     0.035242
      dxz     :     0.003390
      dyz     :     0.005640
      dx2y2   :     0.011389
      dxy     :     0.012225
  8 C s       :     3.140817  s :     3.140817
      pz      :     0.977965  p :     2.765562
      px      :     0.865635
      py      :     0.921962
      dz2     :     0.002638  d :     0.036687
      dxz     :     0.003864
      dyz     :     0.005850
      dx2y2   :     0.011702
      dxy     :     0.012633
  9 C s       :     3.190825  s :     3.190825
      pz      :     0.967684  p :     2.773845
      px      :     0.860196
      py      :     0.945966
      dz2     :     0.002631  d :     0.036100
      dxz     :     0.003650
      dyz     :     0.005678
      dx2y2   :     0.013670
      dxy     :     0.010471
 10 C s       :     3.088274  s :     3.088274
      pz      :     0.991722  p :     2.884346
      px      :     0.949012
      py      :     0.943611
      dz2     :     0.001798  d :     0.027490
      dxz     :     0.003355
      dyz     :     0.002162
      dx2y2   :     0.012127
      dxy     :     0.008048
 11 H s       :     1.002226  s :     1.002226
      pz      :     0.004905  p :     0.023471
      px      :     0.003407
      py      :     0.015159
 12 H s       :     1.012032  s :     1.012032
      pz      :     0.004869  p :     0.023547
      px      :     0.012735
      py      :     0.005943
 13 H s       :     0.994386  s :     0.994386
      pz      :     0.004649  p :     0.023375
      px      :     0.012238
      py      :     0.006487
 14 H s       :     0.980759  s :     0.980759
      pz      :     0.004428  p :     0.023942
      px      :     0.014189
      py      :     0.005325
 15 H s       :     0.968781  s :     0.968781
      pz      :     0.004930  p :     0.024453
      px      :     0.013801
      py      :     0.005722
 16 H s       :     0.951267  s :     0.951267
      pz      :     0.005043  p :     0.024480
      px      :     0.004489
      py      :     0.014948


                     *******************************
                     * LOEWDIN POPULATION ANALYSIS *
                     *******************************

----------------------
LOEWDIN ATOMIC CHARGES
----------------------
   0 C :   -0.022756
   1 C :   -0.051905
   2 N :   -0.292135
   3 S :    0.633262
   4 N :   -0.293429
   5 C :   -0.045318
   6 C :   -0.027928
   7 C :   -0.008276
   8 C :   -0.011809
   9 C :   -0.014415
  10 C :   -0.029075
  11 H :    0.033901
  12 H :    0.026013
  13 H :    0.029523
  14 H :    0.032121
  15 H :    0.016658
  16 H :    0.025568

-------------------------------
LOEWDIN REDUCED ORBITAL CHARGES
-------------------------------
  0 C s       :     2.855952  s :     2.855952
      pz      :     0.977813  p :     3.074584
      px      :     1.053917
      py      :     1.042855
      dz2     :     0.006711  d :     0.092220
      dxz     :     0.013665
      dyz     :     0.004815
      dx2y2   :     0.034008
      dxy     :     0.033020
  1 C s       :     2.850276  s :     2.850276
      pz      :     0.969666  p :     3.046949
      px      :     1.022759
      py      :     1.054524
      dz2     :     0.010563  d :     0.154679
      dxz     :     0.023575
      dyz     :     0.011799
      dx2y2   :     0.061633
      dxy     :     0.047110
  2 N s       :     3.338045  s :     3.338045
      pz      :     1.219558  p :     3.895182
      px      :     1.180908
      py      :     1.494716
      dz2     :     0.006506  d :     0.058908
      dxz     :     0.009887
      dyz     :     0.005676
      dx2y2   :     0.011378
      dxy     :     0.025461
  3 S s       :     5.537365  s :     5.537365
      pz      :     3.462805  p :     9.554217
      px      :     3.277382
      py      :     2.814030
      dz2     :     0.031669  d :     0.275156
      dxz     :     0.017025
      dyz     :     0.052713
      dx2y2   :     0.068895
      dxy     :     0.104854
  4 N s       :     3.333485  s :     3.333485
      pz      :     1.221784  p :     3.900943
      px      :     1.174218
      py      :     1.504942
      dz2     :     0.006443  d :     0.059002
      dxz     :     0.010099
      dyz     :     0.005641
      dx2y2   :     0.010628
      dxy     :     0.026190
  5 C s       :     2.850843  s :     2.850843
      pz      :     0.973551  p :     3.042253
      px      :     1.021788
      py      :     1.046914
      dz2     :     0.010542  d :     0.152222
      dxz     :     0.022596
      dyz     :     0.011605
      dx2y2   :     0.060680
      dxy     :     0.046799
  6 C s       :     2.843233  s :     2.843233
      pz      :     0.964594  p :     3.071836
      px      :     1.059303
      py      :     1.047939
      dz2     :     0.007995  d :     0.112858
      dxz     :     0.013032
      dyz     :     0.013269
      dx2y2   :     0.037178
      dxy     :     0.041384
  7 C s       :     2.851566  s :     2.851566
      pz      :     0.968694  p :     3.064771
      px      :     1.047359
      py      :     1.048718
      dz2     :     0.006341  d :     0.091939
      dxz     :     0.006488
      dyz     :     0.011918
      dx2y2   :     0.032740
      dxy     :     0.034451
  8 C s       :     2.852256  s :     2.852256
      pz      :     0.957712  p :     3.064706
      px      :     1.052224
      py      :     1.054770
      dz2     :     0.006492  d :     0.094848
      dxz     :     0.007498
      dyz     :     0.012558
      dx2y2   :     0.033173
      dxy     :     0.035127
  9 C s       :     2.857559  s :     2.857559
      pz      :     0.951274  p :     3.062764
      px      :     1.076268
      py      :     1.035222
      dz2     :     0.006507  d :     0.094092
      dxz     :     0.007300
      dyz     :     0.012250
      dx2y2   :     0.038137
      dxy     :     0.029898
 10 C s       :     2.872153  s :     2.872153
      pz      :     0.968512  p :     3.085354
      px      :     1.063162
      py      :     1.053680
      dz2     :     0.005077  d :     0.071569
      dxz     :     0.006712
      dyz     :     0.004203
      dx2y2   :     0.033192
      dxy     :     0.022386
 11 H s       :     0.895187  s :     0.895187
      pz      :     0.015436  p :     0.070912
      px      :     0.011375
      py      :     0.044101
 12 H s       :     0.904031  s :     0.904031
      pz      :     0.015140  p :     0.069956
      px      :     0.036277
      py      :     0.018539
 13 H s       :     0.902041  s :     0.902041
      pz      :     0.014464  p :     0.068436
      px      :     0.034632
      py      :     0.019340
 14 H s       :     0.897600  s :     0.897600
      pz      :     0.013887  p :     0.070279
      px      :     0.040239
      py      :     0.016153
 15 H s       :     0.912943  s :     0.912943
      pz      :     0.015511  p :     0.070399
      px      :     0.038589
      py      :     0.016300
 16 H s       :     0.903946  s :     0.903946
      pz      :     0.015888  p :     0.070486
      px      :     0.012400
      py      :     0.042199


                      *****************************
                      * MAYER POPULATION ANALYSIS *
                      *****************************

  NA   - Mulliken gross atomic population
  ZA   - Total nuclear charge
  QA   - Mulliken gross atomic charge
  VA   - Mayer's total valence
  BVA  - Mayer's bonded valence
  FA   - Mayer's free valence

  ATOM       NA         ZA         QA         VA         BVA        FA
  0 C      6.0334     6.0000    -0.0334     3.8057     3.8057    -0.0000
  1 C      5.9200     6.0000     0.0800     3.9743     3.9743     0.0000
  2 N      7.2826     7.0000    -0.2826     2.9809     2.9809     0.0000
  3 S     15.5086    16.0000     0.4914     2.7979     2.7979     0.0000
  4 N      7.2946     7.0000    -0.2946     3.0051     3.0051    -0.0000
  5 C      6.0014     6.0000    -0.0014     3.9853     3.9853     0.0000
  6 C      5.9206     6.0000     0.0794     3.8542     3.8542     0.0000
  7 C      6.0422     6.0000    -0.0422     3.8055     3.8055    -0.0000
  8 C      5.9431     6.0000     0.0569     3.7455     3.7455    -0.0000
  9 C      6.0008     6.0000    -0.0008     3.9908     3.9908    -0.0000
 10 C      6.0001     6.0000    -0.0001     3.8942     3.8942    -0.0000
 11 H      1.0257     1.0000    -0.0257     0.9933     0.9933     0.0000
 12 H      1.0356     1.0000    -0.0356     0.9866     0.9866    -0.0000
 13 H      1.0178     1.0000    -0.0178     0.9786     0.9786     0.0000
 14 H      1.0047     1.0000    -0.0047     1.0062     1.0062    -0.0000
 15 H      0.9932     1.0000     0.0068     0.9802     0.9802     0.0000
 16 H      0.9757     1.0000     0.0243     0.9756     0.9756     0.0000

  Mayer bond orders larger than 0.100000
B(  0-C ,  1-C ) :   1.2165 B(  0-C ,  6-C ) :   0.1086 B(  0-C ,  8-C ) :   1.4482 
B(  0-C , 11-H ) :   1.0227 B(  1-C ,  2-N ) :   1.4808 B(  1-C ,  5-C ) :   1.1536 
B(  2-N ,  3-S ) :   1.2719 B(  2-N ,  4-N ) :   0.1585 B(  3-S ,  4-N ) :   1.2592 
B(  4-N ,  5-C ) :   1.5173 B(  5-C ,  6-C ) :   1.1877 B(  6-C ,  7-C ) :   1.4621 
B(  6-C ,  9-C ) :   1.1153 B(  7-C ,  8-C ) :   1.2290 B(  7-C , 12-H ) :   0.9930 
B(  8-C , 13-H ) :   0.9840 B(  9-C , 10-C ) :   1.9028 B(  9-C , 14-H ) :   0.9637 
B( 10-C , 15-H ) :   0.9445 B( 10-C , 16-H ) :   0.9477 

-------
TIMINGS
-------

Total SCF time: 0 days 0 hours 1 min 10 sec 

Total time                  ....      70.156 sec
Sum of individual times     ....      70.027 sec  ( 99.8%)

Fock matrix formation       ....      67.754 sec  ( 96.6%)
  Split-RI-J                ....       6.848 sec  ( 10.1% of F)
  Chain of spheres X        ....      54.986 sec  ( 81.2% of F)
  COS-X 1 center corr.      ....       0.000 sec  (  0.0% of F)
  XC integration            ....       5.869 sec  (  8.7% of F)
    Basis function eval.    ....       2.182 sec  ( 37.2% of XC)
    Density eval.           ....       1.229 sec  ( 20.9% of XC)
    XC-Functional eval.     ....       0.437 sec  (  7.4% of XC)
    XC-Potential eval.      ....       1.818 sec  ( 31.0% of XC)
Diagonalization             ....       0.032 sec  (  0.0%)
Density matrix formation    ....       0.011 sec  (  0.0%)
Population analysis         ....       0.004 sec  (  0.0%)
Initial guess               ....       0.440 sec  (  0.6%)
Orbital Transformation      ....       0.000 sec  (  0.0%)
Orbital Orthonormalization  ....       0.000 sec  (  0.0%)
DIIS solution               ....       0.010 sec  (  0.0%)
SOSCF solution              ....       0.029 sec  (  0.0%)
Grid generation             ....       1.746 sec  (  2.5%)


-------------------------------------------------------------------------------
                          DFT DISPERSION CORRECTION                            
                                                                               
                              DFTD3 V3.1  Rev 1                                
                          USING Becke-Johnson damping                          
-------------------------------------------------------------------------------
Gaussians B3LYP functional is recognized, using regular B3LYP params
Active option DFTDOPT                   ...         4   

molecular C6(AA) [au] = 4829.242169 


            DFT-D V3
 parameters
 s6 scaling factor         :     1.0000 
 a1 scaling factor         :     0.3981 
 s8 scaling factor         :     1.9889 
 a2 scaling factor         :     4.4211 
 ad hoc parameters k1-k3   :    16.0000     1.3333    -4.0000 

 Edisp/kcal,au: -23.279863288945  -0.037098819648 
 E6   /kcal   : -10.460782197 
 E8   /kcal   : -12.819081092 
 % E8         :  55.065104693 

-------------------------   ----------------
Dispersion correction           -0.037098820
-------------------------   ----------------


-------------------------   --------------------
FINAL SINGLE POINT ENERGY      -815.737081026773
-------------------------   --------------------

------------------------------------------------------------------------------
                         ORCA SCF GRADIENT CALCULATION
------------------------------------------------------------------------------

Gradient of the Kohn-Sham DFT energy:
Kohn-Sham wavefunction type      ... RKS
Hartree-Fock exchange scaling    ...    0.200
Number of operators              ...    1
Number of atoms                  ...   17
Basis set dimensions             ...  188
Integral neglect threshold       ... 2.5e-11
Integral primitive cutoff        ... 2.5e-12

Nuclear repulsion gradient       ... done
One Electron Gradient            ... done
Pre-screening matrix             ... done
RI-J gradient                    ... done
COSX-gradient                    ... done
Exchange-correlation gradient    ... done
Dispersion correction            ... done

------------------
CARTESIAN GRADIENT
------------------

   1   C   :    0.003492648   -0.004705381    0.000487001
   2   C   :   -0.009734174    0.001804280   -0.000740689
   3   N   :    0.000481724   -0.029184686   -0.001754817
   4   S   :   -0.009150533    0.000557747   -0.001197541
   5   N   :    0.003008459    0.029026359    0.001091882
   6   C   :   -0.008713670   -0.003923251   -0.000698221
   7   C   :    0.003970197    0.003694809    0.000288440
   8   C   :   -0.001373643    0.006116586   -0.000175829
   9   C   :    0.000781393   -0.006143888   -0.000605196
  10   C   :   -0.002394695   -0.002880135    0.000006081
  11   C   :    0.001572589    0.003011953   -0.000133304
  12   H   :   -0.000191045   -0.009314033   -0.000591810
  13   H   :    0.007723795    0.004516306    0.000720552
  14   H   :    0.007508163   -0.004616961    0.000221700
  15   H   :   -0.006596093    0.004438101   -0.000337407
  16   H   :    0.010473545   -0.004850746    0.000775223
  17   H   :   -0.002427336    0.011887683    0.000447648

Difference to translation invariance:
           :   -0.0015686759   -0.0005652577   -0.0021962865

Norm of the cartesian gradient     ...    0.0523583523
RMS gradient                       ...    0.0073316358
MAX gradient                       ...    0.0291846859

-------
TIMINGS
-------

Total SCF gradient time            ...       12.991 sec

One electron gradient       ....       0.125 sec  (  1.0%)
Prescreening matrices       ....       0.109 sec  (  0.8%)
RI-J Coulomb gradient       ....       1.456 sec  ( 11.2%)
COSX gradient               ....       6.620 sec  ( 51.0%)
XC gradient                 ....       4.315 sec  ( 33.2%)
------------------------------------------------------------------------------
                         ORCA GEOMETRY RELAXATION STEP
------------------------------------------------------------------------------

Reading the OPT-File                    .... done
Getting information on internals        .... done
Copying old internal coords+grads       .... done
Making the new internal coordinates     .... (new redundants).... done
Validating the new internal coordinates .... (new redundants).... done
Calculating the B-matrix                .... done
Calculating the G,G- and P matrices     .... done
Transforming gradient to internals      .... done
Projecting the internal gradient        .... done
Number of atoms                         ....  17
Number of internal coordinates          ....  83
Current Energy                          ....  -815.737081027 Eh
Current gradient norm                   ....     0.052358352 Eh/bohr
Maximum allowed component of the step   ....  0.300
Current trust radius                    ....  0.300
Evaluating the initial hessian          ....  (Almloef) done
Projecting the Hessian                  .... done
Forming the augmented Hessian           .... done
Diagonalizing the augmented Hessian     .... done
Last element of RFO vector              ....  0.992495122
Lowest eigenvalues of augmented Hessian:
 -0.006442988  0.016700370  0.019073923  0.022655163  0.023060881
Length of the computed step             ....  0.123208897
The final length of the internal step   ....  0.123208897
Converting the step to cartesian space:
 Initial RMS(Int)=    0.0135239334
Transforming coordinates:
 Iter   0:  RMS(Cart)=    0.0295715857 RMS(Int)=    2.1782414693
 Iter   1:  RMS(Cart)=    0.0002133060 RMS(Int)=    0.0001245119
 Iter   2:  RMS(Cart)=    0.0000034651 RMS(Int)=    0.0000024652
 Iter   3:  RMS(Cart)=    0.0000000711 RMS(Int)=    0.0000000368
done
Storing new coordinates                 .... done

                                .--------------------.
          ----------------------|Geometry convergence|-------------------------
          Item                value                   Tolerance       Converged
          ---------------------------------------------------------------------
          RMS gradient        0.0063872420            0.0001000000      NO
          MAX gradient        0.0176748863            0.0003000000      NO
          RMS step            0.0135239334            0.0020000000      NO
          MAX step            0.0319078123            0.0040000000      NO
          ........................................................
          Max(Bonds)      0.0169      Max(Angles)    1.62
          Max(Dihed)        0.99      Max(Improp)    0.00
          ---------------------------------------------------------------------

The optimization has not yet converged - more geometry cycles are needed


    ---------------------------------------------------------------------------
                         Redundant Internal Coordinates
                            (Angstroem and degrees)

        Definition                    Value    dE/dq     Step     New-Value
    ----------------------------------------------------------------------------
     1. B(C   1,C   0)                1.4039 -0.014879  0.0131    1.4170   
     2. B(N   2,C   1)                1.3348 -0.007337  0.0054    1.3403   
     3. B(S   3,N   2)                1.6059 -0.016772  0.0133    1.6192   
     4. B(N   4,S   3)                1.6071 -0.016473  0.0131    1.6202   
     5. B(C   5,N   4)                1.3331 -0.006088  0.0044    1.3375   
     6. B(C   5,C   1)                1.4393 -0.017675  0.0169    1.4562   
     7. B(C   6,C   5)                1.4191 -0.015072  0.0139    1.4330   
     8. B(C   7,C   6)                1.3793 -0.008273  0.0067    1.3860   
     9. B(C   8,C   7)                1.4056 -0.016099  0.0144    1.4200   
    10. B(C   8,C   0)                1.3687 -0.010231  0.0081    1.3767   
    11. B(C   9,C   6)                1.4534 -0.011825  0.0125    1.4659   
    12. B(C  10,C   9)                1.3293 -0.014080  0.0095    1.3387   
    13. B(H  11,C   0)                1.0778 -0.009290  0.0128    1.0906   
    14. B(H  12,C   7)                1.0790 -0.009070  0.0126    1.0916   
    15. B(H  13,C   8)                1.0802 -0.008885  0.0124    1.0926   
    16. B(H  14,C   9)                1.0825 -0.007732  0.0109    1.0934   
    17. B(H  15,C  10)                1.0775 -0.011588  0.0160    1.0935   
    18. B(H  16,C  10)                1.0762 -0.012132  0.0167    1.0929   
    19. A(C   8,C   0,H  11)          122.49  0.000282   -0.04    122.45   
    20. A(C   1,C   0,C   8)          117.60 -0.000197    0.02    117.63   
    21. A(C   1,C   0,H  11)          119.91 -0.000084    0.02    119.92   
    22. A(C   0,C   1,C   5)          120.36  0.001755   -0.21    120.15   
    23. A(C   0,C   1,N   2)          127.59  0.004106   -0.45    127.14   
    24. A(N   2,C   1,C   5)          112.05 -0.005861    0.66    112.71   
    25. A(C   1,N   2,S   3)          108.61  0.012564   -1.50    107.11   
    26. A(N   2,S   3,N   4)           98.70 -0.012766    1.62    100.32   
    27. A(S   3,N   4,C   5)          108.73  0.012080   -1.46    107.27   
    28. A(C   1,C   5,N   4)          111.91 -0.006018    0.68    112.59   
    29. A(N   4,C   5,C   6)          127.11  0.006396   -0.74    126.37   
    30. A(C   1,C   5,C   6)          120.98 -0.000379    0.06    121.04   
    31. A(C   7,C   6,C   9)          125.25  0.000605   -0.06    125.19   
    32. A(C   5,C   6,C   9)          118.57 -0.001155    0.18    118.75   
    33. A(C   5,C   6,C   7)          116.18  0.000550   -0.12    116.06   
    34. A(C   6,C   7,C   8)          122.68 -0.001174    0.16    122.84   
    35. A(C   8,C   7,H  12)          118.01 -0.000008    0.02    118.03   
    36. A(C   6,C   7,H  12)          119.31  0.001182   -0.17    119.13   
    37. A(C   0,C   8,C   7)          122.19 -0.000554    0.09    122.28   
    38. A(C   7,C   8,H  13)          118.35  0.000097   -0.02    118.33   
    39. A(C   0,C   8,H  13)          119.46  0.000457   -0.07    119.39   
    40. A(C  10,C   9,H  14)          119.95  0.002848   -0.42    119.53   
    41. A(C   6,C   9,H  14)          113.66 -0.000484    0.10    113.75   
    42. A(C   6,C   9,C  10)          126.39 -0.002364    0.32    126.71   
    43. A(H  15,C  10,H  16)          115.97 -0.001306    0.23    116.20   
    44. A(C   9,C  10,H  16)          121.12  0.000669   -0.12    121.00   
    45. A(C   9,C  10,H  15)          122.91  0.000637   -0.11    122.80   
    46. D(C   5,C   1,C   0,C   8)     -0.07 -0.000335    0.58      0.50   
    47. D(C   5,C   1,C   0,H  11)    179.86 -0.000058    0.10    179.97   
    48. D(N   2,C   1,C   0,H  11)     -0.10 -0.000087    0.18      0.08   
    49. D(N   2,C   1,C   0,C   8)    179.96 -0.000364    0.65    180.61   
    50. D(S   3,N   2,C   1,C   0)   -179.99  0.000205   -0.40   -180.39   
    51. D(S   3,N   2,C   1,C   5)      0.04  0.000175   -0.33     -0.29   
    52. D(N   4,S   3,N   2,C   1)     -0.04 -0.000153    0.28      0.24   
    53. D(C   5,N   4,S   3,N   2)      0.03  0.000084   -0.15     -0.11   
    54. D(C   6,C   5,C   1,N   2)   -179.98  0.000024   -0.03   -180.01   
    55. D(C   6,C   5,N   4,S   3)    179.95 -0.000150    0.26    180.21   
    56. D(N   4,C   5,C   1,N   2)     -0.02 -0.000116    0.24      0.22   
    57. D(C   1,C   5,N   4,S   3)     -0.01  0.000004   -0.03     -0.04   
    58. D(C   6,C   5,C   1,C   0)      0.05 -0.000005    0.03      0.08   
    59. D(N   4,C   5,C   1,C   0)   -179.99 -0.000144    0.30   -179.68   
    60. D(C   9,C   6,C   5,N   4)      0.25  0.000528   -0.99     -0.75   
    61. D(C   9,C   6,C   5,C   1)   -179.80  0.000361   -0.67   -180.47   
    62. D(C   7,C   6,C   5,N   4)   -179.96  0.000520   -0.96   -180.92   
    63. D(C   7,C   6,C   5,C   1)     -0.00  0.000352   -0.64     -0.65   
    64. D(H  12,C   7,C   6,C   9)     -0.11 -0.000175    0.29      0.19   
    65. D(H  12,C   7,C   6,C   5)   -179.89 -0.000162    0.26   -179.62   
    66. D(C   8,C   7,C   6,C   9)    179.76 -0.000386    0.71    180.47   
    67. D(C   8,C   7,C   6,C   5)     -0.02 -0.000373    0.68      0.66   
    68. D(H  13,C   8,C   7,H  12)     -0.06 -0.000066    0.13      0.07   
    69. D(H  13,C   8,C   7,C   6)   -179.92  0.000141   -0.28   -180.20   
    70. D(C   0,C   8,C   7,H  12)    179.86 -0.000170    0.34    180.20   
    71. D(C   0,C   8,C   7,C   6)     -0.01  0.000037   -0.07     -0.08   
    72. D(H  13,C   8,C   0,H  11)      0.04 -0.000065    0.13      0.16   
    73. D(H  13,C   8,C   0,C   1)    179.97  0.000219   -0.36    179.61   
    74. D(C   7,C   8,C   0,H  11)   -179.88  0.000040   -0.08   -179.96   
    75. D(C   7,C   8,C   0,C   1)      0.05  0.000324   -0.57     -0.51   
    76. D(C  10,C   9,C   6,C   5)   -178.24  0.000283   -0.73   -178.97   
    77. D(H  14,C   9,C   6,C   7)   -178.10  0.000355   -0.85   -178.95   
    78. D(H  14,C   9,C   6,C   5)      1.67  0.000345   -0.82      0.85   
    79. D(C  10,C   9,C   6,C   7)      1.98  0.000293   -0.76      1.22   
    80. D(H  16,C  10,C   9,H  14)      0.22  0.000124   -0.13      0.09   
    81. D(H  16,C  10,C   9,C   6)   -179.87  0.000187   -0.23   -180.10   
    82. D(H  15,C  10,C   9,H  14)   -179.63  0.000046   -0.04   -179.67   
    83. D(H  15,C  10,C   9,C   6)      0.28  0.000109   -0.14      0.14   
    ----------------------------------------------------------------------------

         *************************************************************
         *                GEOMETRY OPTIMIZATION CYCLE   2            *
         *************************************************************
---------------------------------
CARTESIAN COORDINATES (ANGSTROEM)
---------------------------------
  C     -1.351295    1.497592    0.033165
  C     -0.144416    0.756944    0.085201
  N      1.098823    1.242921    0.205657
  S      2.106105   -0.024635    0.224961
  N      1.045457   -1.240565    0.077671
  C     -0.174578   -0.696867    0.007524
  C     -1.413813   -1.404280   -0.123777
  C     -2.559340   -0.624787   -0.156762
  C     -2.528458    0.792807   -0.080885
  C     -1.385016   -2.867469   -0.208031
  C     -2.437949   -3.681694   -0.351561
  H     -1.324496    2.586302    0.092241
  H     -3.531510   -1.112459   -0.249342
  H     -3.476500    1.334737   -0.117024
  H     -0.379598   -3.292530   -0.145472
  H     -3.465270   -3.314256   -0.424939
  H     -2.308117   -4.765503   -0.405786

----------------------------
CARTESIAN COORDINATES (A.U.)
----------------------------
  NO LB      ZA    FRAG     MASS         X           Y           Z
   0 C     6.0000    0    12.011   -2.553578    2.830040    0.062674
[...]
 134   0.0000       1.707536        46.4644 
 135   0.0000       1.720975        46.8301 
 136   0.0000       1.762492        47.9598 
 137   0.0000       1.766912        48.0801 
 138   0.0000       1.801834        49.0304 
 139   0.0000       1.811476        49.2928 
 140   0.0000       1.842105        50.1262 
 141   0.0000       1.853594        50.4388 
 142   0.0000       1.855132        50.4807 
 143   0.0000       1.901091        51.7313 
 144   0.0000       1.925644        52.3994 
 145   0.0000       1.969069        53.5811 
 146   0.0000       1.980020        53.8791 
 147   0.0000       2.000675        54.4411 
 148   0.0000       2.051256        55.8175 
 149   0.0000       2.056817        55.9688 
 150   0.0000       2.084979        56.7352 
 151   0.0000       2.105433        57.2918 
 152   0.0000       2.105908        57.3047 
 153   0.0000       2.136434        58.1353 
 154   0.0000       2.161109        58.8068 
 155   0.0000       2.207566        60.0709 
 156   0.0000       2.231178        60.7134 
 157   0.0000       2.248584        61.1871 
 158   0.0000       2.263579        61.5951 
 159   0.0000       2.294854        62.4462 
 160   0.0000       2.324545        63.2541 
 161   0.0000       2.335262        63.5457 
 162   0.0000       2.358030        64.1653 
 163   0.0000       2.404321        65.4249 
 164   0.0000       2.418950        65.8230 
 165   0.0000       2.503121        68.1134 
 166   0.0000       2.513051        68.3836 
 167   0.0000       2.551419        69.4276 
 168   0.0000       2.566080        69.8266 
 169   0.0000       2.596082        70.6430 
 170   0.0000       2.616277        71.1925 
 171   0.0000       2.632133        71.6240 
 172   0.0000       2.663711        72.4833 
 173   0.0000       2.671494        72.6950 
 174   0.0000       2.733786        74.3901 
 175   0.0000       2.738120        74.5080 
 176   0.0000       2.748447        74.7890 
 177   0.0000       2.780959        75.6737 
 178   0.0000       2.871274        78.1313 
 179   0.0000       2.896376        78.8144 
 180   0.0000       2.916175        79.3531 
 181   0.0000       2.964424        80.6661 
 182   0.0000       3.023371        82.2701 
 183   0.0000       3.132842        85.2490 
 184   0.0000       3.159735        85.9808 
 185   0.0000       3.226389        87.7945 
 186   0.0000       3.386979        92.1644 
 187   0.0000       3.582187        97.4763 

                    ********************************
                    * MULLIKEN POPULATION ANALYSIS *
                    ********************************

-----------------------
MULLIKEN ATOMIC CHARGES
-----------------------
   0 C :   -0.021536
   1 C :    0.070354
   2 N :   -0.281870
   3 S :    0.469473
   4 N :   -0.291975
   5 C :   -0.003989
   6 C :    0.084448
   7 C :   -0.048938
   8 C :    0.044211
   9 C :   -0.006000
  10 C :   -0.017433
  11 H :   -0.014553
  12 H :   -0.025524
  13 H :   -0.008304
  14 H :    0.004650
  15 H :    0.015046
  16 H :    0.031940
Sum of atomic charges:   -0.0000000

--------------------------------
MULLIKEN REDUCED ORBITAL CHARGES
--------------------------------
  0 C s       :     3.307411  s :     3.307411
      pz      :     0.991687  p :     2.680470
      px      :     0.937547
      py      :     0.751237
      dz2     :     0.002663  d :     0.033655
      dxz     :     0.005986
      dyz     :     0.002715
      dx2y2   :     0.011344
      dxy     :     0.010948
  1 C s       :     3.022581  s :     3.022581
      pz      :     0.982341  p :     2.847223
      px      :     0.840766
      py      :     1.024117
      dz2     :     0.004370  d :     0.059841
      dxz     :     0.011658
      dyz     :     0.005370
      dx2y2   :     0.021053
      dxy     :     0.017390
  2 N s       :     3.611304  s :     3.611304
      pz      :     1.207122  p :     3.640678
      px      :     1.048349
      py      :     1.385206
      dz2     :     0.003475  d :     0.029888
      dxz     :     0.004797
      dyz     :     0.004645
      dx2y2   :     0.005741
      dxy     :     0.011230
  3 S s       :     5.840965  s :     5.840965
      pz      :     3.529990  p :     9.492858
      px      :     3.198890
      py      :     2.763977
      dz2     :     0.019862  d :     0.196704
      dxz     :     0.016041
      dyz     :     0.038817
      dx2y2   :     0.049774
      dxy     :     0.072209
  4 N s       :     3.617698  s :     3.617698
      pz      :     1.206194  p :     3.644401
      px      :     1.044041
      py      :     1.394166
      dz2     :     0.003407  d :     0.029876
      dxz     :     0.004816
      dyz     :     0.004709
      dx2y2   :     0.005280
      dxy     :     0.011664
  5 C s       :     3.077996  s :     3.077996
      pz      :     0.985401  p :     2.867095
      px      :     0.887091
      py      :     0.994603
      dz2     :     0.004366  d :     0.058898
      dxz     :     0.011156
      dyz     :     0.005465
      dx2y2   :     0.020880
      dxy     :     0.017031
  6 C s       :     3.099844  s :     3.099844
      pz      :     0.981868  p :     2.774364
      px      :     0.958809
      py      :     0.833687
      dz2     :     0.003181  d :     0.041344
      dxz     :     0.005794
      dyz     :     0.006566
      dx2y2   :     0.012163
      dxy     :     0.013639
  7 C s       :     3.250533  s :     3.250533
      pz      :     0.980048  p :     2.764381
      px      :     0.888561
      py      :     0.895772
      dz2     :     0.002572  d :     0.034024
      dxz     :     0.003379
      dyz     :     0.005387
      dx2y2   :     0.010977
      dxy     :     0.011709
  8 C s       :     3.152328  s :     3.152328
      pz      :     0.977531  p :     2.768160
      px      :     0.871399
      py      :     0.919230
      dz2     :     0.002617  d :     0.035301
      dxz     :     0.003801
      dyz     :     0.005558
      dx2y2   :     0.011292
      dxy     :     0.012033
  9 C s       :     3.189961  s :     3.189961
      pz      :     0.969817  p :     2.781212
      px      :     0.871514
      py      :     0.939880
      dz2     :     0.002536  d :     0.034827
      dxz     :     0.003500
      dyz     :     0.005456
      dx2y2   :     0.013152
      dxy     :     0.010183
 10 C s       :     3.108838  s :     3.108838
      pz      :     0.989610  p :     2.882049
      px      :     0.948023
      py      :     0.944417
      dz2     :     0.001752  d :     0.026546
      dxz     :     0.003240
      dyz     :     0.002110
      dx2y2   :     0.011541
      dxy     :     0.007902
 11 H s       :     0.991628  s :     0.991628
      pz      :     0.004731  p :     0.022924
      px      :     0.003217
      py      :     0.014977
 12 H s       :     1.002608  s :     1.002608
      pz      :     0.004725  p :     0.022916
      px      :     0.012504
      py      :     0.005686
 13 H s       :     0.985525  s :     0.985525
      pz      :     0.004503  p :     0.022779
      px      :     0.012049
      py      :     0.006227
 14 H s       :     0.971967  s :     0.971967
      pz      :     0.004288  p :     0.023383
      px      :     0.013917
      py      :     0.005178
 15 H s       :     0.961430  s :     0.961430
      pz      :     0.004655  p :     0.023525
      px      :     0.013554
      py      :     0.005316
 16 H s       :     0.944492  s :     0.944492
      pz      :     0.004892  p :     0.023568
      px      :     0.004190
      py      :     0.014487


                     *******************************
                     * LOEWDIN POPULATION ANALYSIS *
                     *******************************

----------------------
LOEWDIN ATOMIC CHARGES
----------------------
   0 C :   -0.025464
   1 C :   -0.051155
   2 N :   -0.282173
   3 S :    0.608738
   4 N :   -0.282659
   5 C :   -0.044363
   6 C :   -0.028191
   7 C :   -0.010661
   8 C :   -0.013994
   9 C :   -0.017740
  10 C :   -0.034479
  11 H :    0.037098
  12 H :    0.028561
  13 H :    0.032283
  14 H :    0.034687
  15 H :    0.019903
  16 H :    0.029609

-------------------------------
LOEWDIN REDUCED ORBITAL CHARGES
-------------------------------
  0 C s       :     2.865922  s :     2.865922
      pz      :     0.979406  p :     3.071078
      px      :     1.049858
      py      :     1.041813
      dz2     :     0.006512  d :     0.088465
      dxz     :     0.012986
      dyz     :     0.004601
      dx2y2   :     0.032405
      dxy     :     0.031961
  1 C s       :     2.860200  s :     2.860200
      pz      :     0.968612  p :     3.041707
      px      :     1.022831
      py      :     1.050264
      dz2     :     0.010410  d :     0.149248
      dxz     :     0.022817
      dyz     :     0.011218
      dx2y2   :     0.058703
      dxy     :     0.046100
  2 N s       :     3.362660  s :     3.362660
      pz      :     1.212805  p :     3.862744
      px      :     1.180581
      py      :     1.469358
      dz2     :     0.006505  d :     0.056769
      dxz     :     0.009336
      dyz     :     0.005420
      dx2y2   :     0.010934
      dxy     :     0.024575
  3 S s       :     5.566631  s :     5.566631
      pz      :     3.495081  p :     9.576634
      px      :     3.271078
      py      :     2.810475
      dz2     :     0.029710  d :     0.247997
      dxz     :     0.015461
      dyz     :     0.046164
      dx2y2   :     0.061300
      dxy     :     0.095362
  4 N s       :     3.357120  s :     3.357120
      pz      :     1.212870  p :     3.868497
      px      :     1.172985
      py      :     1.482641
      dz2     :     0.006459  d :     0.057042
      dxz     :     0.009507
      dyz     :     0.005471
      dx2y2   :     0.010081
      dxy     :     0.025525
  5 C s       :     2.861138  s :     2.861138
      pz      :     0.971399  p :     3.036140
      px      :     1.021455
      py      :     1.043285
      dz2     :     0.010394  d :     0.147085
      dxz     :     0.021742
      dyz     :     0.011197
      dx2y2   :     0.057681
      dxy     :     0.046072
  6 C s       :     2.852161  s :     2.852161
      pz      :     0.966826  p :     3.067715
      px      :     1.055530
      py      :     1.045359
      dz2     :     0.007765  d :     0.108315
      dxz     :     0.012417
      dyz     :     0.012743
      dx2y2   :     0.035581
      dxy     :     0.039809
  7 C s       :     2.861576  s :     2.861576
      pz      :     0.969264  p :     3.060795
      px      :     1.047698
      py      :     1.043833
      dz2     :     0.006129  d :     0.088290
      dxz     :     0.006432
      dyz     :     0.011257
      dx2y2   :     0.031641
      dxy     :     0.032830
  8 C s       :     2.862604  s :     2.862604
      pz      :     0.958496  p :     3.060583
      px      :     1.052326
      py      :     1.049761
      dz2     :     0.006267  d :     0.090807
      dxz     :     0.007308
      dyz     :     0.011800
      dx2y2   :     0.032069
      dxy     :     0.033363
  9 C s       :     2.866649  s :     2.866649
      pz      :     0.952421  p :     3.060785
      px      :     1.076739
      py      :     1.031625
      dz2     :     0.006172  d :     0.090305
      dxz     :     0.006836
      dyz     :     0.011561
      dx2y2   :     0.036534
      dxy     :     0.029202
 10 C s       :     2.885182  s :     2.885182
      pz      :     0.968203  p :     3.080752
      px      :     1.061437
      py      :     1.051112
      dz2     :     0.004740  d :     0.068545
      dxz     :     0.006225
      dyz     :     0.003990
      dx2y2   :     0.031549
      dxy     :     0.022040
 11 H s       :     0.894041  s :     0.894041
      pz      :     0.014693  p :     0.068861
      px      :     0.010551
      py      :     0.043617
 12 H s       :     0.903528  s :     0.903528
      pz      :     0.014486  p :     0.067911
      px      :     0.035621
      py      :     0.017804
 13 H s       :     0.901147  s :     0.901147
      pz      :     0.013813  p :     0.066570
      px      :     0.034153
      py      :     0.018604
 14 H s       :     0.896799  s :     0.896799
      pz      :     0.013266  p :     0.068514
      px      :     0.039541
      py      :     0.015707
 15 H s       :     0.912264  s :     0.912264
      pz      :     0.014393  p :     0.067833
      px      :     0.038197
      py      :     0.015244
 16 H s       :     0.902503  s :     0.902503
      pz      :     0.015083  p :     0.067888
      px      :     0.011509
      py      :     0.041296


                      *****************************
                      * MAYER POPULATION ANALYSIS *
                      *****************************

  NA   - Mulliken gross atomic population
  ZA   - Total nuclear charge
  QA   - Mulliken gross atomic charge
  VA   - Mayer's total valence
  BVA  - Mayer's bonded valence
  FA   - Mayer's free valence

  ATOM       NA         ZA         QA         VA         BVA        FA
  0 C      6.0215     6.0000    -0.0215     3.8156     3.8156    -0.0000
  1 C      5.9296     6.0000     0.0704     3.9634     3.9634     0.0000
  2 N      7.2819     7.0000    -0.2819     2.9764     2.9764     0.0000
  3 S     15.5305    16.0000     0.4695     2.7459     2.7459     0.0000
  4 N      7.2920     7.0000    -0.2920     3.0021     3.0021    -0.0000
  5 C      6.0040     6.0000    -0.0040     3.9757     3.9757    -0.0000
  6 C      5.9156     6.0000     0.0844     3.8585     3.8585     0.0000
  7 C      6.0489     6.0000    -0.0489     3.8124     3.8124    -0.0000
  8 C      5.9558     6.0000     0.0442     3.7588     3.7588     0.0000
  9 C      6.0060     6.0000    -0.0060     3.9885     3.9885    -0.0000
 10 C      6.0174     6.0000    -0.0174     3.9008     3.9008     0.0000
 11 H      1.0146     1.0000    -0.0146     0.9933     0.9933    -0.0000
 12 H      1.0255     1.0000    -0.0255     0.9876     0.9876    -0.0000
 13 H      1.0083     1.0000    -0.0083     0.9794     0.9794     0.0000
 14 H      0.9954     1.0000     0.0046     1.0042     1.0042    -0.0000
 15 H      0.9850     1.0000     0.0150     0.9800     0.9800    -0.0000
 16 H      0.9681     1.0000     0.0319     0.9756     0.9756     0.0000

  Mayer bond orders larger than 0.100000
B(  0-C ,  1-C ) :   1.2041 B(  0-C ,  6-C ) :   0.1036 B(  0-C ,  8-C ) :   1.4758 
B(  0-C , 11-H ) :   1.0113 B(  1-C ,  2-N ) :   1.4964 B(  1-C ,  5-C ) :   1.1344 
B(  2-N ,  3-S ) :   1.2453 B(  2-N ,  4-N ) :   0.1628 B(  3-S ,  4-N ) :   1.2338 
B(  4-N ,  5-C ) :   1.5355 B(  5-C ,  6-C ) :   1.1700 B(  6-C ,  7-C ) :   1.4857 
B(  6-C ,  9-C ) :   1.1064 B(  7-C ,  8-C ) :   1.2113 B(  7-C , 12-H ) :   0.9852 
B(  8-C , 13-H ) :   0.9800 B(  9-C , 10-C ) :   1.9068 B(  9-C , 14-H ) :   0.9602 
B( 10-C , 15-H ) :   0.9444 B( 10-C , 16-H ) :   0.9468 

-------
TIMINGS
-------

Total SCF time: 0 days 0 hours 0 min 41 sec 

Total time                  ....      41.941 sec
Sum of individual times     ....      41.813 sec  ( 99.7%)

Fock matrix formation       ....      40.070 sec  ( 95.5%)
  Split-RI-J                ....       3.846 sec  (  9.6% of F)
  Chain of spheres X        ....      32.870 sec  ( 82.0% of F)
  COS-X 1 center corr.      ....       0.000 sec  (  0.0% of F)
  XC integration            ....       3.283 sec  (  8.2% of F)
    Basis function eval.    ....       1.305 sec  ( 39.8% of XC)
    Density eval.           ....       0.686 sec  ( 20.9% of XC)
    XC-Functional eval.     ....       0.245 sec  (  7.5% of XC)
    XC-Potential eval.      ....       0.929 sec  ( 28.3% of XC)
Diagonalization             ....       0.005 sec  (  0.0%)
Density matrix formation    ....       0.006 sec  (  0.0%)
Population analysis         ....       0.004 sec  (  0.0%)
Initial guess               ....       0.004 sec  (  0.0%)
Orbital Transformation      ....       0.000 sec  (  0.0%)
Orbital Orthonormalization  ....       0.003 sec  (  0.0%)
DIIS solution               ....       0.001 sec  (  0.0%)
SOSCF solution              ....       0.024 sec  (  0.1%)
Grid generation             ....       1.699 sec  (  4.1%)


-------------------------------------------------------------------------------
                          DFT DISPERSION CORRECTION                            
                                                                               
                              DFTD3 V3.1  Rev 1                                
                          USING Becke-Johnson damping                          
-------------------------------------------------------------------------------
Gaussians B3LYP functional is recognized, using regular B3LYP params
Active option DFTDOPT                   ...         4   

molecular C6(AA) [au] = 4848.798656 


            DFT-D V3
 parameters
 s6 scaling factor         :     1.0000 
 a1 scaling factor         :     0.3981 
 s8 scaling factor         :     1.9889 
 a2 scaling factor         :     4.4211 
 ad hoc parameters k1-k3   :    16.0000     1.3333    -4.0000 

 Edisp/kcal,au: -23.133654848896  -0.036865821693 
 E6   /kcal   : -10.391913217 
 E8   /kcal   : -12.741741632 
 % E8         :  55.078809272 

-------------------------   ----------------
Dispersion correction           -0.036865822
-------------------------   ----------------


-------------------------   --------------------
FINAL SINGLE POINT ENERGY      -815.741263586470
-------------------------   --------------------

                                *** OPTIMIZATION RUN DONE ***

                            ***************************************
                            *     ORCA property calculations      *
                            ***************************************

                                    ---------------------
                                    Active property flags
                                    ---------------------
   (+) Dipole Moment


------------------------------------------------------------------------------
                       ORCA ELECTRIC PROPERTIES CALCULATION
------------------------------------------------------------------------------

Dipole Moment Calculation                       ... on
Quadrupole Moment Calculation                   ... off
Polarizability Calculation                      ... off
GBWName                                         ... 162.gbw
Electron density file                           ... 162.scfp
The origin for moment calculation is the CENTER OF MASS  = (-0.708333, -0.980085  0.016793)

-------------
DIPOLE MOMENT
-------------
                                X             Y             Z
Electronic contribution:     10.94321       5.07019       1.20027
Nuclear contribution   :    -11.54062      -5.13154      -1.26093
                        -----------------------------------------
Total Dipole Moment    :     -0.59741      -0.06136      -0.06065
                        -----------------------------------------
Magnitude (a.u.)       :      0.60361
Magnitude (Debye)      :      1.53426



--------------------
Rotational spectrum 
--------------------
 
Rotational constants in cm-1:     0.056805     0.028251     0.018869 
Rotational constants in MHz :  1702.965303   846.939163   565.684953 

 Dipole components along the rotational axes: 
x,y,z [a.u.] :    -0.528457    -0.291605    -0.006771 
x,y,z [Debye]:    -1.343230    -0.741202    -0.017212 

 

Timings for individual modules:

Sum of individual times         ...      498.120 sec (=   8.302 min)
GTO integral calculation        ...        1.499 sec (=   0.025 min)   0.3 %
SCF iterations                  ...      406.815 sec (=   6.780 min)  81.7 %
SCF Gradient evaluation         ...       89.334 sec (=   1.489 min)  17.9 %
Geometry relaxation             ...        0.473 sec (=   0.008 min)   0.1 %
                             ****ORCA TERMINATED NORMALLY****
TOTAL RUN TIME: 0 days 0 hours 8 minutes 18 seconds 929 msec
