
                                 *****************
                                 * O   R   C   A *
                                 *****************

           --- An Ab Initio, DFT and Semiempirical electronic structure package ---

                  #######################################################
                  #                        -***-                        #
                  #          Department of theory and spectroscopy      #
                  #               Directorship: Frank Neese             #
                  #        Max Planck Institute fuer Kohlenforschung    #
                  #                Kaiser Wilhelm Platz 1               #
                  #                 D-45470 Muelheim/Ruhr               #
                  #                      Germany                        #
                  #                                                     #
                  #                  All rights reserved                #
                  #                        -***-                        #
                  #######################################################


                         Program Version 4.2.0 -  RELEASE  -


 With contributions from (in alphabetic order):
   Daniel Aravena         : Magnetic Suceptibility
   Michael Atanasov       : Ab Initio Ligand Field Theory (pilot matlab implementation)
   Alexander A. Auer      : GIAO ZORA, VPT2
   Ute Becker             : Parallelization
   Giovanni Bistoni       : ED, misc. LED, open-shell LED, HFLED
   Martin Brehm           : Molecular dynamics
   Dmytro Bykov           : SCF Hessian
   Vijay G. Chilkuri      : MRCI spin determinant printing, contributions to CSF-ICE
   Dipayan Datta          : RHF DLPNO-CCSD density
   Achintya Kumar Dutta   : EOM-CC, STEOM-CC
   Dmitry Ganyushin       : Spin-Orbit,Spin-Spin,Magnetic field MRCI
   Miquel Garcia          : C-PCM Hessian, Gaussian charge scheme
   Yang Guo               : DLPNO-NEVPT2, CIM, IAO-localization
   Andreas Hansen         : Spin unrestricted coupled pair/coupled cluster methods
   Benjamin Helmich-Paris : CASSCF linear response (MC-RPA)
   Lee Huntington         : MR-EOM, pCC
   Robert Izsak           : Overlap fitted RIJCOSX, COSX-SCS-MP3, EOM
   Christian Kollmar      : KDIIS, OOCD, Brueckner-CCSD(T), CCSD density
   Simone Kossmann        : Meta GGA functionals, TD-DFT gradient, OOMP2, MP2 Hessian
   Martin Krupicka        : AUTO-CI
   Lucas Lang             : DCDCAS
   Dagmar Lenk            : GEPOL surface, SMD
   Dimitrios Liakos       : Extrapolation schemes; Compound Job, initial MDCI parallelization
   Dimitrios Manganas     : Further ROCIS development; embedding schemes
   Dimitrios Pantazis     : SARC Basis sets
   Taras Petrenko         : DFT Hessian,TD-DFT gradient, ASA, ECA, R-Raman, ABS, FL, XAS/XES, NRVS
   Peter Pinski           : DLPNO-MP2, DLPNO-MP2 Gradient
   Christoph Reimann      : Effective Core Potentials
   Marius Retegan         : Local ZFS, SOC
   Christoph Riplinger    : Optimizer, TS searches, QM/MM, DLPNO-CCSD(T), (RO)-DLPNO pert. Triples
   Tobias Risthaus        : Range-separated hybrids, TD-DFT gradient, RPA, STAB
   Michael Roemelt        : Original ROCIS implementation
   Masaaki Saitow         : Open-shell DLPNO-CCSD energy and density
   Barbara Sandhoefer     : DKH picture change effects
   Avijit Sen             : IP-ROCIS
   Kantharuban Sivalingam : CASSCF convergence, NEVPT2, FIC-MRCI
   Bernardo de Souza      : ESD, SOC TD-DFT
   Georgi Stoychev        : AutoAux, RI-MP2 NMR
   Willem Van den Heuvel  : Paramagnetic NMR
   Boris Wezisla          : Elementary symmetry handling
   Frank Wennmohs         : Technical directorship


 We gratefully acknowledge several colleagues who have allowed us to
 interface, adapt or use parts of their codes:
   Stefan Grimme, W. Hujo, H. Kruse,             : VdW corrections, initial TS optimization,
                  C. Bannwarth                     DFT functionals, gCP, sTDA/sTD-DF
   Ed Valeev, F. Pavosevic, A. Kumar             : LibInt (2-el integral package), F12 methods
   Garnet Chan, S. Sharma, J. Yang, R. Olivares  : DMRG
   Ulf Ekstrom                                   : XCFun DFT Library
   Mihaly Kallay                                 : mrcc  (arbitrary order and MRCC methods)
   Andreas Klamt, Michael Diedenhofen            : otool_cosmo (COSMO solvation model)
   Jiri Pittner, Ondrej Demel                    : Mk-CCSD
   Frank Weinhold                                : gennbo (NPA and NBO analysis)
   Christopher J. Cramer and Donald G. Truhlar   : smd solvation model
   Lars Goerigk                                  : TD-DFT with DH, B97 family of functionals
   V. Asgeirsson, H. Jonsson                     : NEB implementation
   FAccTs GmbH                                   : IRC, NEB, NEB-TS, Multilevel, MM, QM/MM, CI optimization
   S Lehtola, MJT Oliveira, MAL Marques          : LibXC Library


 Your calculation uses the libint2 library for the computation of 2-el integrals
 For citations please refer to: http://libint.valeyev.net

 Your ORCA version has been built with support for libXC version: 4.2.3
 For citations please refer to: https://tddft.org/programs/libxc/

 This ORCA versions uses:
   CBLAS   interface :  Fast vector & matrix operations
   LAPACKE interface :  Fast linear algebra routines
   SCALAPACK package :  Parallel linear algebra routines


Your calculation utilizes the atom-pairwise dispersion correction
with the Becke-Johnson damping scheme (D3BJ)
Cite in your paper:
S.Grimme, S.Ehrlich, L.Goerigk, J Comput Chem, (2011), 32, 1456–1465 
S.Grimme, J.Antony, S.Ehrlich and H.Krieg, J.Chem.Phys., 132, (2010), 154104 
   

----- Orbital basis set information -----
Your calculation utilizes the basis: def2-SVP
   F. Weigend and R. Ahlrichs, Phys. Chem. Chem. Phys. 7, 3297 (2005).

----- AuxJ basis set information -----
Your calculation utilizes the auxiliary basis: def2/J
   F. Weigend, Phys. Chem. Chem. Phys. 8, 1057 (2006).

================================================================================
                                        WARNINGS
                       Please study these warnings very carefully!
================================================================================


WARNING: Geometry Optimization
  ===> : Switching off AutoStart
         For restart on a previous wavefunction, please use MOREAD

INFO   : the flag for use of LIBINT has been found!

================================================================================
                                       INPUT FILE
================================================================================
NAME = 329.inp
|  1> # ORCA input file
|  2> # SCF done        -25.567687362059          0.000952958210
|  3> ! B3LYP/G D3BJ Opt RIJCOSX def2-SVP def2/J
|  4> * xyz 0 1
|  5>    C        1.32445        -1.12015         0.00730
|  6>    S        1.88644         0.49077         0.19796
|  7>    C        0.30287         1.10084         0.05612
|  8>    C       -0.63135         0.11049        -0.12857
|  9>    C       -0.03010        -1.19364        -0.15698
| 10>    O       -0.62664        -2.39552        -0.31648
| 11>    C       -2.02708        -2.44041        -0.47989
| 12>    C       -1.99296         0.43180        -0.26539
| 13>    N       -3.09145         0.74705        -0.37330
| 14>    H        2.00860        -1.94306         0.02653
| 15>    H        0.11497         2.15482         0.11360
| 16>    H       -2.27343        -3.49631        -0.57953
| 17>    H       -2.34568        -1.90658        -1.38014
| 18>    H       -2.54875        -2.02588         0.38827
| 19> *
| 20> 
| 21>                          ****END OF INPUT****
================================================================================

                       *****************************
                       * Geometry Optimization Run *
                       *****************************

Geometry optimization settings:
Update method            Update   .... BFGS
Choice of coordinates    CoordSys .... Z-matrix Internals
Initial Hessian          InHess   .... Almoef's Model

Convergence Tolerances:
Energy Change            TolE     ....  5.0000e-06 Eh
Max. Gradient            TolMAXG  ....  3.0000e-04 Eh/bohr
RMS Gradient             TolRMSG  ....  1.0000e-04 Eh/bohr
Max. Displacement        TolMAXD  ....  4.0000e-03 bohr
RMS Displacement         TolRMSD  ....  2.0000e-03 bohr
Strict Convergence                ....  False
------------------------------------------------------------------------------
                        ORCA OPTIMIZATION COORDINATE SETUP
------------------------------------------------------------------------------

The optimization will be done in new redundant internal coordinates
Making redundant internal coordinates   ...  (new redundants) done
Evaluating the initial hessian          ...  (Almloef) done
Evaluating the coordinates              ...  done
Calculating the B-matrix                .... done
Calculating the G-matrix                .... done
Diagonalizing the G-matrix              .... done
Small eigenvalue found = 1.772e-02
The first mode is                       ....   21
The number of degrees of freedom        ....   36

    -----------------------------------------------------------------
                    Redundant Internal Coordinates


    -----------------------------------------------------------------
         Definition                    Initial Value    Approx d2E/dq
    -----------------------------------------------------------------
      1. B(S   1,C   0)                  1.7168         0.507212   
      2. B(C   2,S   1)                  1.7029         0.533622   
      3. B(C   3,C   2)                  1.3739         0.662804   
      4. B(C   4,C   3)                  1.4363         0.527000   
      5. B(C   4,C   0)                  1.3665         0.681249   
      6. B(O   5,C   4)                  1.3512         0.645260   
      7. B(C   6,O   5)                  1.4107         0.518705   
      8. B(C   7,C   3)                  1.4057         0.589819   
      9. B(N   8,C   7)                  1.1479         1.361782   
     10. B(H   9,C   0)                  1.0703         0.387080   
     11. B(H  10,C   2)                  1.0721         0.384519   
     12. B(H  11,C   6)                  1.0888         0.361657   
     13. B(H  12,C   6)                  1.0940         0.354791   
     14. B(H  13,C   6)                  1.0944         0.354347   
     15. A(C   4,C   0,H   9)          126.4725         0.363042   
     16. A(S   1,C   0,C   4)          112.8501         0.449489   
     17. A(S   1,C   0,H   9)          120.6771         0.363338   
     18. A(C   0,S   1,C   2)           91.2893         0.454048   
     19. A(S   1,C   2,C   3)          112.6604         0.451396   
     20. A(S   1,C   2,H  10)          120.7094         0.366091   
     21. A(C   3,C   2,H  10)          126.6301         0.360935   
     22. A(C   2,C   3,C   4)          111.8697         0.426668   
     23. A(C   2,C   3,C   7)          120.4619         0.435385   
     24. A(C   4,C   3,C   7)          127.6684         0.417868   
     25. A(C   3,C   4,O   5)          128.6920         0.421862   
     26. A(C   0,C   4,O   5)          119.9777         0.441776   
     27. A(C   0,C   4,C   3)          111.3303         0.428772   
     28. A(C   4,O   5,C   6)          118.7025         0.417940   
     29. A(H  12,C   6,H  13)          109.2160         0.289430   
     30. A(H  11,C   6,H  13)          109.3945         0.290301   
     31. A(O   5,C   6,H  13)          111.6712         0.339465   
     32. A(H  11,C   6,H  12)          109.3901         0.290359   
     33. A(O   5,C   6,H  12)          111.6476         0.339536   
     34. A(O   5,C   6,H  11)          105.4308         0.340626   
     35. L(C   3,C   7,N   8,C   2, 2) 179.8390         0.493345   
     36. L(C   3,C   7,N   8,C   2, 1) 177.2720         0.493345   
     37. D(C   2,S   1,C   0,C   4)     -0.1244         0.005319   
     38. D(C   2,S   1,C   0,H   9)   -179.9445         0.005319   
     39. D(C   3,C   2,S   1,C   0)      0.1195         0.005749   
     40. D(H  10,C   2,S   1,C   0)   -179.9346         0.005749   
     41. D(C   4,C   3,C   2,H  10)    179.9714         0.030674   
     42. D(C   4,C   3,C   2,S   1)     -0.0864         0.030674   
     43. D(C   7,C   3,C   2,S   1)    179.9839         0.030674   
     44. D(C   7,C   3,C   2,H  10)      0.0418         0.030674   
     45. D(C   0,C   4,C   3,C   7)    179.9164         0.018952   
     46. D(C   0,C   4,C   3,C   2)     -0.0070         0.018952   
     47. D(O   5,C   4,C   0,H   9)     -0.0227         0.032542   
     48. D(O   5,C   4,C   0,S   1)   -179.8304         0.032542   
     49. D(C   3,C   4,C   0,H   9)    179.9045         0.032542   
     50. D(O   5,C   4,C   3,C   2)    179.9122         0.018952   
     51. D(C   3,C   4,C   0,S   1)      0.0969         0.032542   
     52. D(O   5,C   4,C   3,C   7)     -0.1644         0.018952   
     53. D(C   6,O   5,C   4,C   3)     -0.1021         0.030734   
     54. D(C   6,O   5,C   4,C   0)    179.8111         0.030734   
     55. D(H  13,C   6,O   5,C   4)    -60.8168         0.021327   
     56. D(H  12,C   6,O   5,C   4)     61.7817         0.021327   
     57. D(H  11,C   6,O   5,C   4)   -179.5264         0.021327   
    -----------------------------------------------------------------

Number of atoms                         .... 14
Number of degrees of freedom            .... 57

         *************************************************************
         *                GEOMETRY OPTIMIZATION CYCLE   1            *
         *************************************************************
---------------------------------
CARTESIAN COORDINATES (ANGSTROEM)
---------------------------------
  C      1.324450   -1.120150    0.007300
  S      1.886440    0.490770    0.197960
  C      0.302870    1.100840    0.056120
  C     -0.631350    0.110490   -0.128570
  C     -0.030100   -1.193640   -0.156980
  O     -0.626640   -2.395520   -0.316480
  C     -2.027080   -2.440410   -0.479890
  C     -1.992960    0.431800   -0.265390
  N     -3.091450    0.747050   -0.373300
  H      2.008600   -1.943060    0.026530
  H      0.114970    2.154820    0.113600
  H     -2.273430   -3.496310   -0.579530
  H     -2.345680   -1.906580   -1.380140
  H     -2.548750   -2.025880    0.388270

----------------------------
CARTESIAN COORDINATES (A.U.)
----------------------------
  NO LB      ZA    FRAG     MASS         X           Y           Z
   0 C     6.0000    0    12.011    2.502848   -2.116777    0.013795
   1 S    16.0000    0    32.060    3.564855    0.927421    0.374090
   2 C     6.0000    0    12.011    0.572341    2.080286    0.106051
   3 C     6.0000    0    12.011   -1.193079    0.208796   -0.242962
   4 C     6.0000    0    12.011   -0.056881   -2.255653   -0.296649
   5 O     8.0000    0    15.999   -1.184178   -4.526877   -0.598061
   6 C     6.0000    0    12.011   -3.830626   -4.611707   -0.906861
   7 C     6.0000    0    12.011   -3.766149    0.815984   -0.501514
   8 N     7.0000    0    14.007   -5.841994    1.411720   -0.705435
   9 H     1.0000    0     1.008    3.795704   -3.671851    0.050134
  10 H     1.0000    0     1.008    0.217262    4.072020    0.214673
  11 H     1.0000    0     1.008   -4.296160   -6.607068   -1.095153
  12 H     1.0000    0     1.008   -4.432693   -3.602914   -2.608087
  13 H     1.0000    0     1.008   -4.816439   -3.828358    0.733724

--------------------------------
INTERNAL COORDINATES (ANGSTROEM)
--------------------------------
 C      0   0   0     0.000000000000     0.00000000     0.00000000
 S      1   0   0     1.716754857893     0.00000000     0.00000000
 C      2   1   0     1.702938030405    91.28928119     0.00000000
 C      3   2   1     1.373925226131   112.66040992     0.11947405
 C      1   2   3     1.366453219470   112.85014607   359.87564330
 O      5   1   2     1.351227499720   119.97769701   180.16964447
 C      6   5   1     1.410655923250   118.70248648   179.81108935
 C      4   3   2     1.405681905909   120.46190769   179.98388465
 N      8   4   3     1.147914374289   177.27078131     1.79820595
 H      1   2   3     1.070332604147   120.67709786   180.05552495
 H      3   2   1     1.072140009887   120.70942697   180.06544087
 H      7   6   5     1.088825634388   105.43083169   180.47357594
 H      7   6   5     1.094043185345   111.64764217    61.78168951
 H      7   6   5     1.094384071247   111.67118095   299.18324882

---------------------------
INTERNAL COORDINATES (A.U.)
---------------------------
 C      0   0   0     0.000000000000     0.00000000     0.00000000
 S      1   0   0     3.244196520497     0.00000000     0.00000000
 C      2   1   0     3.218086500505    91.28928119     0.00000000
 C      3   2   1     2.596342405874   112.66040992     0.11947405
 C      1   2   3     2.582222359613   112.85014607   359.87564330
 O      5   1   2     2.553449919094   119.97769701   180.16964447
 C      6   5   1     2.665753364136   118.70248648   179.81108935
 C      4   3   2     2.656353833576   120.46190769   179.98388465
 N      8   4   3     2.169243792598   177.27078131     1.79820595
 H      1   2   3     2.022635494044   120.67709786   180.05552495
 H      3   2   1     2.026050995906   120.70942697   180.06544087
 H      7   6   5     2.057582256586   105.43083169   180.47357594
 H      7   6   5     2.067441998985   111.64764217    61.78168951
 H      7   6   5     2.068086179983   111.67118095   299.18324882

---------------------
BASIS SET INFORMATION
---------------------
There are 5 groups of distinct atoms

 Group   1 Type C   : 7s4p1d contracted to 3s2p1d pattern {511/31/1}
 Group   2 Type S   : 10s7p1d contracted to 4s3p1d pattern {5311/511/1}
 Group   3 Type O   : 7s4p1d contracted to 3s2p1d pattern {511/31/1}
 Group   4 Type N   : 7s4p1d contracted to 3s2p1d pattern {511/31/1}
 Group   5 Type H   : 4s1p contracted to 2s1p pattern {31/1}

Atom   0C    basis set group =>   1
Atom   1S    basis set group =>   2
Atom   2C    basis set group =>   1
Atom   3C    basis set group =>   1
Atom   4C    basis set group =>   1
Atom   5O    basis set group =>   3
Atom   6C    basis set group =>   1
Atom   7C    basis set group =>   1
Atom   8N    basis set group =>   4
Atom   9H    basis set group =>   5
Atom  10H    basis set group =>   5
Atom  11H    basis set group =>   5
Atom  12H    basis set group =>   5
Atom  13H    basis set group =>   5
---------------------------------
AUXILIARY/J BASIS SET INFORMATION
---------------------------------
There are 5 groups of distinct atoms

 Group   1 Type C   : 12s5p4d2f1g contracted to 6s4p3d1f1g pattern {711111/2111/211/2/1}
 Group   2 Type S   : 14s5p5d2f1g contracted to 8s4p3d1f1g pattern {71111111/2111/311/2/1}
 Group   3 Type O   : 12s5p4d2f1g contracted to 6s4p3d1f1g pattern {711111/2111/211/2/1}
 Group   4 Type N   : 12s5p4d2f1g contracted to 6s4p3d1f1g pattern {711111/2111/211/2/1}
 Group   5 Type H   : 5s2p1d contracted to 3s1p1d pattern {311/2/1}

Atom   0C    basis set group =>   1
Atom   1S    basis set group =>   2
Atom   2C    basis set group =>   1
Atom   3C    basis set group =>   1
Atom   4C    basis set group =>   1
Atom   5O    basis set group =>   3
Atom   6C    basis set group =>   1
Atom   7C    basis set group =>   1
Atom   8N    basis set group =>   4
Atom   9H    basis set group =>   5
Atom  10H    basis set group =>   5
Atom  11H    basis set group =>   5
Atom  12H    basis set group =>   5
Atom  13H    basis set group =>   5
------------------------------------------------------------------------------
                           ORCA GTO INTEGRAL CALCULATION
                           -- RI-GTO INTEGRALS CHOSEN --
------------------------------------------------------------------------------

                         BASIS SET STATISTICS AND STARTUP INFO

Gaussian basis set:
 # of primitive gaussian shells          ...  139
 # of primitive gaussian functions       ...  263
 # of contracted shells                  ...   71
 # of contracted basis functions         ...  155
 Highest angular momentum                ...    2
 Maximum contraction depth               ...    5
Auxiliary gaussian basis set:
 # of primitive gaussian shells          ...  259
 # of primitive gaussian functions       ...  717
 # of contracted shells                  ...  162
 # of contracted aux-basis functions     ...  498
 Highest angular momentum                ...    4
 Maximum contraction depth               ...    7
Ratio of auxiliary to basis functions    ...  3.21
Integral package used                  ... LIBINT
 One Electron integrals                  ... done
 Ordering auxiliary basis shells         ... done
 Integral threshhold             Thresh  ...  2.500e-11
 Primitive cut-off               TCut    ...  2.500e-12
 Pre-screening matrix                    ... done
 Shell pair data                         ... 
 Ordering of the shell pairs             ... done (   0.000 sec) 2380 of 2556 pairs
 Determination of significant pairs      ... done (   0.000 sec)
 Creation of shell pair data             ... done (   0.000 sec)
 Storage of shell pair data              ... done (   0.001 sec)
 Shell pair data done in (   0.001 sec)
 Computing two index integrals           ... done
 Cholesky decomposition of the V-matrix  ... done


Timings:
 Total evaluation time                   ...   0.142 sec (  0.002 min)
 One electron matrix time                ...   0.012 sec (  0.000 min) =  8.8%
 Schwartz matrix evaluation time         ...   0.100 sec (  0.002 min) = 70.3%
 Two index repulsion integral time       ...   0.007 sec (  0.000 min) =  4.8%
 Cholesky decomposition of V             ...   0.005 sec (  0.000 min) =  3.2%
 Three index repulsion integral time     ...   0.000 sec (  0.000 min) =  0.0%

-------------------------------------------------------------------------------
                                 ORCA SCF
-------------------------------------------------------------------------------

------------
SCF SETTINGS
------------
Hamiltonian:
 Density Functional     Method          .... DFT(GTOs)
 Exchange Functional    Exchange        .... B88
   X-Alpha parameter    XAlpha          ....  0.666667
   Becke's b parameter  XBeta           ....  0.004200
 Correlation Functional Correlation     .... LYP
 LDA part of GGA corr.  LDAOpt          .... VWN-3
 Gradients option       PostSCFGGA      .... off
 Hybrid DFT is turned on
   Fraction HF Exchange ScalHFX         ....  0.200000
   Scaling of DF-GGA-X  ScalDFX         ....  0.720000
   Scaling of DF-GGA-C  ScalDFC         ....  0.810000
   Scaling of DF-LDA-C  ScalLDAC        ....  1.000000
   Perturbative correction              ....  0.000000
   Density functional embedding theory  .... OFF
   NL short-range parameter             ....  4.800000
 RI-approximation to the Coulomb term is turned on
   Number of auxiliary basis functions  .... 498
   RIJ-COSX (HFX calculated with COS-X)).... on


General Settings:
 Integral files         IntName         .... 329
 Hartree-Fock type      HFTyp           .... RHF
 Total Charge           Charge          ....    0
 Multiplicity           Mult            ....    1
 Number of Electrons    NEL             ....   72
 Basis Dimension        Dim             ....  155
 Nuclear Repulsion      ENuc            ....    479.4214619551 Eh

Convergence Acceleration:
 DIIS                   CNVDIIS         .... on
   Start iteration      DIISMaxIt       ....    12
   Startup error        DIISStart       ....  0.200000
   # of expansion vecs  DIISMaxEq       ....     5
   Bias factor          DIISBfac        ....   1.050
   Max. coefficient     DIISMaxC        ....  10.000
 Newton-Raphson         CNVNR           .... off
 SOSCF                  CNVSOSCF        .... on
   Start iteration      SOSCFMaxIt      ....   150
   Startup grad/error   SOSCFStart      ....  0.003300
 Level Shifting         CNVShift        .... on
   Level shift para.    LevelShift      ....    0.2500
   Turn off err/grad.   ShiftErr        ....    0.0010
 Zerner damping         CNVZerner       .... off
 Static damping         CNVDamp         .... on
   Fraction old density DampFac         ....    0.7000
   Max. Damping (<1)    DampMax         ....    0.9800
   Min. Damping (>=0)   DampMin         ....    0.0000
   Turn off err/grad.   DampErr         ....    0.1000
 Fernandez-Rico         CNVRico         .... off

SCF Procedure:
 Maximum # iterations   MaxIter         ....   125
 SCF integral mode      SCFMode         .... Direct
   Integral package                     .... LIBINT
 Reset frequency        DirectResetFreq ....    20
 Integral Threshold     Thresh          ....  2.500e-11 Eh
 Primitive CutOff       TCut            ....  2.500e-12 Eh

Convergence Tolerance:
 Convergence Check Mode ConvCheckMode   .... Total+1el-Energy
 Convergence forced     ConvForced      .... 0
 Energy Change          TolE            ....  1.000e-08 Eh
 1-El. energy change                    ....  1.000e-05 Eh
 Orbital Gradient       TolG            ....  1.000e-05
 Orbital Rotation angle TolX            ....  1.000e-05
 DIIS Error             TolErr          ....  5.000e-07


Diagonalization of the overlap matrix:
Smallest eigenvalue                        ... 4.777e-04
Time for diagonalization                   ...    0.005 sec
Threshold for overlap eigenvalues          ... 1.000e-08
Number of eigenvalues below threshold      ... 0
Time for construction of square roots      ...    0.001 sec
Total time needed                          ...    0.006 sec

-------------------
DFT GRID GENERATION
-------------------

General Integration Accuracy     IntAcc      ...  4.340
Radial Grid Type                 RadialGrid  ... Gauss-Chebyshev
Angular Grid (max. acc.)         AngularGrid ... Lebedev-110
Angular grid pruning method      GridPruning ... 3 (G Style)
Weight generation scheme         WeightScheme... Becke
Basis function cutoff            BFCut       ...    1.0000e-11
Integration weight cutoff        WCut        ...    1.0000e-14
Grids for H and He will be reduced by one unit

# of grid points (after initial pruning)     ...  19130 (   0.0 sec)
# of grid points (after weights+screening)   ...  17883 (   0.0 sec)
nearest neighbour list constructed           ...    0.0 sec
Grid point re-assignment to atoms done       ...    0.0 sec
Grid point division into batches done        ...    0.0 sec
Reduced shell lists constructed in    0.1 sec

Total number of grid points                  ...    17883
Total number of batches                      ...      286
Average number of points per batch           ...       62
Average number of grid points per atom       ...     1277
Average number of shells per batch           ...    49.45 (69.65%)
Average number of basis functions per batch  ...   107.94 (69.64%)
Average number of large shells per batch     ...    38.93 (78.72%)
Average number of large basis fcns per batch ...    83.41 (77.27%)
Maximum spatial batch extension              ...  20.05, 19.34, 24.36 au
Average spatial batch extension              ...   3.86,  3.59,  4.29 au

Time for grid setup =    0.145 sec

------------------------------
INITIAL GUESS: MODEL POTENTIAL
------------------------------
Loading Hartree-Fock densities                     ... done
Calculating cut-offs                               ... done
Setting up the integral package                    ... done
Initializing the effective Hamiltonian             ... done
Starting the Coulomb interaction                   ... done (   0.1 sec)
Reading the grid                                   ... done
Mapping shells                                     ... done
Starting the XC term evaluation                    ... done (   0.2 sec)
  promolecular density results
     # of electrons  =     72.001943530
     EX              =    -72.119679226
     EC              =     -2.574980677
     EX+EC           =    -74.694659903
Transforming the Hamiltonian                       ... done (   0.0 sec)
Diagonalizing the Hamiltonian                      ... done (   0.0 sec)
Back transforming the eigenvectors                 ... done (   0.0 sec)
Now organizing SCF variables                       ... done
                      ------------------
                      INITIAL GUESS DONE (   0.5 sec)
                      ------------------
--------------------
COSX GRID GENERATION
--------------------

General Integration Accuracy     IntAcc      ...  3.340
Radial Grid Type                 RadialGrid  ... Gauss-Chebyshev
Angular Grid (max. acc.)         AngularGrid ... Lebedev-50
Angular grid pruning method      GridPruning ... 3 (G Style)
Weight generation scheme         WeightScheme... Becke
Basis function cutoff            BFCut       ...    1.0000e-11
Integration weight cutoff        WCut        ...    1.0000e-14
Grids for H and He will be reduced by one unit

# of grid points (after initial pruning)     ...   6932 (   0.0 sec)
# of grid points (after weights+screening)   ...   6555 (   0.0 sec)
nearest neighbour list constructed           ...    0.0 sec
Grid point re-assignment to atoms done       ...    0.0 sec
Grid point division into batches done        ...    0.0 sec
Reduced shell lists constructed in    0.0 sec

Total number of grid points                  ...     6555
Total number of batches                      ...      110
Average number of points per batch           ...       59
Average number of grid points per atom       ...      468
Average number of shells per batch           ...    52.96 (74.60%)
Average number of basis functions per batch  ...   116.39 (75.09%)
Average number of large shells per batch     ...    42.48 (80.20%)
Average number of large basis fcns per batch ...    91.36 (78.50%)
Maximum spatial batch extension              ...  19.08, 15.02, 25.32 au
Average spatial batch extension              ...   4.89,  4.46,  5.88 au

Overlap Fitting                  UseSFitting ... on
Constructing numerical overlap ... done (      0.0 sec)
Inverting numerical overlap    ... done (      0.0 sec)
Obtaining analytic overlap     ... done (      0.0 sec)
Final contraction and storage  ... done (      0.0 sec)


General Integration Accuracy     IntAcc      ...  3.670
Radial Grid Type                 RadialGrid  ... Gauss-Chebyshev
Angular Grid (max. acc.)         AngularGrid ... Lebedev-50
Angular grid pruning method      GridPruning ... 3 (G Style)
Weight generation scheme         WeightScheme... Becke
Basis function cutoff            BFCut       ...    1.0000e-11
Integration weight cutoff        WCut        ...    1.0000e-14
Grids for H and He will be reduced by one unit

# of grid points (after initial pruning)     ...   8722 (   0.0 sec)
# of grid points (after weights+screening)   ...   8226 (   0.0 sec)
nearest neighbour list constructed           ...    0.0 sec
Grid point re-assignment to atoms done       ...    0.0 sec
Grid point division into batches done        ...    0.0 sec
Reduced shell lists constructed in    0.0 sec

Total number of grid points                  ...     8226
Total number of batches                      ...      135
Average number of points per batch           ...       60
Average number of grid points per atom       ...      588
Average number of shells per batch           ...    52.10 (73.37%)
Average number of basis functions per batch  ...   114.21 (73.69%)
Average number of large shells per batch     ...    41.28 (79.24%)
Average number of large basis fcns per batch ...    88.53 (77.51%)
Maximum spatial batch extension              ...  20.62, 16.21, 27.71 au
Average spatial batch extension              ...   4.63,  4.21,  5.31 au

Overlap Fitting                  UseSFitting ... on
Constructing numerical overlap ... done (      0.0 sec)
Inverting numerical overlap    ... done (      0.0 sec)
Obtaining analytic overlap     ... done (      0.0 sec)
Final contraction and storage  ... done (      0.0 sec)


General Integration Accuracy     IntAcc      ...  4.010
Radial Grid Type                 RadialGrid  ... Gauss-Chebyshev
Angular Grid (max. acc.)         AngularGrid ... Lebedev-110
Angular grid pruning method      GridPruning ... 3 (G Style)
Weight generation scheme         WeightScheme... Becke
Basis function cutoff            BFCut       ...    1.0000e-11
Integration weight cutoff        WCut        ...    1.0000e-14
Grids for H and He will be reduced by one unit

# of grid points (after initial pruning)     ...  16670 (   0.0 sec)
# of grid points (after weights+screening)   ...  15608 (   0.0 sec)
nearest neighbour list constructed           ...    0.0 sec
Grid point re-assignment to atoms done       ...    0.0 sec
Grid point division into batches done        ...    0.0 sec
Reduced shell lists constructed in    0.1 sec

Total number of grid points                  ...    15608
Total number of batches                      ...      251
Average number of points per batch           ...       62
Average number of grid points per atom       ...     1115
Average number of shells per batch           ...    50.06 (70.51%)
Average number of basis functions per batch  ...   109.58 (70.69%)
Average number of large shells per batch     ...    39.48 (78.87%)
Average number of large basis fcns per batch ...    84.66 (77.26%)
Maximum spatial batch extension              ...  20.16, 18.26, 23.27 au
Average spatial batch extension              ...   4.07,  3.80,  4.58 au

Overlap Fitting                  UseSFitting ... on
Constructing numerical overlap ... done (      0.1 sec)
Inverting numerical overlap    ... done (      0.0 sec)
Obtaining analytic overlap     ... done (      0.0 sec)
Final contraction and storage  ... done (      0.0 sec)

Time for X-Grid setup             =    0.436 sec
--------------
SCF ITERATIONS
--------------
ITER       Energy         Delta-E        Max-DP      RMS-DP      [F,P]     Damp
               ***  Starting incremental Fock matrix formation  ***
  0   -759.1523072943   0.000000000000 0.09476909  0.00290900  0.2232858 0.7000
  1   -759.2660667467  -0.113759452357 0.05568616  0.00199927  0.0915782 0.7000
                               ***Turning on DIIS***
  2   -759.3065335185  -0.040466771803 0.11273259  0.00328126  0.0322550 0.0000
  3   -759.3670593497  -0.060525831264 0.03990055  0.00157615  0.0524808 0.0000
  4   -759.3846359337  -0.017576583906 0.02148647  0.00056367  0.0227963 0.0000
  5   -759.3861164412  -0.001480507526 0.00977867  0.00017915  0.0082311 0.0000
                      *** Initiating the SOSCF procedure ***
                           *** Shutting down DIIS ***
                      *** Re-Reading the Fockian *** 
                      *** Removing any level shift *** 
ITER      Energy       Delta-E        Grad      Rot      Max-DP    RMS-DP
  6   -759.38626259  -0.0001461471  0.000541  0.000541  0.001933  0.000070
               *** Restarting incremental Fock matrix formation ***
  7   -759.38626629  -0.0000037047  0.000325  0.001296  0.001835  0.000058
  8   -759.38626081   0.0000054798  0.000634  0.001067  0.001162  0.000036
  9   -759.38626905  -0.0000082375  0.000049  0.000184  0.000266  0.000007
 10   -759.38626901   0.0000000449  0.000061  0.000109  0.000143  0.000004
 11   -759.38626912  -0.0000001188  0.000009  0.000029  0.000057  0.000002
 12   -759.38626912   0.0000000055  0.000020  0.000020  0.000041  0.000001
 13   -759.38626913  -0.0000000110  0.000003  0.000012  0.000018  0.000001
 14   -759.38626913  -0.0000000040  0.000006  0.000011  0.000013  0.000000
                  ***Gradient check signals convergence***
              ***Rediagonalizing the Fockian in SOSCF/NRSCF***

               *****************************************************
               *                     SUCCESS                       *
               *           SCF CONVERGED AFTER  15 CYCLES          *
               *****************************************************

Setting up the final grid:

General Integration Accuracy     IntAcc      ...  4.670
Radial Grid Type                 RadialGrid  ... Gauss-Chebyshev
Angular Grid (max. acc.)         AngularGrid ... Lebedev-302
Angular grid pruning method      GridPruning ... 3 (G Style)
Weight generation scheme         WeightScheme... Becke
Basis function cutoff            BFCut       ...    1.0000e-11
Integration weight cutoff        WCut        ...    1.0000e-14
Grids for H and He will be reduced by one unit

# of grid points (after initial pruning)     ...  73512 (   0.0 sec)
# of grid points (after weights+screening)   ...  67763 (   0.1 sec)
nearest neighbour list constructed           ...    0.0 sec
Grid point re-assignment to atoms done       ...    0.0 sec
Grid point division into batches done        ...    0.3 sec
Reduced shell lists constructed in    0.6 sec

Total number of grid points                  ...    67763
Total number of batches                      ...     1067
Average number of points per batch           ...       63
Average number of grid points per atom       ...     4840
Average number of shells per batch           ...    45.08 (63.49%)
Average number of basis functions per batch  ...    97.65 (63.00%)
Average number of large shells per batch     ...    34.83 (77.27%)
Average number of large basis fcns per batch ...    73.88 (75.67%)
Maximum spatial batch extension              ...  16.25, 19.68, 18.88 au
Average spatial batch extension              ...   2.58,  2.50,  2.74 au

Final grid set up in    0.8 sec
Final integration                            ... done (   0.8 sec)
Change in XC energy                          ...     0.000422203
Integrated number of electrons               ...    72.000132196
Previous integrated no of electrons          ...    72.004966441
Old exchange energy                            =    -14.534973972 Eh
New exchange energy                            =    -14.534291849 Eh
Exchange energy change after final integration =      0.000682122 Eh
Total energy after final integration           =   -759.385164804 Eh
Final COS-X integration done in                =     4.159 sec

----------------
TOTAL SCF ENERGY
----------------

Total Energy       :         -759.38516480 Eh          -20663.92087 eV

Components:
Nuclear Repulsion  :          479.42146196 Eh           13045.72121 eV
Electronic Energy  :        -1238.80662676 Eh          -33709.64208 eV
One Electron Energy:        -1989.72896453 Eh          -54143.27772 eV
Two Electron Energy:          750.92233777 Eh           20433.63564 eV

Virial components:
Potential Energy   :        -1514.62575462 Eh          -41215.06212 eV
Kinetic Energy     :          755.24058981 Eh           20551.14125 eV
Virial Ratio       :            2.00548775


DFT components:
N(Alpha)           :       36.000066097889 electrons
N(Beta)            :       36.000066097889 electrons
N(Total)           :       72.000132195777 electrons
E(X)               :      -57.764464646409 Eh       
E(C)               :       -3.297961256246 Eh       
E(XC)              :      -61.062425902656 Eh       
DFET-embed. en.    :        0.000000000000 Eh       

---------------
SCF CONVERGENCE
---------------

  Last Energy change         ...    4.4668e-09  Tolerance :   1.0000e-08
  Last MAX-Density change    ...    4.4409e-15  Tolerance :   1.0000e-07
  Last RMS-Density change    ...    5.6308e-17  Tolerance :   5.0000e-09
  Last Orbital Gradient      ...    1.0845e-06  Tolerance :   1.0000e-05
  Last Orbital Rotation      ...    4.4114e-06  Tolerance :   1.0000e-05

             **** THE GBW FILE WAS UPDATED (329.gbw) ****
             **** DENSITY FILE WAS UPDATED (329.scfp) ****
             **** ENERGY FILE WAS UPDATED (329.en.tmp) ****
             **** THE GBW FILE WAS UPDATED (329.gbw) ****
             **** DENSITY FILE WAS UPDATED (329.scfp) ****
----------------
ORBITAL ENERGIES
----------------

  NO   OCC          E(Eh)            E(eV) 
   0   2.0000     -88.900033     -2419.0929 
   1   2.0000     -19.179631      -521.9043 
   2   2.0000     -14.326527      -389.8446 
   3   2.0000     -10.273557      -279.5577 
   4   2.0000     -10.248899      -278.8867 
   5   2.0000     -10.241160      -278.6761 
   6   2.0000     -10.239519      -278.6315 
   7   2.0000     -10.230357      -278.3822 
   8   2.0000     -10.217262      -278.0258 
   9   2.0000      -7.995463      -217.5676 
  10   2.0000      -5.963373      -162.2716 
  11   2.0000      -5.959315      -162.1612 
  12   2.0000      -5.957087      -162.1006 
  13   2.0000      -1.076817       -29.3017 
  14   2.0000      -0.917484       -24.9660 
  15   2.0000      -0.899077       -24.4651 
  16   2.0000      -0.781172       -21.2568 
  17   2.0000      -0.767312       -20.8796 
  18   2.0000      -0.696064       -18.9409 
  19   2.0000      -0.625221       -17.0131 
  20   2.0000      -0.600017       -16.3273 
  21   2.0000      -0.566362       -15.4115 
  22   2.0000      -0.490336       -13.3427 
  23   2.0000      -0.487205       -13.2575 
  24   2.0000      -0.485501       -13.2112 
  25   2.0000      -0.436055       -11.8657 
  26   2.0000      -0.427416       -11.6306 
  27   2.0000      -0.422951       -11.5091 
  28   2.0000      -0.384618       -10.4660 
  29   2.0000      -0.371407       -10.1065 
  30   2.0000      -0.371198       -10.1008 
  31   2.0000      -0.361774        -9.8444 
  32   2.0000      -0.344246        -9.3674 
  33   2.0000      -0.328674        -8.9437 
  34   2.0000      -0.267377        -7.2757 
  35   2.0000      -0.238002        -6.4764 
  36   0.0000      -0.053294        -1.4502 
  37   0.0000       0.005885         0.1601 
  38   0.0000       0.012964         0.3528 
  39   0.0000       0.053871         1.4659 
  40   0.0000       0.070480         1.9179 
  41   0.0000       0.077665         2.1134 
  42   0.0000       0.095657         2.6030 
  43   0.0000       0.104784         2.8513 
  44   0.0000       0.118911         3.2357 
  45   0.0000       0.123686         3.3657 
  46   0.0000       0.141274         3.8443 
  47   0.0000       0.156392         4.2556 
  48   0.0000       0.183180         4.9846 
  49   0.0000       0.217583         5.9207 
  50   0.0000       0.273757         7.4493 
  51   0.0000       0.285470         7.7680 
  52   0.0000       0.309828         8.4308 
  53   0.0000       0.342911         9.3311 
  54   0.0000       0.387399        10.5417 
  55   0.0000       0.405413        11.0318 
  56   0.0000       0.431429        11.7398 
  57   0.0000       0.444409        12.0930 
  58   0.0000       0.448763        12.2115 
  59   0.0000       0.455965        12.4074 
  60   0.0000       0.473246        12.8777 
  61   0.0000       0.492545        13.4028 
  62   0.0000       0.495495        13.4831 
  63   0.0000       0.530220        14.4280 
  64   0.0000       0.537674        14.6308 
  65   0.0000       0.573212        15.5979 
  66   0.0000       0.575136        15.6503 
  67   0.0000       0.597237        16.2517 
  68   0.0000       0.598190        16.2776 
  69   0.0000       0.622901        16.9500 
  70   0.0000       0.630882        17.1672 
  71   0.0000       0.634031        17.2529 
  72   0.0000       0.647218        17.6117 
  73   0.0000       0.656443        17.8627 
  74   0.0000       0.658093        17.9076 
  75   0.0000       0.675009        18.3679 
  76   0.0000       0.682697        18.5771 
  77   0.0000       0.695210        18.9176 
  78   0.0000       0.724474        19.7139 
  79   0.0000       0.725160        19.7326 
  80   0.0000       0.742513        20.2048 
  81   0.0000       0.761264        20.7150 
  82   0.0000       0.786449        21.4004 
  83   0.0000       0.807326        21.9685 
  84   0.0000       0.838852        22.8263 
  85   0.0000       0.875866        23.8335 
  86   0.0000       0.910392        24.7730 
  87   0.0000       0.938393        25.5350 
  88   0.0000       0.969888        26.3920 
  89   0.0000       1.028871        27.9970 
  90   0.0000       1.037163        28.2226 
  91   0.0000       1.048533        28.5320 
  92   0.0000       1.075903        29.2768 
  93   0.0000       1.104341        30.0507 
  94   0.0000       1.149492        31.2793 
  95   0.0000       1.193204        32.4687 
  96   0.0000       1.201682        32.6994 
  97   0.0000       1.212290        32.9881 
  98   0.0000       1.221268        33.2324 
  99   0.0000       1.222472        33.2651 
 100   0.0000       1.297755        35.3137 
 101   0.0000       1.346451        36.6388 
 102   0.0000       1.393466        37.9181 
 103   0.0000       1.509684        41.0806 
 104   0.0000       1.511476        41.1294 
 105   0.0000       1.535530        41.7839 
 106   0.0000       1.584408        43.1139 
 107   0.0000       1.587568        43.1999 
 108   0.0000       1.620855        44.1057 
 109   0.0000       1.654096        45.0102 
 110   0.0000       1.701993        46.3136 
 111   0.0000       1.734162        47.1889 
 112   0.0000       1.751499        47.6607 
 113   0.0000       1.773158        48.2501 
 114   0.0000       1.799314        48.9618 
 115   0.0000       1.807024        49.1716 
 116   0.0000       1.836382        49.9705 
 117   0.0000       1.853049        50.4240 
 118   0.0000       1.879201        51.1357 
 119   0.0000       1.888395        51.3858 
 120   0.0000       1.907278        51.8997 
 121   0.0000       1.934794        52.6484 
 122   0.0000       1.994698        54.2785 
 123   0.0000       2.024346        55.0853 
 124   0.0000       2.038308        55.4652 
 125   0.0000       2.120263        57.6953 
 126   0.0000       2.155504        58.6542 
 127   0.0000       2.194736        59.7218 
 128   0.0000       2.227452        60.6121 
 129   0.0000       2.231966        60.7349 
 130   0.0000       2.273331        61.8605 
 131   0.0000       2.278729        62.0074 
 132   0.0000       2.304965        62.7213 
 133   0.0000       2.321172        63.1623 
 134   0.0000       2.331215        63.4356 
 135   0.0000       2.372060        64.5470 
 136   0.0000       2.422034        65.9069 
 137   0.0000       2.429199        66.1019 
 138   0.0000       2.614519        71.1447 
 139   0.0000       2.638971        71.8101 
 140   0.0000       2.670140        72.6582 
 141   0.0000       2.687924        73.1421 
 142   0.0000       2.796543        76.0978 
 143   0.0000       2.854264        77.6685 
 144   0.0000       2.872433        78.1629 
 145   0.0000       2.886878        78.5559 
 146   0.0000       2.947805        80.2138 
 147   0.0000       3.016497        82.0831 
 148   0.0000       3.084922        83.9450 
 149   0.0000       3.098819        84.3232 
 150   0.0000       3.115599        84.7798 
 151   0.0000       3.223858        87.7256 
 152   0.0000       3.462913        94.2306 
 153   0.0000       3.507031        95.4312 
 154   0.0000       3.655852        99.4808 

                    ********************************
                    * MULLIKEN POPULATION ANALYSIS *
                    ********************************

-----------------------
MULLIKEN ATOMIC CHARGES
-----------------------
   0 C :   -0.171685
   1 S :    0.147940
   2 C :   -0.061968
   3 C :   -0.169180
   4 C :    0.302311
   5 O :   -0.307950
   6 C :    0.195905
   7 C :   -0.167337
   8 N :    0.082868
   9 H :    0.017856
  10 H :    0.032855
  11 H :    0.027959
  12 H :    0.034007
  13 H :    0.036418
Sum of atomic charges:   -0.0000000

--------------------------------
MULLIKEN REDUCED ORBITAL CHARGES
--------------------------------
  0 C s       :     3.212800  s :     3.212800
      pz      :     1.171330  p :     2.925336
      px      :     0.956921
      py      :     0.797085
      dz2     :     0.003350  d :     0.033548
      dxz     :     0.005841
      dyz     :     0.003926
      dx2y2   :     0.010687
      dxy     :     0.009746
  1 S s       :     5.835066  s :     5.835066
      pz      :     3.606511  p :     9.895456
      px      :     3.255854
      py      :     3.033091
      dz2     :     0.012889  d :     0.121539
      dxz     :     0.014629
      dyz     :     0.026164
      dx2y2   :     0.036416
      dxy     :     0.031440
  2 C s       :     3.208777  s :     3.208777
      pz      :     1.068114  p :     2.816158
      px      :     0.869187
      py      :     0.878857
      dz2     :     0.003475  d :     0.037033
      dxz     :     0.007601
      dyz     :     0.003700
      dx2y2   :     0.012124
      dxy     :     0.010133
  3 C s       :     3.060401  s :     3.060401
      pz      :     1.123822  p :     3.064635
      px      :     0.957089
      py      :     0.983723
      dz2     :     0.003758  d :     0.044144
      dxz     :     0.006111
      dyz     :     0.007383
      dx2y2   :     0.013317
      dxy     :     0.013574
  4 C s       :     2.936829  s :     2.936829
      pz      :     0.982983  p :     2.683851
      px      :     0.896789
      py      :     0.804079
      dz2     :     0.006097  d :     0.077010
      dxz     :     0.011034
      dyz     :     0.015331
      dx2y2   :     0.022989
      dxy     :     0.021559
  5 O s       :     3.724581  s :     3.724581
      pz      :     1.785925  p :     4.566091
      px      :     1.310547
      py      :     1.469618
      dz2     :     0.002374  d :     0.017278
      dxz     :     0.002186
      dyz     :     0.002547
      dx2y2   :     0.006318
      dxy     :     0.003853
  6 C s       :     2.997418  s :     2.997418
      pz      :     1.031164  p :     2.752699
      px      :     0.690574
      py      :     1.030961
      dz2     :     0.008700  d :     0.053978
      dxz     :     0.014330
      dyz     :     0.005027
      dx2y2   :     0.017221
      dxy     :     0.008701
  7 C s       :     3.104794  s :     3.104794
      pz      :     0.958858  p :     3.014129
      px      :     1.058585
      py      :     0.996686
      dz2     :     0.003803  d :     0.048413
      dxz     :     0.018119
      dyz     :     0.001441
      dx2y2   :     0.011331
      dxy     :     0.013719
  8 N s       :     3.507108  s :     3.507108
      pz      :     1.074208  p :     3.377275
      px      :     1.258525
      py      :     1.044542
      dz2     :     0.003176  d :     0.032749
      dxz     :     0.009289
      dyz     :     0.000877
      dx2y2   :     0.009420
      dxy     :     0.009987
  9 H s       :     0.957690  s :     0.957690
      pz      :     0.005855  p :     0.024454
      px      :     0.008297
      py      :     0.010302
 10 H s       :     0.942999  s :     0.942999
      pz      :     0.005406  p :     0.024145
      px      :     0.003272
      py      :     0.015467
 11 H s       :     0.950119  s :     0.950119
      pz      :     0.005209  p :     0.021922
      px      :     0.002408
      py      :     0.014305
 12 H s       :     0.943052  s :     0.943052
      pz      :     0.011882  p :     0.022941
      px      :     0.003574
      py      :     0.007485
 13 H s       :     0.940662  s :     0.940662
      pz      :     0.011027  p :     0.022920
      px      :     0.005291
      py      :     0.006601


                     *******************************
                     * LOEWDIN POPULATION ANALYSIS *
                     *******************************

----------------------
LOEWDIN ATOMIC CHARGES
----------------------
   0 C :   -0.225004
   1 S :    0.481016
   2 C :   -0.154882
   3 C :   -0.137683
   4 C :    0.029783
   5 O :   -0.096671
   6 C :    0.086942
   7 C :   -0.036486
   8 N :   -0.072221
   9 H :    0.026460
  10 H :    0.031753
  11 H :    0.027304
  12 H :    0.019607
  13 H :    0.020083

-------------------------------
LOEWDIN REDUCED ORBITAL CHARGES
-------------------------------
  0 C s       :     2.917200  s :     2.917200
      pz      :     1.159032  p :     3.225962
      px      :     1.064229
      py      :     1.002701
      dz2     :     0.007083  d :     0.081841
      dxz     :     0.011708
      dyz     :     0.007545
      dx2y2   :     0.029021
      dxy     :     0.026485
  1 S s       :     5.487902  s :     5.487902
      pz      :     3.557725  p :     9.882079
      px      :     3.284707
      py      :     3.039647
      dz2     :     0.016340  d :     0.149002
      dxz     :     0.015024
      dyz     :     0.032089
      dx2y2   :     0.046499
      dxy     :     0.039050
  2 C s       :     2.917704  s :     2.917704
      pz      :     1.068610  p :     3.149035
      px      :     1.015187
      py      :     1.065238
      dz2     :     0.007028  d :     0.088142
      dxz     :     0.016070
      dyz     :     0.006621
      dx2y2   :     0.031444
      dxy     :     0.026979
  3 C s       :     2.838328  s :     2.838328
      pz      :     1.084798  p :     3.180986
      px      :     1.038884
      py      :     1.057304
      dz2     :     0.009531  d :     0.118370
      dxz     :     0.013221
      dyz     :     0.015415
      dx2y2   :     0.039051
      dxy     :     0.041152
  4 C s       :     2.833315  s :     2.833315
      pz      :     0.990645  p :     2.956425
      px      :     1.040814
      py      :     0.924966
      dz2     :     0.013298  d :     0.180477
      dxz     :     0.022831
      dyz     :     0.030635
      dx2y2   :     0.060937
      dxy     :     0.052776
  5 O s       :     3.428325  s :     3.428325
      pz      :     1.772147  p :     4.636278
      px      :     1.356432
      py      :     1.507699
      dz2     :     0.003949  d :     0.032068
      dxz     :     0.003842
      dyz     :     0.003676
      dx2y2   :     0.012528
      dxy     :     0.008073
  6 C s       :     2.840724  s :     2.840724
      pz      :     1.079885  p :     2.948561
      px      :     0.782245
      py      :     1.086431
      dz2     :     0.019857  d :     0.123774
      dxz     :     0.033663
      dyz     :     0.012533
      dx2y2   :     0.039053
      dxy     :     0.018668
  7 C s       :     2.897874  s :     2.897874
      pz      :     0.941801  p :     3.020718
      px      :     1.139397
      py      :     0.939521
      dz2     :     0.011262  d :     0.117894
      dxz     :     0.038529
      dyz     :     0.003041
      dx2y2   :     0.032257
      dxy     :     0.032805
  8 N s       :     3.413552  s :     3.413552
      pz      :     1.085772  p :     3.603443
      px      :     1.444947
      py      :     1.072724
      dz2     :     0.006600  d :     0.055226
      dxz     :     0.013316
      dyz     :     0.001250
      dx2y2   :     0.018013
      dxy     :     0.016047
  9 H s       :     0.895106  s :     0.895106
      pz      :     0.020370  p :     0.078435
      px      :     0.024259
      py      :     0.033806
 10 H s       :     0.891442  s :     0.891442
      pz      :     0.017874  p :     0.076805
      px      :     0.012815
      py      :     0.046117
 11 H s       :     0.909180  s :     0.909180
      pz      :     0.012984  p :     0.063517
      px      :     0.008922
      py      :     0.041610
 12 H s       :     0.914044  s :     0.914044
      pz      :     0.034556  p :     0.066349
      px      :     0.011645
      py      :     0.020148
 13 H s       :     0.913552  s :     0.913552
      pz      :     0.032153  p :     0.066365
      px      :     0.016993
      py      :     0.017219


                      *****************************
                      * MAYER POPULATION ANALYSIS *
                      *****************************

  NA   - Mulliken gross atomic population
  ZA   - Total nuclear charge
  QA   - Mulliken gross atomic charge
  VA   - Mayer's total valence
  BVA  - Mayer's bonded valence
  FA   - Mayer's free valence

  ATOM       NA         ZA         QA         VA         BVA        FA
  0 C      6.1717     6.0000    -0.1717     3.7968     3.7968     0.0000
  1 S     15.8521    16.0000     0.1479     2.5755     2.5755     0.0000
  2 C      6.0620     6.0000    -0.0620     3.8363     3.8363     0.0000
  3 C      6.1692     6.0000    -0.1692     4.0158     4.0158    -0.0000
  4 C      5.6977     6.0000     0.3023     4.0220     4.0220     0.0000
  5 O      8.3080     8.0000    -0.3080     2.2280     2.2280     0.0000
  6 C      5.8041     6.0000     0.1959     3.9030     3.9030     0.0000
  7 C      6.1673     6.0000    -0.1673     4.1439     4.1439    -0.0000
  8 N      6.9171     7.0000     0.0829     3.1375     3.1375    -0.0000
  9 H      0.9821     1.0000     0.0179     1.0064     1.0064     0.0000
 10 H      0.9671     1.0000     0.0329     0.9991     0.9991     0.0000
 11 H      0.9720     1.0000     0.0280     0.9885     0.9885    -0.0000
 12 H      0.9660     1.0000     0.0340     0.9924     0.9924    -0.0000
 13 H      0.9636     1.0000     0.0364     0.9925     0.9925    -0.0000

  Mayer bond orders larger than 0.100000
B(  0-C ,  1-S ) :   1.1553 B(  0-C ,  4-C ) :   1.5023 B(  0-C ,  9-H ) :   0.9593 
B(  1-S ,  2-C ) :   1.2198 B(  1-S ,  3-C ) :   0.1210 B(  2-C ,  3-C ) :   1.4892 
B(  2-C , 10-H ) :   0.9742 B(  3-C ,  4-C ) :   1.1904 B(  3-C ,  7-C ) :   1.1458 
B(  4-C ,  5-O ) :   1.1846 B(  5-O ,  6-C ) :   0.9388 B(  6-C , 11-H ) :   0.9720 
B(  6-C , 12-H ) :   0.9659 B(  6-C , 13-H ) :   0.9656 B(  7-C ,  8-N ) :   2.9715 


-------
TIMINGS
-------

Total SCF time: 0 days 0 hours 0 min 42 sec 

Total time                  ....      42.834 sec
Sum of individual times     ....      42.694 sec  ( 99.7%)

Fock matrix formation       ....      40.972 sec  ( 95.7%)
  Split-RI-J                ....       4.627 sec  ( 11.3% of F)
  Chain of spheres X        ....      32.276 sec  ( 78.8% of F)
  COS-X 1 center corr.      ....       0.000 sec  (  0.0% of F)
  XC integration            ....       3.972 sec  (  9.7% of F)
    Basis function eval.    ....       1.520 sec  ( 38.3% of XC)
    Density eval.           ....       0.827 sec  ( 20.8% of XC)
    XC-Functional eval.     ....       0.341 sec  (  8.6% of XC)
    XC-Potential eval.      ....       1.126 sec  ( 28.3% of XC)
Diagonalization             ....       0.023 sec  (  0.1%)
Density matrix formation    ....       0.006 sec  (  0.0%)
Population analysis         ....       0.003 sec  (  0.0%)
Initial guess               ....       0.321 sec  (  0.7%)
Orbital Transformation      ....       0.000 sec  (  0.0%)
Orbital Orthonormalization  ....       0.000 sec  (  0.0%)
DIIS solution               ....       0.007 sec  (  0.0%)
SOSCF solution              ....       0.018 sec  (  0.0%)
Grid generation             ....       1.343 sec  (  3.1%)


-------------------------------------------------------------------------------
                          DFT DISPERSION CORRECTION                            
                                                                               
                              DFTD3 V3.1  Rev 1                                
                          USING Becke-Johnson damping                          
-------------------------------------------------------------------------------
Gaussians B3LYP functional is recognized, using regular B3LYP params
Active option DFTDOPT                   ...         4   

molecular C6(AA) [au] = 3261.700510 


            DFT-D V3
 parameters
 s6 scaling factor         :     1.0000 
 a1 scaling factor         :     0.3981 
 s8 scaling factor         :     1.9889 
 a2 scaling factor         :     4.4211 
 ad hoc parameters k1-k3   :    16.0000     1.3333    -4.0000 

 Edisp/kcal,au: -17.463134829434  -0.027829273801 
 E6   /kcal   :  -7.780117548 
 E8   /kcal   :  -9.683017282 
 % E8         :  55.448333739 

-------------------------   ----------------
Dispersion correction           -0.027829274
-------------------------   ----------------


-------------------------   --------------------
FINAL SINGLE POINT ENERGY      -759.412994077936
-------------------------   --------------------

------------------------------------------------------------------------------
                         ORCA SCF GRADIENT CALCULATION
------------------------------------------------------------------------------

Gradient of the Kohn-Sham DFT energy:
Kohn-Sham wavefunction type      ... RKS
Hartree-Fock exchange scaling    ...    0.200
Number of operators              ...    1
Number of atoms                  ...   14
Basis set dimensions             ...  155
Integral neglect threshold       ... 2.5e-11
Integral primitive cutoff        ... 2.5e-12

Nuclear repulsion gradient       ... done
One Electron Gradient            ... done
Pre-screening matrix             ... done
RI-J gradient                    ... done
COSX-gradient                    ... done
Exchange-correlation gradient    ... done
Dispersion correction            ... done

------------------
CARTESIAN GRADIENT
------------------

   1   C   :   -0.006199135   -0.002236960   -0.000916150
   2   S   :   -0.002820492   -0.001895881   -0.000079281
   3   C   :   -0.008105231   -0.002431036   -0.000727190
   4   C   :   -0.001956272    0.003013169   -0.000232855
   5   C   :    0.003163407    0.013731654    0.001452147
   6   O   :   -0.005094531   -0.007711327   -0.000820195
   7   C   :   -0.001972341    0.003522078    0.000017307
   8   C   :   -0.015467189    0.002529958   -0.001588416
   9   N   :    0.033417417   -0.009382006    0.003476382
  10   H   :   -0.007035003    0.010596195   -0.000090556
  11   H   :    0.003335858   -0.011665226   -0.000541603
  12   H   :    0.003248573    0.005361113    0.000837182
  13   H   :    0.002152156   -0.002101091    0.004030621
  14   H   :    0.002905275   -0.001360564   -0.003406662

Difference to translation invariance:
           :   -0.0004275088   -0.0000299236    0.0014107316

Norm of the cartesian gradient     ...    0.0480149439
RMS gradient                       ...    0.0074088667
MAX gradient                       ...    0.0334174172

-------
TIMINGS
-------

Total SCF gradient time            ...        8.974 sec

One electron gradient       ....       0.078 sec  (  0.9%)
Prescreening matrices       ....       0.082 sec  (  0.9%)
RI-J Coulomb gradient       ....       0.942 sec  ( 10.5%)
COSX gradient               ....       4.288 sec  ( 47.8%)
XC gradient                 ....       3.219 sec  ( 35.9%)
------------------------------------------------------------------------------
                         ORCA GEOMETRY RELAXATION STEP
------------------------------------------------------------------------------

Reading the OPT-File                    .... done
Getting information on internals        .... done
Copying old internal coords+grads       .... done
Making the new internal coordinates     .... (new redundants).... done
Validating the new internal coordinates .... (new redundants).... done
Calculating the B-matrix                .... done
Calculating the G,G- and P matrices     .... done
Transforming gradient to internals      .... done
Projecting the internal gradient        .... done
Number of atoms                         ....  14
Number of internal coordinates          ....  57
Current Energy                          ....  -759.412994078 Eh
Current gradient norm                   ....     0.048014944 Eh/bohr
Maximum allowed component of the step   ....  0.300
Current trust radius                    ....  0.300
Evaluating the initial hessian          ....  (Almloef) done
Projecting the Hessian                  .... done
Forming the augmented Hessian           .... done
Diagonalizing the augmented Hessian     .... done
Last element of RFO vector              ....  0.995980882
Lowest eigenvalues of augmented Hessian:
 -0.004243614  0.015610102  0.020568167  0.021328564  0.023911309
Length of the computed step             ....  0.089927508
The final length of the internal step   ....  0.089927508
Converting the step to cartesian space:
 Initial RMS(Int)=    0.0119111894
Transforming coordinates:
 Iter   0:  RMS(Cart)=    0.0422580486 RMS(Int)=    1.8595562282
 Iter   1:  RMS(Cart)=    0.0004398207 RMS(Int)=    0.0002238888
 Iter   2:  RMS(Cart)=    0.0000112448 RMS(Int)=    0.0000042755
 Iter   3:  RMS(Cart)=    0.0000006945 RMS(Int)=    0.0000006177
 Iter   4:  RMS(Cart)=    0.0000003327 RMS(Int)=    0.0000003029
 Iter   5:  RMS(Cart)=    0.0000001682 RMS(Int)=    0.0000001532
 Iter   6:  RMS(Cart)=    0.0000000851 RMS(Int)=    0.0000000775
done
Storing new coordinates                 .... done

                                .--------------------.
          ----------------------|Geometry convergence|-------------------------
          Item                value                   Tolerance       Converged
          ---------------------------------------------------------------------
          RMS gradient        0.0071114147            0.0001000000      NO
          MAX gradient        0.0349136735            0.0003000000      NO
          RMS step            0.0119111894            0.0020000000      NO
          MAX step            0.0323265700            0.0040000000      NO
          ........................................................
          Max(Bonds)      0.0171      Max(Angles)    1.64
          Max(Dihed)        0.47      Max(Improp)    0.00
          ---------------------------------------------------------------------

The optimization has not yet converged - more geometry cycles are needed


    ---------------------------------------------------------------------------
                         Redundant Internal Coordinates
                            (Angstroem and degrees)

        Definition                    Value    dE/dq     Step     New-Value
    ----------------------------------------------------------------------------
     1. B(S   1,C   0)                1.7168 -0.005684  0.0056    1.7224   
     2. B(C   2,S   1)                1.7029 -0.005341  0.0051    1.7080   
     3. B(C   3,C   2)                1.3739 -0.012979  0.0104    1.3843   
     4. B(C   4,C   3)                1.4363 -0.015281  0.0155    1.4519   
     5. B(C   4,C   0)                1.3665 -0.011931  0.0093    1.3757   
     6. B(O   5,C   4)                1.3512  0.001365 -0.0011    1.3501   
     7. B(C   6,O   5)                1.4107 -0.006612  0.0067    1.4173   
     8. B(C   7,C   3)                1.4057 -0.019204  0.0171    1.4228   
     9. B(N   8,C   7)                1.1479 -0.034914  0.0135    1.1614   
    10. B(H   9,C   0)                1.0703 -0.012609  0.0171    1.0874   
    11. B(H  10,C   2)                1.0721 -0.012110  0.0165    1.0886   
    12. B(H  11,C   6)                1.0888 -0.006024  0.0087    1.0975   
    13. B(H  12,C   6)                1.0940 -0.004883  0.0072    1.1012   
    14. B(H  13,C   6)                1.0944 -0.004672  0.0069    1.1013   
    15. A(C   4,C   0,H   9)          126.47  0.000094   -0.04    126.43   
    16. A(S   1,C   0,C   4)          112.85  0.002529   -0.34    112.51   
    17. A(S   1,C   0,H   9)          120.68 -0.002623    0.38    121.06   
    18. A(C   0,S   1,C   2)           91.29 -0.005602    0.62     91.91   
    19. A(S   1,C   2,C   3)          112.66  0.001447   -0.19    112.47   
    20. A(S   1,C   2,H  10)          120.71 -0.002039    0.30    121.01   
    21. A(C   3,C   2,H  10)          126.63  0.000592   -0.11    126.52   
    22. A(C   2,C   3,C   4)          111.87  0.002039   -0.21    111.66   
    23. A(C   2,C   3,C   7)          120.46  0.001982   -0.30    120.16   
    24. A(C   4,C   3,C   7)          127.67 -0.004021    0.50    128.17   
    25. A(C   3,C   4,O   5)          128.69 -0.003120    0.38    129.07   
    26. A(C   0,C   4,O   5)          119.98  0.003533   -0.49    119.49   
    27. A(C   0,C   4,C   3)          111.33 -0.000413    0.11    111.44   
    28. A(C   4,O   5,C   6)          118.70 -0.012087    1.64    120.34   
    29. A(H  12,C   6,H  13)          109.22  0.000797   -0.15    109.06   
    30. A(H  11,C   6,H  13)          109.39  0.001465   -0.26    109.13   
    31. A(O   5,C   6,H  13)          111.67 -0.000523    0.10    111.77   
    32. A(H  11,C   6,H  12)          109.39  0.001391   -0.24    109.15   
    33. A(O   5,C   6,H  12)          111.65 -0.000573    0.11    111.76   
    34. A(O   5,C   6,H  11)          105.43 -0.002555    0.45    105.88   
    35. L(C   3,C   7,N   8,C   2, 2) 179.84  0.000045   -0.01    179.83   
    36. L(C   3,C   7,N   8,C   2, 1) 177.27 -0.000562    0.06    177.34   
    37. D(C   2,S   1,C   0,C   4)     -0.12 -0.000140    0.34      0.22   
    38. D(C   2,S   1,C   0,H   9)   -179.94 -0.000050    0.12   -179.83   
    39. D(C   3,C   2,S   1,C   0)      0.12  0.000059   -0.19     -0.07   
    40. D(H  10,C   2,S   1,C   0)   -179.93  0.000096   -0.25   -180.18   
    41. D(C   4,C   3,C   2,H  10)    179.97 -0.000014    0.06    180.04   
    42. D(C   4,C   3,C   2,S   1)     -0.09  0.000025   -0.00     -0.09   
    43. D(C   7,C   3,C   2,S   1)    179.98 -0.000130    0.25    180.23   
    44. D(C   7,C   3,C   2,H  10)      0.04 -0.000169    0.32      0.36   
    45. D(C   0,C   4,C   3,C   7)    179.92  0.000041   -0.02    179.90   
    46. D(C   0,C   4,C   3,C   2)     -0.01 -0.000133    0.26      0.25   
    47. D(O   5,C   4,C   0,H   9)     -0.02  0.000139   -0.23     -0.25   
    48. D(O   5,C   4,C   0,S   1)   -179.83  0.000241   -0.47   -180.30   
    49. D(C   3,C   4,C   0,H   9)    179.90  0.000082   -0.16    179.74   
    50. D(O   5,C   4,C   3,C   2)    179.91 -0.000190    0.33    180.24   
    51. D(C   3,C   4,C   0,S   1)      0.10  0.000184   -0.40     -0.31   
    52. D(O   5,C   4,C   3,C   7)     -0.16 -0.000016    0.06     -0.11   
    53. D(C   6,O   5,C   4,C   3)     -0.10  0.000186   -0.29     -0.39   
    54. D(C   6,O   5,C   4,C   0)    179.81  0.000122   -0.21    179.60   
    55. D(H  13,C   6,O   5,C   4)    -60.82  0.000017   -0.25    -61.06   
    56. D(H  12,C   6,O   5,C   4)     61.78  0.000257   -0.29     61.49   
    57. D(H  11,C   6,O   5,C   4)   -179.53  0.000080   -0.25   -179.78   
    ----------------------------------------------------------------------------

         *************************************************************
         *                GEOMETRY OPTIMIZATION CYCLE   2            *
         *************************************************************
---------------------------------
CARTESIAN COORDINATES (ANGSTROEM)
---------------------------------
  C      1.332246   -1.124955    0.010964
  S      1.899829    0.490940    0.193720
  C      0.318713    1.122425    0.057504
  C     -0.632258    0.133214   -0.125435
  C     -0.031888   -1.188347   -0.155658
  O     -0.626402   -2.389577   -0.318175
  C     -2.031461   -2.476661   -0.482794
  C     -2.005556    0.478534   -0.263762
  N     -3.112568    0.812457   -0.373133
  H      2.020060   -1.966902    0.031880
  H      0.135698    2.193886    0.117320
  H     -2.255647   -3.545783   -0.589129
  H     -2.370382   -1.944935   -1.385639
  H     -2.570494   -2.080076    0.391836

----------------------------
CARTESIAN COORDINATES (A.U.)
----------------------------
  NO LB      ZA    FRAG     MASS         X           Y           Z
   0 C     6.0000    0    12.011    2.517579   -2.125856    0.020720
   1 S    16.0000    0    32.060    3.590157    0.927742    0.366078
   2 C     6.0000    0    12.011    0.602280    2.121076    0.108667
   3 C     6.0000    0    12.011   -1.194795    0.251738   -0.237037
   4 C     6.0000    0    12.011   -0.060259   -2.245651   -0.294152
   5 O     8.0000    0    15.999   -1.183728   -4.515646   -0.601263
   6 C     6.0000    0    12.011   -3.838904   -4.680211   -0.912348
   7 C     6.0000    0    12.011   -3.789952    0.904298   -0.498438
   8 N     7.0000    0    14.007   -5.881901    1.535321   -0.705119
   9 H     1.0000    0     1.008    3.817361   -3.716906    0.060244
  10 H     1.0000    0     1.008    0.256431    4.145844    0.221702
  11 H     1.0000    0     1.008   -4.262554   -6.700559   -1.113293
  12 H     1.0000    0     1.008   -4.479372   -3.675395   -2.618478
  13 H     1.0000    0     1.008   -4.857530   -3.930775    0.740463

--------------------------------
INTERNAL COORDINATES (ANGSTROEM)
--------------------------------
 C      0   0   0     0.000000000000     0.00000000     0.00000000
 S      1   0   0     1.722401471916     0.00000000     0.00000000
 C      2   1   0     1.707997633619    91.91102593     0.00000000
 C      3   2   1     1.384323832107   112.47425906   359.93093572
 C      1   2   3     1.375733207045   112.50925323     0.21956256
 O      5   1   2     1.350115240931   119.48575407   179.70297279
 C      6   5   1     1.417347097273   120.34278542   179.59779942
 C      4   3   2     1.422788389900   120.16400369   180.23188134
 N      8   4   3     1.161439390796   177.33542125     1.90063496
 H      1   2   3     1.087383007223   121.05938621   180.17474903
 H      3   2   1     1.088623555746   121.00675196   179.81414483
 H      7   6   5     1.097537496846   105.87831847   180.21977201
 H      7   6   5     1.101239722441   111.75570000    61.48657157
 H      7   6   5     1.101278444034   111.76801639   298.93845688

---------------------------
INTERNAL COORDINATES (A.U.)
---------------------------
 C      0   0   0     0.000000000000     0.00000000     0.00000000
 S      1   0   0     3.254867074584     0.00000000     0.00000000
 C      2   1   0     3.227647764925    91.91102593     0.00000000
 C      3   2   1     2.615992923342   112.47425906   359.93093572
 C      1   2   3     2.599758994656   112.50925323     0.21956256
 O      5   1   2     2.551348054593   119.48575407   179.70297279
 C      6   5   1     2.678397850555   120.34278542   179.59779942
 C      4   3   2     2.688680403434   120.16400369   180.23188134
 N      8   4   3     2.194802369752   177.33542125     1.90063496
 H      1   2   3     2.054856086332   121.05938621   180.17474903
 H      3   2   1     2.057200383296   121.00675196   179.81414483
 H      7   6   5     2.074045290749   105.87831847   180.21977201
 H      7   6   5     2.081041483209   111.75570000    61.48657157
 H      7   6   5     2.081114656416   111.76801639   298.93845688

 One Electron integrals                  ... done
 Pre-screening matrix                    ... done

Diagonalization of the overlap matrix:
Smallest eigenvalue                        ... 5.080e-04
Time for diagonalization                   ...    0.004 sec
Threshold for overlap eigenvalues          ... 1.000e-08
Number of eigenvalues below threshold      ... 0
Time for construction of square roots      ...    0.001 sec
Total time needed                          ...    0.006 sec

-------------------
DFT GRID GENERATION
-------------------

General Integration Accuracy     IntAcc      ...  4.340
Radial Grid Type                 RadialGrid  ... Gauss-Chebyshev
Angular Grid (max. acc.)         AngularGrid ... Lebedev-110
Angular grid pruning method      GridPruning ... 3 (G Style)
Weight generation scheme         WeightScheme... Becke
Basis function cutoff            BFCut       ...    1.0000e-11
Integration weight cutoff        WCut        ...    1.0000e-14
Grids for H and He will be reduced by one unit

# of grid points (after initial pruning)     ...  19130 (   0.0 sec)
# of grid points (after weights+screening)   ...  17891 (   0.0 sec)
nearest neighbour list constructed           ...    0.0 sec
Grid point re-assignment to atoms done       ...    0.0 sec
Grid point division into batches done        ...    0.0 sec
Reduced shell lists constructed in    0.1 sec

Total number of grid points                  ...    17891
Total number of batches                      ...      285
Average number of points per batch           ...       62
Average number of grid points per atom       ...     1278
Average number of shells per batch           ...    49.16 (69.24%)
Average number of basis functions per batch  ...   107.23 (69.18%)
Average number of large shells per batch     ...    38.67 (78.66%)
Average number of large basis fcns per batch ...    82.88 (77.30%)
Maximum spatial batch extension              ...  21.10, 18.88, 24.36 au
Average spatial batch extension              ...   3.87,  3.60,  4.38 au

Time for grid setup =    0.149 sec

--------------------
COSX GRID GENERATION
--------------------

General Integration Accuracy     IntAcc      ...  3.340
Radial Grid Type                 RadialGrid  ... Gauss-Chebyshev
Angular Grid (max. acc.)         AngularGrid ... Lebedev-50
Angular grid pruning method      GridPruning ... 3 (G Style)
Weight generation scheme         WeightScheme... Becke
Basis function cutoff            BFCut       ...    1.0000e-11
Integration weight cutoff        WCut        ...    1.0000e-14
Grids for H and He will be reduced by one unit

# of grid points (after initial pruning)     ...   6932 (   0.0 sec)
# of grid points (after weights+screening)   ...   6560 (   0.0 sec)
nearest neighbour list constructed           ...    0.0 sec
Grid point re-assignment to atoms done       ...    0.0 sec
Grid point division into batches done        ...    0.0 sec
Reduced shell lists constructed in    0.0 sec

Total number of grid points                  ...     6560
Total number of batches                      ...      110
Average number of points per batch           ...       59
Average number of grid points per atom       ...      469
Average number of shells per batch           ...    52.79 (74.36%)
Average number of basis functions per batch  ...   115.93 (74.79%)
Average number of large shells per batch     ...    42.12 (79.78%)
Average number of large basis fcns per batch ...    90.64 (78.19%)
Maximum spatial batch extension              ...  19.15, 15.10, 27.23 au
Average spatial batch extension              ...   5.05,  4.37,  5.78 au

Overlap Fitting                  UseSFitting ... on
Constructing numerical overlap ... done (      0.0 sec)
Inverting numerical overlap    ... done (      0.0 sec)
Obtaining analytic overlap     ... done (      0.0 sec)
Final contraction and storage  ... done (      0.0 sec)


General Integration Accuracy     IntAcc      ...  3.670
Radial Grid Type                 RadialGrid  ... Gauss-Chebyshev
Angular Grid (max. acc.)         AngularGrid ... Lebedev-50
Angular grid pruning method      GridPruning ... 3 (G Style)
Weight generation scheme         WeightScheme... Becke
Basis function cutoff            BFCut       ...    1.0000e-11
Integration weight cutoff        WCut        ...    1.0000e-14
Grids for H and He will be reduced by one unit

# of grid points (after initial pruning)     ...   8722 (   0.0 sec)
# of grid points (after weights+screening)   ...   8240 (   0.0 sec)
nearest neighbour list constructed           ...    0.0 sec
Grid point re-assignment to atoms done       ...    0.0 sec
Grid point division into batches done        ...    0.0 sec
Reduced shell lists constructed in    0.0 sec

Total number of grid points                  ...     8240
Total number of batches                      ...      136
Average number of points per batch           ...       60
Average number of grid points per atom       ...      589
Average number of shells per batch           ...    51.74 (72.88%)
Average number of basis functions per batch  ...   113.35 (73.13%)
Average number of large shells per batch     ...    40.92 (79.08%)
Average number of large basis fcns per batch ...    87.77 (77.43%)
Maximum spatial batch extension              ...  20.61, 16.29, 27.71 au
Average spatial batch extension              ...   4.69,  4.17,  5.28 au

Overlap Fitting                  UseSFitting ... on
Constructing numerical overlap ... done (      0.0 sec)
Inverting numerical overlap    ... done (      0.0 sec)
[...]
  56   0.0000       0.428517        11.6605 
  57   0.0000       0.438641        11.9360 
  58   0.0000       0.442528        12.0418 
  59   0.0000       0.457830        12.4582 
  60   0.0000       0.470876        12.8132 
  61   0.0000       0.485110        13.2005 
  62   0.0000       0.495408        13.4807 
  63   0.0000       0.529227        14.4010 
  64   0.0000       0.536117        14.5885 
  65   0.0000       0.570452        15.5228 
  66   0.0000       0.573103        15.5949 
  67   0.0000       0.595250        16.1976 
  68   0.0000       0.598656        16.2903 
  69   0.0000       0.618049        16.8180 
  70   0.0000       0.625528        17.0215 
  71   0.0000       0.628776        17.1099 
  72   0.0000       0.639630        17.4052 
  73   0.0000       0.652507        17.7556 
  74   0.0000       0.654961        17.8224 
  75   0.0000       0.671905        18.2835 
  76   0.0000       0.676853        18.4181 
  77   0.0000       0.690219        18.7818 
  78   0.0000       0.713489        19.4150 
  79   0.0000       0.723908        19.6985 
  80   0.0000       0.733963        19.9721 
  81   0.0000       0.759757        20.6740 
  82   0.0000       0.776435        21.1279 
  83   0.0000       0.803600        21.8671 
  84   0.0000       0.834502        22.7080 
  85   0.0000       0.872454        23.7407 
  86   0.0000       0.902524        24.5589 
  87   0.0000       0.933550        25.4032 
  88   0.0000       0.955055        25.9884 
  89   0.0000       1.022340        27.8193 
  90   0.0000       1.030433        28.0395 
  91   0.0000       1.032773        28.1032 
  92   0.0000       1.072702        29.1897 
  93   0.0000       1.101315        29.9683 
  94   0.0000       1.139457        31.0062 
  95   0.0000       1.190971        32.4080 
  96   0.0000       1.198296        32.6073 
  97   0.0000       1.213477        33.0204 
  98   0.0000       1.219419        33.1821 
  99   0.0000       1.222878        33.2762 
 100   0.0000       1.294260        35.2186 
 101   0.0000       1.346701        36.6456 
 102   0.0000       1.395668        37.9781 
 103   0.0000       1.501825        40.8667 
 104   0.0000       1.506505        40.9941 
 105   0.0000       1.531084        41.6629 
 106   0.0000       1.578552        42.9546 
 107   0.0000       1.580899        43.0185 
 108   0.0000       1.620560        44.0977 
 109   0.0000       1.650235        44.9052 
 110   0.0000       1.697809        46.1997 
 111   0.0000       1.728337        47.0304 
 112   0.0000       1.742516        47.4163 
 113   0.0000       1.767090        48.0850 
 114   0.0000       1.788031        48.6548 
 115   0.0000       1.796696        48.8906 
 116   0.0000       1.819169        49.5021 
 117   0.0000       1.842431        50.1351 
 118   0.0000       1.862556        50.6827 
 119   0.0000       1.879806        51.1521 
 120   0.0000       1.889945        51.4280 
 121   0.0000       1.926388        52.4197 
 122   0.0000       1.982069        53.9348 
 123   0.0000       2.006374        54.5962 
 124   0.0000       2.030226        55.2452 
 125   0.0000       2.105797        57.3016 
 126   0.0000       2.135896        58.1207 
 127   0.0000       2.180698        59.3398 
 128   0.0000       2.216970        60.3268 
 129   0.0000       2.217435        60.3395 
 130   0.0000       2.262649        61.5698 
 131   0.0000       2.270567        61.7853 
 132   0.0000       2.286203        62.2108 
 133   0.0000       2.304891        62.7193 
 134   0.0000       2.315789        63.0158 
 135   0.0000       2.355684        64.1014 
 136   0.0000       2.406043        65.4718 
 137   0.0000       2.408208        65.5307 
 138   0.0000       2.593755        70.5797 
 139   0.0000       2.615647        71.1754 
 140   0.0000       2.651634        72.1546 
 141   0.0000       2.659928        72.3803 
 142   0.0000       2.787775        75.8592 
 143   0.0000       2.831432        77.0472 
 144   0.0000       2.851971        77.6061 
 145   0.0000       2.859558        77.8125 
 146   0.0000       2.920951        79.4831 
 147   0.0000       2.990602        81.3784 
 148   0.0000       3.060376        83.2771 
 149   0.0000       3.082628        83.8826 
 150   0.0000       3.088119        84.0320 
 151   0.0000       3.186610        86.7121 
 152   0.0000       3.447682        93.8162 
 153   0.0000       3.487967        94.9124 
 154   0.0000       3.621398        98.5432 

                    ********************************
                    * MULLIKEN POPULATION ANALYSIS *
                    ********************************

-----------------------
MULLIKEN ATOMIC CHARGES
-----------------------
   0 C :   -0.178012
   1 S :    0.146136
   2 C :   -0.064050
   3 C :   -0.176463
   4 C :    0.296796
   5 O :   -0.305206
   6 C :    0.184513
   7 C :   -0.156219
   8 N :    0.068266
   9 H :    0.029447
  10 H :    0.044105
  11 H :    0.033712
  12 H :    0.037885
  13 H :    0.039091
Sum of atomic charges:   -0.0000000

--------------------------------
MULLIKEN REDUCED ORBITAL CHARGES
--------------------------------
  0 C s       :     3.218511  s :     3.218511
      pz      :     1.175308  p :     2.927040
      px      :     0.953986
      py      :     0.797746
      dz2     :     0.003295  d :     0.032460
      dxz     :     0.005623
      dyz     :     0.003796
      dx2y2   :     0.010568
      dxy     :     0.009177
  1 S s       :     5.836914  s :     5.836914
      pz      :     3.610071  p :     9.897220
      px      :     3.257178
      py      :     3.029971
      dz2     :     0.012817  d :     0.119730
      dxz     :     0.014289
      dyz     :     0.025877
      dx2y2   :     0.035561
      dxy     :     0.031187
  2 C s       :     3.210964  s :     3.210964
      pz      :     1.066484  p :     2.817150
      px      :     0.866601
      py      :     0.884065
      dz2     :     0.003402  d :     0.035935
      dxz     :     0.007446
      dyz     :     0.003580
      dx2y2   :     0.011460
      dxy     :     0.010047
  3 C s       :     3.062757  s :     3.062757
      pz      :     1.126422  p :     3.071416
      px      :     0.959363
      py      :     0.985630
      dz2     :     0.003680  d :     0.042291
      dxz     :     0.005752
      dyz     :     0.006999
      dx2y2   :     0.012811
      dxy     :     0.013050
  4 C s       :     2.946449  s :     2.946449
      pz      :     0.981420  p :     2.680013
      px      :     0.892193
      py      :     0.806400
      dz2     :     0.006148  d :     0.076742
      dxz     :     0.010980
      dyz     :     0.015297
      dx2y2   :     0.022812
      dxy     :     0.021506
  5 O s       :     3.719280  s :     3.719280
      pz      :     1.782092  p :     4.568908
      px      :     1.314472
      py      :     1.472344
      dz2     :     0.002339  d :     0.017018
      dxz     :     0.002153
      dyz     :     0.002581
      dx2y2   :     0.006274
      dxy     :     0.003670
  6 C s       :     3.010635  s :     3.010635
      pz      :     1.032945  p :     2.752025
      px      :     0.686334
      py      :     1.032746
      dz2     :     0.008453  d :     0.052828
      dxz     :     0.014170
      dyz     :     0.004710
      dx2y2   :     0.017039
      dxy     :     0.008455
  7 C s       :     3.112076  s :     3.112076
      pz      :     0.956674  p :     2.997399
      px      :     1.048338
      py      :     0.992387
      dz2     :     0.003769  d :     0.046745
      dxz     :     0.017415
      dyz     :     0.001373
      dx2y2   :     0.011005
      dxy     :     0.013182
  8 N s       :     3.527872  s :     3.527872
      pz      :     1.077844  p :     3.372237
      px      :     1.249519
      py      :     1.044874
      dz2     :     0.003076  d :     0.031625
      dxz     :     0.008980
      dyz     :     0.000828
      dx2y2   :     0.009094
      dxy     :     0.009646
  9 H s       :     0.946780  s :     0.946780
      pz      :     0.005636  p :     0.023772
      px      :     0.007834
      py      :     0.010302
 10 H s       :     0.932403  s :     0.932403
      pz      :     0.005165  p :     0.023493
      px      :     0.003141
      py      :     0.015187
 11 H s       :     0.944667  s :     0.944667
      pz      :     0.005140  p :     0.021621
      px      :     0.002295
      py      :     0.014186
 12 H s       :     0.939512  s :     0.939512
      pz      :     0.011556  p :     0.022604
      px      :     0.003675
      py      :     0.007373
 13 H s       :     0.938380  s :     0.938380
      pz      :     0.010958  p :     0.022529
      px      :     0.005288
      py      :     0.006283


                     *******************************
                     * LOEWDIN POPULATION ANALYSIS *
                     *******************************

----------------------
LOEWDIN ATOMIC CHARGES
----------------------
   0 C :   -0.230506
   1 S :    0.475191
   2 C :   -0.158925
   3 C :   -0.138232
   4 C :    0.029855
   5 O :   -0.096152
   6 C :    0.086746
   7 C :   -0.033093
   8 N :   -0.076826
   9 H :    0.032374
  10 H :    0.037430
  11 H :    0.029342
  12 H :    0.021285
  13 H :    0.021509

-------------------------------
LOEWDIN REDUCED ORBITAL CHARGES
-------------------------------
  0 C s       :     2.927569  s :     2.927569
      pz      :     1.164200  p :     3.224313
      px      :     1.060443
      py      :     0.999670
      dz2     :     0.006845  d :     0.078624
      dxz     :     0.011161
      dyz     :     0.007247
      dx2y2   :     0.028530
      dxy     :     0.024841
  1 S s       :     5.493959  s :     5.493959
      pz      :     3.561856  p :     9.884182
      px      :     3.286009
      py      :     3.036317
      dz2     :     0.016200  d :     0.146667
      dxz     :     0.014637
      dyz     :     0.031657
      dx2y2   :     0.045339
      dxy     :     0.038835
  2 C s       :     2.928330  s :     2.928330
      pz      :     1.067956  p :     3.145573
      px      :     1.014170
      py      :     1.063447
      dz2     :     0.006787  d :     0.085022
      dxz     :     0.015651
      dyz     :     0.006310
      dx2y2   :     0.029571
      dxy     :     0.026703
  3 C s       :     2.848929  s :     2.848929
      pz      :     1.089896  p :     3.176856
      px      :     1.032735
      py      :     1.054225
      dz2     :     0.009161  d :     0.112447
      dxz     :     0.012257
      dyz     :     0.014447
      dx2y2   :     0.037157
      dxy     :     0.039426
  4 C s       :     2.838926  s :     2.838926
      pz      :     0.989571  p :     2.951781
      px      :     1.037285
      py      :     0.924925
      dz2     :     0.013340  d :     0.179438
      dxz     :     0.022627
      dyz     :     0.030562
      dx2y2   :     0.060648
      dxy     :     0.052260
  5 O s       :     3.424099  s :     3.424099
      pz      :     1.767845  p :     4.640216
      px      :     1.360405
      py      :     1.511967
      dz2     :     0.003896  d :     0.031837
      dxz     :     0.003791
      dyz     :     0.003768
      dx2y2   :     0.012509
      dxy     :     0.007873
  6 C s       :     2.847837  s :     2.847837
      pz      :     1.080853  p :     2.944561
      px      :     0.778710
      py      :     1.084998
      dz2     :     0.019179  d :     0.120856
      dxz     :     0.033411
      dyz     :     0.011635
      dx2y2   :     0.038583
      dxy     :     0.018047
  7 C s       :     2.907831  s :     2.907831
      pz      :     0.941084  p :     3.013338
      px      :     1.131997
      py      :     0.940257
      dz2     :     0.010902  d :     0.111924
      dxz     :     0.036423
      dyz     :     0.002874
      dx2y2   :     0.030899
      dxy     :     0.030825
  8 N s       :     3.425709  s :     3.425709
      pz      :     1.088986  p :     3.597647
      px      :     1.437238
      py      :     1.071423
      dz2     :     0.006457  d :     0.053470
      dxz     :     0.012798
      dyz     :     0.001174
      dx2y2   :     0.017613
      dxy     :     0.015430
  9 H s       :     0.892041  s :     0.892041
      pz      :     0.019238  p :     0.075585
      px      :     0.022867
      py      :     0.033480
 10 H s       :     0.888543  s :     0.888543
      pz      :     0.016736  p :     0.074026
      px      :     0.011979
      py      :     0.045311
 11 H s       :     0.908191  s :     0.908191
      pz      :     0.012670  p :     0.062467
      px      :     0.008283
      py      :     0.041514
 12 H s       :     0.913380  s :     0.913380
      pz      :     0.033712  p :     0.065336
      px      :     0.011783
      py      :     0.019840
 13 H s       :     0.913319  s :     0.913319
      pz      :     0.032066  p :     0.065172
      px      :     0.016894
      py      :     0.016213


                      *****************************
                      * MAYER POPULATION ANALYSIS *
                      *****************************

  NA   - Mulliken gross atomic population
  ZA   - Total nuclear charge
  QA   - Mulliken gross atomic charge
  VA   - Mayer's total valence
  BVA  - Mayer's bonded valence
  FA   - Mayer's free valence

  ATOM       NA         ZA         QA         VA         BVA        FA
  0 C      6.1780     6.0000    -0.1780     3.7942     3.7942     0.0000
  1 S     15.8539    16.0000     0.1461     2.5717     2.5717    -0.0000
  2 C      6.0640     6.0000    -0.0640     3.8367     3.8367    -0.0000
  3 C      6.1765     6.0000    -0.1765     4.0080     4.0080    -0.0000
  4 C      5.7032     6.0000     0.2968     4.0219     4.0219     0.0000
  5 O      8.3052     8.0000    -0.3052     2.2308     2.2308     0.0000
  6 C      5.8155     6.0000     0.1845     3.8951     3.8951    -0.0000
  7 C      6.1562     6.0000    -0.1562     4.1384     4.1384    -0.0000
  8 N      6.9317     7.0000     0.0683     3.1281     3.1281    -0.0000
  9 H      0.9706     1.0000     0.0294     1.0055     1.0055     0.0000
 10 H      0.9559     1.0000     0.0441     0.9979     0.9979    -0.0000
 11 H      0.9663     1.0000     0.0337     0.9876     0.9876    -0.0000
 12 H      0.9621     1.0000     0.0379     0.9921     0.9921    -0.0000
 13 H      0.9609     1.0000     0.0391     0.9914     0.9914    -0.0000

  Mayer bond orders larger than 0.100000
B(  0-C ,  1-S ) :   1.1498 B(  0-C ,  4-C ) :   1.5009 B(  0-C ,  9-H ) :   0.9570 
B(  1-S ,  2-C ) :   1.2195 B(  1-S ,  3-C ) :   0.1198 B(  2-C ,  3-C ) :   1.4867 
B(  2-C , 10-H ) :   0.9692 B(  3-C ,  4-C ) :   1.1865 B(  3-C ,  7-C ) :   1.1388 
B(  4-C ,  5-O ) :   1.1880 B(  5-O ,  6-C ) :   0.9332 B(  6-C , 11-H ) :   0.9734 
B(  6-C , 12-H ) :   0.9659 B(  6-C , 13-H ) :   0.9663 B(  7-C ,  8-N ) :   2.9680 


-------
TIMINGS
-------

Total SCF time: 0 days 0 hours 0 min 23 sec 

Total time                  ....      23.183 sec
Sum of individual times     ....      23.063 sec  ( 99.5%)

Fock matrix formation       ....      21.671 sec  ( 93.5%)
  Split-RI-J                ....       2.199 sec  ( 10.1% of F)
  Chain of spheres X        ....      17.344 sec  ( 80.0% of F)
  COS-X 1 center corr.      ....       0.000 sec  (  0.0% of F)
  XC integration            ....       2.080 sec  (  9.6% of F)
    Basis function eval.    ....       0.816 sec  ( 39.2% of XC)
    Density eval.           ....       0.438 sec  ( 21.0% of XC)
    XC-Functional eval.     ....       0.180 sec  (  8.7% of XC)
    XC-Potential eval.      ....       0.564 sec  ( 27.1% of XC)
Diagonalization             ....       0.003 sec  (  0.0%)
Density matrix formation    ....       0.003 sec  (  0.0%)
Population analysis         ....       0.003 sec  (  0.0%)
Initial guess               ....       0.004 sec  (  0.0%)
Orbital Transformation      ....       0.000 sec  (  0.0%)
Orbital Orthonormalization  ....       0.002 sec  (  0.0%)
DIIS solution               ....       0.001 sec  (  0.0%)
SOSCF solution              ....       0.013 sec  (  0.1%)
Grid generation             ....       1.365 sec  (  5.9%)


-------------------------------------------------------------------------------
                          DFT DISPERSION CORRECTION                            
                                                                               
                              DFTD3 V3.1  Rev 1                                
                          USING Becke-Johnson damping                          
-------------------------------------------------------------------------------
Gaussians B3LYP functional is recognized, using regular B3LYP params
Active option DFTDOPT                   ...         4   

molecular C6(AA) [au] = 3274.514581 


            DFT-D V3
 parameters
 s6 scaling factor         :     1.0000 
 a1 scaling factor         :     0.3981 
 s8 scaling factor         :     1.9889 
 a2 scaling factor         :     4.4211 
 ad hoc parameters k1-k3   :    16.0000     1.3333    -4.0000 

 Edisp/kcal,au: -17.314952057785  -0.027593129549 
 E6   /kcal   :  -7.712094204 
 E8   /kcal   :  -9.602857854 
 % E8         :  55.459915926 

-------------------------   ----------------
Dispersion correction           -0.027593130
-------------------------   ----------------


-------------------------   --------------------
FINAL SINGLE POINT ENERGY      -759.415376402482
-------------------------   --------------------

                                *** OPTIMIZATION RUN DONE ***

                            ***************************************
                            *     ORCA property calculations      *
                            ***************************************

                                    ---------------------
                                    Active property flags
                                    ---------------------
   (+) Dipole Moment


------------------------------------------------------------------------------
                       ORCA ELECTRIC PROPERTIES CALCULATION
------------------------------------------------------------------------------

Dipole Moment Calculation                       ... on
Quadrupole Moment Calculation                   ... off
Polarizability Calculation                      ... off
GBWName                                         ... 329.gbw
Electron density file                           ... 329.scfp
The origin for moment calculation is the CENTER OF MASS  = (-0.464712, -0.754128 -0.232921)

-------------
DIPOLE MOMENT
-------------
                                X             Y             Z
Electronic contribution:      4.59383       4.65508       0.86277
Nuclear contribution   :     -3.67174      -5.03818      -0.77030
                        -----------------------------------------
Total Dipole Moment    :      0.92209      -0.38310       0.09248
                        -----------------------------------------
Magnitude (a.u.)       :      1.00278
Magnitude (Debye)      :      2.54886



--------------------
Rotational spectrum 
--------------------
 
Rotational constants in cm-1:     0.075690     0.039778     0.026206 
Rotational constants in MHz :  2269.117785  1192.509068   785.637301 

 Dipole components along the rotational axes: 
x,y,z [a.u.] :     0.769155     0.643300     0.011468 
x,y,z [Debye]:     1.955036     1.635138     0.029150 

 

Timings for individual modules:

Sum of individual times         ...      310.988 sec (=   5.183 min)
GTO integral calculation        ...        1.459 sec (=   0.024 min)   0.5 %
SCF iterations                  ...      246.063 sec (=   4.101 min)  79.1 %
SCF Gradient evaluation         ...       63.070 sec (=   1.051 min)  20.3 %
Geometry relaxation             ...        0.396 sec (=   0.007 min)   0.1 %
                             ****ORCA TERMINATED NORMALLY****
TOTAL RUN TIME: 0 days 0 hours 5 minutes 11 seconds 721 msec
