
                                 *****************
                                 * O   R   C   A *
                                 *****************

           --- An Ab Initio, DFT and Semiempirical electronic structure package ---

                  #######################################################
                  #                        -***-                        #
                  #          Department of theory and spectroscopy      #
                  #               Directorship: Frank Neese             #
                  #        Max Planck Institute fuer Kohlenforschung    #
                  #                Kaiser Wilhelm Platz 1               #
                  #                 D-45470 Muelheim/Ruhr               #
                  #                      Germany                        #
                  #                                                     #
                  #                  All rights reserved                #
                  #                        -***-                        #
                  #######################################################


                         Program Version 4.2.0 -  RELEASE  -


 With contributions from (in alphabetic order):
   Daniel Aravena         : Magnetic Suceptibility
   Michael Atanasov       : Ab Initio Ligand Field Theory (pilot matlab implementation)
   Alexander A. Auer      : GIAO ZORA, VPT2
   Ute Becker             : Parallelization
   Giovanni Bistoni       : ED, misc. LED, open-shell LED, HFLED
   Martin Brehm           : Molecular dynamics
   Dmytro Bykov           : SCF Hessian
   Vijay G. Chilkuri      : MRCI spin determinant printing, contributions to CSF-ICE
   Dipayan Datta          : RHF DLPNO-CCSD density
   Achintya Kumar Dutta   : EOM-CC, STEOM-CC
   Dmitry Ganyushin       : Spin-Orbit,Spin-Spin,Magnetic field MRCI
   Miquel Garcia          : C-PCM Hessian, Gaussian charge scheme
   Yang Guo               : DLPNO-NEVPT2, CIM, IAO-localization
   Andreas Hansen         : Spin unrestricted coupled pair/coupled cluster methods
   Benjamin Helmich-Paris : CASSCF linear response (MC-RPA)
   Lee Huntington         : MR-EOM, pCC
   Robert Izsak           : Overlap fitted RIJCOSX, COSX-SCS-MP3, EOM
   Christian Kollmar      : KDIIS, OOCD, Brueckner-CCSD(T), CCSD density
   Simone Kossmann        : Meta GGA functionals, TD-DFT gradient, OOMP2, MP2 Hessian
   Martin Krupicka        : AUTO-CI
   Lucas Lang             : DCDCAS
   Dagmar Lenk            : GEPOL surface, SMD
   Dimitrios Liakos       : Extrapolation schemes; Compound Job, initial MDCI parallelization
   Dimitrios Manganas     : Further ROCIS development; embedding schemes
   Dimitrios Pantazis     : SARC Basis sets
   Taras Petrenko         : DFT Hessian,TD-DFT gradient, ASA, ECA, R-Raman, ABS, FL, XAS/XES, NRVS
   Peter Pinski           : DLPNO-MP2, DLPNO-MP2 Gradient
   Christoph Reimann      : Effective Core Potentials
   Marius Retegan         : Local ZFS, SOC
   Christoph Riplinger    : Optimizer, TS searches, QM/MM, DLPNO-CCSD(T), (RO)-DLPNO pert. Triples
   Tobias Risthaus        : Range-separated hybrids, TD-DFT gradient, RPA, STAB
   Michael Roemelt        : Original ROCIS implementation
   Masaaki Saitow         : Open-shell DLPNO-CCSD energy and density
   Barbara Sandhoefer     : DKH picture change effects
   Avijit Sen             : IP-ROCIS
   Kantharuban Sivalingam : CASSCF convergence, NEVPT2, FIC-MRCI
   Bernardo de Souza      : ESD, SOC TD-DFT
   Georgi Stoychev        : AutoAux, RI-MP2 NMR
   Willem Van den Heuvel  : Paramagnetic NMR
   Boris Wezisla          : Elementary symmetry handling
   Frank Wennmohs         : Technical directorship


 We gratefully acknowledge several colleagues who have allowed us to
 interface, adapt or use parts of their codes:
   Stefan Grimme, W. Hujo, H. Kruse,             : VdW corrections, initial TS optimization,
                  C. Bannwarth                     DFT functionals, gCP, sTDA/sTD-DF
   Ed Valeev, F. Pavosevic, A. Kumar             : LibInt (2-el integral package), F12 methods
   Garnet Chan, S. Sharma, J. Yang, R. Olivares  : DMRG
   Ulf Ekstrom                                   : XCFun DFT Library
   Mihaly Kallay                                 : mrcc  (arbitrary order and MRCC methods)
   Andreas Klamt, Michael Diedenhofen            : otool_cosmo (COSMO solvation model)
   Jiri Pittner, Ondrej Demel                    : Mk-CCSD
   Frank Weinhold                                : gennbo (NPA and NBO analysis)
   Christopher J. Cramer and Donald G. Truhlar   : smd solvation model
   Lars Goerigk                                  : TD-DFT with DH, B97 family of functionals
   V. Asgeirsson, H. Jonsson                     : NEB implementation
   FAccTs GmbH                                   : IRC, NEB, NEB-TS, Multilevel, MM, QM/MM, CI optimization
   S Lehtola, MJT Oliveira, MAL Marques          : LibXC Library


 Your calculation uses the libint2 library for the computation of 2-el integrals
 For citations please refer to: http://libint.valeyev.net

 Your ORCA version has been built with support for libXC version: 4.2.3
 For citations please refer to: https://tddft.org/programs/libxc/

 This ORCA versions uses:
   CBLAS   interface :  Fast vector & matrix operations
   LAPACKE interface :  Fast linear algebra routines
   SCALAPACK package :  Parallel linear algebra routines


Your calculation utilizes the atom-pairwise dispersion correction
with the Becke-Johnson damping scheme (D3BJ)
Cite in your paper:
S.Grimme, S.Ehrlich, L.Goerigk, J Comput Chem, (2011), 32, 1456–1465 
S.Grimme, J.Antony, S.Ehrlich and H.Krieg, J.Chem.Phys., 132, (2010), 154104 
   

----- Orbital basis set information -----
Your calculation utilizes the basis: def2-SVP
   F. Weigend and R. Ahlrichs, Phys. Chem. Chem. Phys. 7, 3297 (2005).

----- AuxJ basis set information -----
Your calculation utilizes the auxiliary basis: def2/J
   F. Weigend, Phys. Chem. Chem. Phys. 8, 1057 (2006).

================================================================================
                                        WARNINGS
                       Please study these warnings very carefully!
================================================================================


WARNING: Geometry Optimization
  ===> : Switching off AutoStart
         For restart on a previous wavefunction, please use MOREAD

INFO   : the flag for use of LIBINT has been found!

================================================================================
                                       INPUT FILE
================================================================================
NAME = 391.inp
|  1> # ORCA input file
|  2> # SCF done        -21.347375110678          0.000412508216
|  3> ! B3LYP/G D3BJ Opt RIJCOSX def2-SVP def2/J
|  4> * xyz 0 1
|  5>    C       -1.36853        -1.21100         0.00144
|  6>    S       -2.49563         0.09307         0.00144
|  7>    C       -1.24760         1.27645         0.00100
|  8>    C       -0.01159         0.69711         0.00073
|  9>    C       -0.09753        -0.73518         0.00092
| 10>    S        1.48057        -1.47030        -0.00017
| 11>    C        2.21671         0.11446         0.00042
| 12>    C        1.34704         1.14147         0.00014
| 13>    H       -1.71701        -2.22298         0.00154
| 14>    H       -1.50390         2.31627         0.00085
| 15>    H        3.28876         0.16327         0.00019
| 16>    H        1.63453         2.17705        -0.00031
| 17> *
| 18> 
| 19>                          ****END OF INPUT****
================================================================================

                       *****************************
                       * Geometry Optimization Run *
                       *****************************

Geometry optimization settings:
Update method            Update   .... BFGS
Choice of coordinates    CoordSys .... Z-matrix Internals
Initial Hessian          InHess   .... Almoef's Model

Convergence Tolerances:
Energy Change            TolE     ....  5.0000e-06 Eh
Max. Gradient            TolMAXG  ....  3.0000e-04 Eh/bohr
RMS Gradient             TolRMSG  ....  1.0000e-04 Eh/bohr
Max. Displacement        TolMAXD  ....  4.0000e-03 bohr
RMS Displacement         TolRMSD  ....  2.0000e-03 bohr
Strict Convergence                ....  False
------------------------------------------------------------------------------
                        ORCA OPTIMIZATION COORDINATE SETUP
------------------------------------------------------------------------------

The optimization will be done in new redundant internal coordinates
Making redundant internal coordinates   ...  (new redundants) done
Evaluating the initial hessian          ...  (Almloef) done
Evaluating the coordinates              ...  done
Calculating the B-matrix                .... done
Calculating the G-matrix                .... done
Diagonalizing the G-matrix              .... done
The first mode is                       ....   31
The number of degrees of freedom        ....   30

    -----------------------------------------------------------------
                    Redundant Internal Coordinates


    -----------------------------------------------------------------
         Definition                    Initial Value    Approx d2E/dq
    -----------------------------------------------------------------
      1. B(S   1,C   0)                  1.7236         0.494535   
      2. B(C   2,S   1)                  1.7199         0.501433   
      3. B(C   3,C   2)                  1.3650         0.684775   
      4. B(C   4,C   3)                  1.4349         0.529856   
      5. B(C   4,C   0)                  1.3571         0.704944   
      6. B(S   5,C   4)                  1.7409         0.464126   
      7. B(C   6,S   5)                  1.7474         0.453227   
      8. B(C   7,C   6)                  1.3458         0.735051   
      9. B(C   7,C   3)                  1.4295         0.540501   
     10. B(H   8,C   0)                  1.0703         0.387127   
     11. B(H   9,C   2)                  1.0709         0.386216   
     12. B(H  10,C   6)                  1.0732         0.383080   
     13. B(H  11,C   7)                  1.0747         0.380857   
     14. A(S   1,C   0,H   8)          120.1620         0.361778   
     15. A(C   4,C   0,H   8)          129.5256         0.365178   
     16. A(S   1,C   0,C   4)          110.3124         0.450214   
     17. A(C   0,S   1,C   2)           92.6402         0.446887   
     18. A(S   1,C   2,H   9)          119.6304         0.362489   
     19. A(C   3,C   2,H   9)          128.9599         0.363223   
     20. A(S   1,C   2,C   3)          111.4098         0.448975   
     21. A(C   2,C   3,C   7)          136.7756         0.431122   
     22. A(C   4,C   3,C   7)          111.5448         0.411827   
     23. A(C   2,C   3,C   4)          111.6796         0.429586   
     24. A(C   3,C   4,S   5)          111.5436         0.422781   
     25. A(C   0,C   4,S   5)          134.4985         0.445063   
     26. A(C   0,C   4,C   3)          113.9580         0.431831   
     27. A(C   4,S   5,C   6)           89.9381         0.433804   
     28. A(S   5,C   6,C   7)          114.8267         0.446521   
     29. A(C   7,C   6,H  10)          127.6510         0.367142   
     30. A(S   5,C   6,H  10)          117.5223         0.355810   
     31. A(C   3,C   7,C   6)          112.1468         0.436653   
     32. A(C   6,C   7,H  11)          124.2268         0.366776   
     33. A(C   3,C   7,H  11)          123.6264         0.348104   
     34. D(C   2,S   1,C   0,H   8)   -179.9915         0.005121   
     35. D(C   2,S   1,C   0,C   4)     -0.0087         0.005121   
     36. D(C   3,C   2,S   1,C   0)      0.0057         0.005228   
     37. D(H   9,C   2,S   1,C   0)    179.9984         0.005228   
     38. D(C   4,C   3,C   2,H   9)   -179.9932         0.032907   
     39. D(C   7,C   3,C   2,S   1)    179.9888         0.032907   
     40. D(C   7,C   3,C   2,H   9)     -0.0030         0.032907   
     41. D(C   4,C   3,C   2,S   1)     -0.0014         0.032907   
     42. D(C   0,C   4,C   3,C   7)   -179.9982         0.019163   
     43. D(S   5,C   4,C   0,H   8)      0.0175         0.035042   
     44. D(S   5,C   4,C   0,S   1)   -179.9632         0.035042   
     45. D(C   3,C   4,C   0,H   8)    179.9903         0.035042   
     46. D(C   3,C   4,C   0,S   1)      0.0096         0.035042   
     47. D(S   5,C   4,C   3,C   2)    179.9736         0.019163   
     48. D(S   5,C   4,C   3,C   7)     -0.0191         0.019163   
     49. D(C   0,C   4,C   3,C   2)     -0.0054         0.019163   
     50. D(C   6,S   5,C   4,C   3)      0.0416         0.004670   
     51. D(C   6,S   5,C   4,C   0)   -179.9852         0.004670   
     52. D(H  10,C   6,S   5,C   4)    179.9881         0.004517   
     53. D(C   7,C   6,S   5,C   4)     -0.0579         0.004517   
     54. D(H  11,C   7,C   6,H  10)     -0.0038         0.038385   
     55. D(C   3,C   7,C   6,H  10)   -179.9943         0.038385   
     56. D(C   3,C   7,C   6,S   5)      0.0572         0.038385   
     57. D(H  11,C   7,C   3,C   4)    179.9857         0.019963   
     58. D(H  11,C   7,C   3,C   2)     -0.0045         0.019963   
     59. D(H  11,C   7,C   6,S   5)   -179.9523         0.038385   
     60. D(C   6,C   7,C   3,C   4)     -0.0237         0.019963   
     61. D(C   6,C   7,C   3,C   2)    179.9861         0.019963   
    -----------------------------------------------------------------

Number of atoms                         .... 12
Number of degrees of freedom            .... 61

         *************************************************************
         *                GEOMETRY OPTIMIZATION CYCLE   1            *
         *************************************************************
---------------------------------
CARTESIAN COORDINATES (ANGSTROEM)
---------------------------------
  C     -1.368530   -1.211000    0.001440
  S     -2.495630    0.093070    0.001440
  C     -1.247600    1.276450    0.001000
  C     -0.011590    0.697110    0.000730
  C     -0.097530   -0.735180    0.000920
  S      1.480570   -1.470300   -0.000170
  C      2.216710    0.114460    0.000420
  C      1.347040    1.141470    0.000140
  H     -1.717010   -2.222980    0.001540
  H     -1.503900    2.316270    0.000850
  H      3.288760    0.163270    0.000190
  H      1.634530    2.177050   -0.000310

----------------------------
CARTESIAN COORDINATES (A.U.)
----------------------------
  NO LB      ZA    FRAG     MASS         X           Y           Z
   0 C     6.0000    0    12.011   -2.586147   -2.288458    0.002721
   1 S    16.0000    0    32.060   -4.716057    0.175877    0.002721
   2 C     6.0000    0    12.011   -2.357622    2.412141    0.001890
   3 C     6.0000    0    12.011   -0.021902    1.317347    0.001380
   4 C     6.0000    0    12.011   -0.184305   -1.389289    0.001739
   5 S    16.0000    0    32.060    2.797872   -2.778464   -0.000321
   6 C     6.0000    0    12.011    4.188975    0.216298    0.000794
   7 C     6.0000    0    12.011    2.545537    2.157066    0.000265
   8 H     1.0000    0     1.008   -3.244679   -4.200823    0.002910
   9 H     1.0000    0     1.008   -2.841959    4.377116    0.001606
  10 H     1.0000    0     1.008    6.214856    0.308536    0.000359
  11 H     1.0000    0     1.008    3.088814    4.114028   -0.000586

--------------------------------
INTERNAL COORDINATES (ANGSTROEM)
--------------------------------
 C      0   0   0     0.000000000000     0.00000000     0.00000000
 S      1   0   0     1.723645257847     0.00000000     0.00000000
 C      2   1   0     1.719874210197    92.64022987     0.00000000
 C      3   2   1     1.365047848465   111.40978320     0.00000000
 C      1   2   3     1.357146249599   110.31243694     0.00000000
 S      5   1   2     1.740919932823   134.49845286   180.03684799
 C      6   5   1     1.747388538734    89.93809320   180.01483476
 C      7   6   5     1.345762061956   114.82670159   359.94206284
 H      1   2   3     1.070299883584   120.16195369   180.00848218
 H      3   2   1     1.070941335882   119.63035552   179.99842897
 H      7   6   5     1.073160599118   117.52227897   179.98807463
 H      8   7   6     1.074744918108   124.22682103   180.04773588

---------------------------
INTERNAL COORDINATES (A.U.)
---------------------------
 C      0   0   0     0.000000000000     0.00000000     0.00000000
 S      1   0   0     3.257217489364     0.00000000     0.00000000
 C      2   1   0     3.250091242066    92.64022987     0.00000000
 C      3   2   1     2.579566593298   111.40978320     0.00000000
 C      1   2   3     2.564634735420   110.31243694     0.00000000
 S      5   1   2     3.289861894120   134.49845286   180.03684799
 C      6   5   1     3.302085787761    89.93809320   180.01483476
 C      7   6   5     2.543121738518   114.82670159   359.94206284
 H      1   2   3     2.022573661142   120.16195369   180.00848218
 H      3   2   1     2.023785830312   119.63035552   179.99842897
 H      7   6   5     2.027979630048   117.52227897   179.98807463
 H      8   7   6     2.030973559049   124.22682103   180.04773588

---------------------
BASIS SET INFORMATION
---------------------
There are 3 groups of distinct atoms

 Group   1 Type C   : 7s4p1d contracted to 3s2p1d pattern {511/31/1}
 Group   2 Type S   : 10s7p1d contracted to 4s3p1d pattern {5311/511/1}
 Group   3 Type H   : 4s1p contracted to 2s1p pattern {31/1}

Atom   0C    basis set group =>   1
Atom   1S    basis set group =>   2
Atom   2C    basis set group =>   1
Atom   3C    basis set group =>   1
Atom   4C    basis set group =>   1
Atom   5S    basis set group =>   2
Atom   6C    basis set group =>   1
Atom   7C    basis set group =>   1
Atom   8H    basis set group =>   3
Atom   9H    basis set group =>   3
Atom  10H    basis set group =>   3
Atom  11H    basis set group =>   3
---------------------------------
AUXILIARY/J BASIS SET INFORMATION
---------------------------------
There are 3 groups of distinct atoms

 Group   1 Type C   : 12s5p4d2f1g contracted to 6s4p3d1f1g pattern {711111/2111/211/2/1}
 Group   2 Type S   : 14s5p5d2f1g contracted to 8s4p3d1f1g pattern {71111111/2111/311/2/1}
 Group   3 Type H   : 5s2p1d contracted to 3s1p1d pattern {311/2/1}

Atom   0C    basis set group =>   1
Atom   1S    basis set group =>   2
Atom   2C    basis set group =>   1
Atom   3C    basis set group =>   1
Atom   4C    basis set group =>   1
Atom   5S    basis set group =>   2
Atom   6C    basis set group =>   1
Atom   7C    basis set group =>   1
Atom   8H    basis set group =>   3
Atom   9H    basis set group =>   3
Atom  10H    basis set group =>   3
Atom  11H    basis set group =>   3
------------------------------------------------------------------------------
                           ORCA GTO INTEGRAL CALCULATION
                           -- RI-GTO INTEGRALS CHOSEN --
------------------------------------------------------------------------------

                         BASIS SET STATISTICS AND STARTUP INFO

Gaussian basis set:
 # of primitive gaussian shells          ...  128
 # of primitive gaussian functions       ...  244
 # of contracted shells                  ...   64
 # of contracted basis functions         ...  140
 Highest angular momentum                ...    2
 Maximum contraction depth               ...    5
Auxiliary gaussian basis set:
 # of primitive gaussian shells          ...  230
 # of primitive gaussian functions       ...  638
 # of contracted shells                  ...  144
 # of contracted aux-basis functions     ...  440
 Highest angular momentum                ...    4
 Maximum contraction depth               ...    7
Ratio of auxiliary to basis functions    ...  3.14
Integral package used                  ... LIBINT
 One Electron integrals                  ... done
 Ordering auxiliary basis shells         ... done
 Integral threshhold             Thresh  ...  2.500e-11
 Primitive cut-off               TCut    ...  2.500e-12
 Pre-screening matrix                    ... done
 Shell pair data                         ... 
 Ordering of the shell pairs             ... done (   0.000 sec) 1958 of 2080 pairs
 Determination of significant pairs      ... done (   0.000 sec)
 Creation of shell pair data             ... done (   0.000 sec)
 Storage of shell pair data              ... done (   0.001 sec)
 Shell pair data done in (   0.001 sec)
 Computing two index integrals           ... done
 Cholesky decomposition of the V-matrix  ... done


Timings:
 Total evaluation time                   ...   0.133 sec (  0.002 min)
 One electron matrix time                ...   0.011 sec (  0.000 min) =  7.9%
 Schwartz matrix evaluation time         ...   0.097 sec (  0.002 min) = 72.7%
 Two index repulsion integral time       ...   0.005 sec (  0.000 min) =  3.6%
 Cholesky decomposition of V             ...   0.003 sec (  0.000 min) =  2.4%
 Three index repulsion integral time     ...   0.000 sec (  0.000 min) =  0.0%

-------------------------------------------------------------------------------
                                 ORCA SCF
-------------------------------------------------------------------------------

------------
SCF SETTINGS
------------
Hamiltonian:
 Density Functional     Method          .... DFT(GTOs)
 Exchange Functional    Exchange        .... B88
   X-Alpha parameter    XAlpha          ....  0.666667
   Becke's b parameter  XBeta           ....  0.004200
 Correlation Functional Correlation     .... LYP
 LDA part of GGA corr.  LDAOpt          .... VWN-3
 Gradients option       PostSCFGGA      .... off
 Hybrid DFT is turned on
   Fraction HF Exchange ScalHFX         ....  0.200000
   Scaling of DF-GGA-X  ScalDFX         ....  0.720000
   Scaling of DF-GGA-C  ScalDFC         ....  0.810000
   Scaling of DF-LDA-C  ScalLDAC        ....  1.000000
   Perturbative correction              ....  0.000000
   Density functional embedding theory  .... OFF
   NL short-range parameter             ....  4.800000
 RI-approximation to the Coulomb term is turned on
   Number of auxiliary basis functions  .... 440
   RIJ-COSX (HFX calculated with COS-X)).... on


General Settings:
 Integral files         IntName         .... 391
 Hartree-Fock type      HFTyp           .... RHF
 Total Charge           Charge          ....    0
 Multiplicity           Mult            ....    1
 Number of Electrons    NEL             ....   72
 Basis Dimension        Dim             ....  140
 Nuclear Repulsion      ENuc            ....    474.6136523742 Eh

Convergence Acceleration:
 DIIS                   CNVDIIS         .... on
   Start iteration      DIISMaxIt       ....    12
   Startup error        DIISStart       ....  0.200000
   # of expansion vecs  DIISMaxEq       ....     5
   Bias factor          DIISBfac        ....   1.050
   Max. coefficient     DIISMaxC        ....  10.000
 Newton-Raphson         CNVNR           .... off
 SOSCF                  CNVSOSCF        .... on
   Start iteration      SOSCFMaxIt      ....   150
   Startup grad/error   SOSCFStart      ....  0.003300
 Level Shifting         CNVShift        .... on
   Level shift para.    LevelShift      ....    0.2500
   Turn off err/grad.   ShiftErr        ....    0.0010
 Zerner damping         CNVZerner       .... off
 Static damping         CNVDamp         .... on
   Fraction old density DampFac         ....    0.7000
   Max. Damping (<1)    DampMax         ....    0.9800
   Min. Damping (>=0)   DampMin         ....    0.0000
   Turn off err/grad.   DampErr         ....    0.1000
 Fernandez-Rico         CNVRico         .... off

SCF Procedure:
 Maximum # iterations   MaxIter         ....   125
 SCF integral mode      SCFMode         .... Direct
   Integral package                     .... LIBINT
 Reset frequency        DirectResetFreq ....    20
 Integral Threshold     Thresh          ....  2.500e-11 Eh
 Primitive CutOff       TCut            ....  2.500e-12 Eh

Convergence Tolerance:
 Convergence Check Mode ConvCheckMode   .... Total+1el-Energy
 Convergence forced     ConvForced      .... 0
 Energy Change          TolE            ....  1.000e-08 Eh
 1-El. energy change                    ....  1.000e-05 Eh
 Orbital Gradient       TolG            ....  1.000e-05
 Orbital Rotation angle TolX            ....  1.000e-05
 DIIS Error             TolErr          ....  5.000e-07


Diagonalization of the overlap matrix:
Smallest eigenvalue                        ... 7.618e-04
Time for diagonalization                   ...    0.004 sec
Threshold for overlap eigenvalues          ... 1.000e-08
Number of eigenvalues below threshold      ... 0
Time for construction of square roots      ...    0.001 sec
Total time needed                          ...    0.005 sec

-------------------
DFT GRID GENERATION
-------------------

General Integration Accuracy     IntAcc      ...  4.340
Radial Grid Type                 RadialGrid  ... Gauss-Chebyshev
Angular Grid (max. acc.)         AngularGrid ... Lebedev-110
Angular grid pruning method      GridPruning ... 3 (G Style)
Weight generation scheme         WeightScheme... Becke
Basis function cutoff            BFCut       ...    1.0000e-11
Integration weight cutoff        WCut        ...    1.0000e-14
Grids for H and He will be reduced by one unit

# of grid points (after initial pruning)     ...  16724 (   0.0 sec)
# of grid points (after weights+screening)   ...  15710 (   0.0 sec)
nearest neighbour list constructed           ...    0.0 sec
Grid point re-assignment to atoms done       ...    0.0 sec
Grid point division into batches done        ...    0.0 sec
Reduced shell lists constructed in    0.1 sec

Total number of grid points                  ...    15710
Total number of batches                      ...      251
Average number of points per batch           ...       62
Average number of grid points per atom       ...     1309
Average number of shells per batch           ...    45.89 (71.71%)
Average number of basis functions per batch  ...   102.54 (73.25%)
Average number of large shells per batch     ...    37.30 (81.27%)
Average number of large basis fcns per batch ...    82.18 (80.14%)
Maximum spatial batch extension              ...  18.18, 20.21, 44.34 au
Average spatial batch extension              ...   3.91,  3.92,  5.57 au

Time for grid setup =    0.111 sec

------------------------------
INITIAL GUESS: MODEL POTENTIAL
------------------------------
Loading Hartree-Fock densities                     ... done
Calculating cut-offs                               ... done
Setting up the integral package                    ... done
Initializing the effective Hamiltonian             ... done
Starting the Coulomb interaction                   ... done (   0.1 sec)
Reading the grid                                   ... done
Mapping shells                                     ... done
Starting the XC term evaluation                    ... done (   0.1 sec)
  promolecular density results
     # of electrons  =     71.999092852
     EX              =    -82.144027858
     EC              =     -2.673702452
     EX+EC           =    -84.817730311
Transforming the Hamiltonian                       ... done (   0.0 sec)
Diagonalizing the Hamiltonian                      ... done (   0.0 sec)
Back transforming the eigenvectors                 ... done (   0.0 sec)
Now organizing SCF variables                       ... done
                      ------------------
                      INITIAL GUESS DONE (   0.4 sec)
                      ------------------
--------------------
COSX GRID GENERATION
--------------------

General Integration Accuracy     IntAcc      ...  3.340
Radial Grid Type                 RadialGrid  ... Gauss-Chebyshev
Angular Grid (max. acc.)         AngularGrid ... Lebedev-50
Angular grid pruning method      GridPruning ... 3 (G Style)
Weight generation scheme         WeightScheme... Becke
Basis function cutoff            BFCut       ...    1.0000e-11
Integration weight cutoff        WCut        ...    1.0000e-14
Grids for H and He will be reduced by one unit

# of grid points (after initial pruning)     ...   6172 (   0.0 sec)
# of grid points (after weights+screening)   ...   5871 (   0.0 sec)
nearest neighbour list constructed           ...    0.0 sec
Grid point re-assignment to atoms done       ...    0.0 sec
Grid point division into batches done        ...    0.0 sec
Reduced shell lists constructed in    0.0 sec

Total number of grid points                  ...     5871
Total number of batches                      ...       98
Average number of points per batch           ...       59
Average number of grid points per atom       ...      489
Average number of shells per batch           ...    49.54 (77.40%)
Average number of basis functions per batch  ...   111.15 (79.39%)
Average number of large shells per batch     ...    40.53 (81.81%)
Average number of large basis fcns per batch ...    89.52 (80.53%)
Maximum spatial batch extension              ...  15.95, 20.86, 35.81 au
Average spatial batch extension              ...   4.80,  4.91,  7.83 au

Overlap Fitting                  UseSFitting ... on
Constructing numerical overlap ... done (      0.0 sec)
Inverting numerical overlap    ... done (      0.0 sec)
Obtaining analytic overlap     ... done (      0.0 sec)
Final contraction and storage  ... done (      0.0 sec)


General Integration Accuracy     IntAcc      ...  3.670
Radial Grid Type                 RadialGrid  ... Gauss-Chebyshev
Angular Grid (max. acc.)         AngularGrid ... Lebedev-50
Angular grid pruning method      GridPruning ... 3 (G Style)
Weight generation scheme         WeightScheme... Becke
Basis function cutoff            BFCut       ...    1.0000e-11
Integration weight cutoff        WCut        ...    1.0000e-14
Grids for H and He will be reduced by one unit

# of grid points (after initial pruning)     ...   7720 (   0.0 sec)
# of grid points (after weights+screening)   ...   7330 (   0.0 sec)
nearest neighbour list constructed           ...    0.0 sec
Grid point re-assignment to atoms done       ...    0.0 sec
Grid point division into batches done        ...    0.0 sec
Reduced shell lists constructed in    0.0 sec

Total number of grid points                  ...     7330
Total number of batches                      ...      120
Average number of points per batch           ...       61
Average number of grid points per atom       ...      611
Average number of shells per batch           ...    48.53 (75.83%)
Average number of basis functions per batch  ...   108.74 (77.67%)
Average number of large shells per batch     ...    39.07 (80.50%)
Average number of large basis fcns per batch ...    86.16 (79.23%)
Maximum spatial batch extension              ...  16.50, 23.16, 39.19 au
Average spatial batch extension              ...   4.49,  4.73,  7.57 au

Overlap Fitting                  UseSFitting ... on
Constructing numerical overlap ... done (      0.0 sec)
Inverting numerical overlap    ... done (      0.0 sec)
Obtaining analytic overlap     ... done (      0.0 sec)
Final contraction and storage  ... done (      0.0 sec)


General Integration Accuracy     IntAcc      ...  4.010
Radial Grid Type                 RadialGrid  ... Gauss-Chebyshev
Angular Grid (max. acc.)         AngularGrid ... Lebedev-110
Angular grid pruning method      GridPruning ... 3 (G Style)
Weight generation scheme         WeightScheme... Becke
Basis function cutoff            BFCut       ...    1.0000e-11
Integration weight cutoff        WCut        ...    1.0000e-14
Grids for H and He will be reduced by one unit

# of grid points (after initial pruning)     ...  14744 (   0.0 sec)
# of grid points (after weights+screening)   ...  13877 (   0.0 sec)
nearest neighbour list constructed           ...    0.0 sec
Grid point re-assignment to atoms done       ...    0.0 sec
Grid point division into batches done        ...    0.0 sec
Reduced shell lists constructed in    0.1 sec

Total number of grid points                  ...    13877
Total number of batches                      ...      223
Average number of points per batch           ...       62
Average number of grid points per atom       ...     1156
Average number of shells per batch           ...    46.32 (72.37%)
Average number of basis functions per batch  ...   103.50 (73.93%)
Average number of large shells per batch     ...    37.63 (81.24%)
Average number of large basis fcns per batch ...    83.05 (80.24%)
Maximum spatial batch extension              ...  17.50, 21.46, 24.88 au
Average spatial batch extension              ...   4.01,  4.08,  5.53 au

Overlap Fitting                  UseSFitting ... on
Constructing numerical overlap ... done (      0.1 sec)
Inverting numerical overlap    ... done (      0.0 sec)
Obtaining analytic overlap     ... done (      0.0 sec)
Final contraction and storage  ... done (      0.0 sec)

Time for X-Grid setup             =    0.362 sec
--------------
SCF ITERATIONS
--------------
ITER       Energy         Delta-E        Max-DP      RMS-DP      [F,P]     Damp
               ***  Starting incremental Fock matrix formation  ***
  0  -1026.7849791357   0.000000000000 0.06713266  0.00311319  0.1411894 0.7000
  1  -1026.9008669387  -0.115887802987 0.05063610  0.00207773  0.0695495 0.7000
                               ***Turning on DIIS***
  2  -1026.9386834707  -0.037816531983 0.10858713  0.00313762  0.0261524 0.0000
  3  -1026.9925259249  -0.053842454236 0.02927679  0.00171600  0.0423331 0.0000
  4  -1027.0128444052  -0.020318480239 0.01188871  0.00049481  0.0125979 0.0000
  5  -1027.0141936891  -0.001349283910 0.00503081  0.00017975  0.0045697 0.0000
                      *** Initiating the SOSCF procedure ***
                           *** Shutting down DIIS ***
                      *** Re-Reading the Fockian *** 
                      *** Removing any level shift *** 
ITER      Energy       Delta-E        Grad      Rot      Max-DP    RMS-DP
  6  -1027.01437055  -0.0001768592  0.000423  0.000423  0.001310  0.000057
               *** Restarting incremental Fock matrix formation ***
  7  -1027.01437921  -0.0000086615  0.000189  0.000917  0.001243  0.000034
  8  -1027.01437941  -0.0000002047  0.000184  0.000254  0.000454  0.000019
  9  -1027.01438031  -0.0000008962  0.000048  0.000168  0.000311  0.000010
 10  -1027.01438031   0.0000000041  0.000060  0.000104  0.000149  0.000004
 11  -1027.01438042  -0.0000001111  0.000012  0.000047  0.000111  0.000003
 12  -1027.01438041   0.0000000027  0.000017  0.000036  0.000048  0.000001
 13  -1027.01438042  -0.0000000055  0.000004  0.000014  0.000041  0.000001
 14  -1027.01438042  -0.0000000011  0.000004  0.000007  0.000023  0.000000
                  ***Gradient check signals convergence***
              ***Rediagonalizing the Fockian in SOSCF/NRSCF***

               *****************************************************
               *                     SUCCESS                       *
               *           SCF CONVERGED AFTER  15 CYCLES          *
               *****************************************************

Setting up the final grid:

General Integration Accuracy     IntAcc      ...  4.670
Radial Grid Type                 RadialGrid  ... Gauss-Chebyshev
Angular Grid (max. acc.)         AngularGrid ... Lebedev-302
Angular grid pruning method      GridPruning ... 3 (G Style)
Weight generation scheme         WeightScheme... Becke
Basis function cutoff            BFCut       ...    1.0000e-11
Integration weight cutoff        WCut        ...    1.0000e-14
Grids for H and He will be reduced by one unit

# of grid points (after initial pruning)     ...  64540 (   0.0 sec)
# of grid points (after weights+screening)   ...  59936 (   0.1 sec)
nearest neighbour list constructed           ...    0.0 sec
Grid point re-assignment to atoms done       ...    0.0 sec
Grid point division into batches done        ...    0.4 sec
Reduced shell lists constructed in    0.8 sec

Total number of grid points                  ...    59936
Total number of batches                      ...      941
Average number of points per batch           ...       63
Average number of grid points per atom       ...     4995
Average number of shells per batch           ...    41.79 (65.30%)
Average number of basis functions per batch  ...    92.62 (66.16%)
Average number of large shells per batch     ...    33.43 (79.99%)
Average number of large basis fcns per batch ...    73.05 (78.87%)
Maximum spatial batch extension              ...  17.31, 17.81, 23.20 au
Average spatial batch extension              ...   2.62,  2.61,  3.05 au

Final grid set up in    0.9 sec
Final integration                            ... done (   0.9 sec)
Change in XC energy                          ...    -0.000580774
Integrated number of electrons               ...    71.999988387
Previous integrated no of electrons          ...    72.001391573
Old exchange energy                            =    -16.517528858 Eh
New exchange energy                            =    -16.516902023 Eh
Exchange energy change after final integration =      0.000626836 Eh
Total energy after final integration           =  -1027.014334360 Eh
Final COS-X integration done in                =     4.122 sec

----------------
TOTAL SCF ENERGY
----------------

Total Energy       :        -1027.01433436 Eh          -27946.48081 eV

Components:
Nuclear Repulsion  :          474.61365237 Eh           12914.89406 eV
Electronic Energy  :        -1501.62798673 Eh          -40861.37487 eV
One Electron Energy:        -2352.99431934 Eh          -64028.23056 eV
Two Electron Energy:          851.36633261 Eh           23166.85569 eV

Virial components:
Potential Energy   :        -2050.03421227 Eh          -55784.26693 eV
Kinetic Energy     :         1023.01987790 Eh           27837.78612 eV
Virial Ratio       :            2.00390457


DFT components:
N(Alpha)           :       35.999994193456 electrons
N(Beta)            :       35.999994193456 electrons
N(Total)           :       71.999988386912 electrons
E(X)               :      -65.580148201751 Eh       
E(C)               :       -3.410067466715 Eh       
E(XC)              :      -68.990215668467 Eh       
DFET-embed. en.    :        0.000000000000 Eh       

---------------
SCF CONVERGENCE
---------------

  Last Energy change         ...   -9.5497e-12  Tolerance :   1.0000e-08
  Last MAX-Density change    ...    5.7732e-15  Tolerance :   1.0000e-07
  Last RMS-Density change    ...    7.4343e-17  Tolerance :   5.0000e-09
  Last Orbital Gradient      ...    8.3839e-07  Tolerance :   1.0000e-05
  Last Orbital Rotation      ...    2.0430e-06  Tolerance :   1.0000e-05

             **** THE GBW FILE WAS UPDATED (391.gbw) ****
             **** DENSITY FILE WAS UPDATED (391.scfp) ****
             **** ENERGY FILE WAS UPDATED (391.en.tmp) ****
             **** THE GBW FILE WAS UPDATED (391.gbw) ****
             **** DENSITY FILE WAS UPDATED (391.scfp) ****
----------------
ORBITAL ENERGIES
----------------

  NO   OCC          E(Eh)            E(eV) 
   0   2.0000     -88.879193     -2418.5258 
   1   2.0000     -88.866338     -2418.1760 
   2   2.0000     -10.215795      -277.9859 
   3   2.0000     -10.214069      -277.9390 
   4   2.0000     -10.212060      -277.8843 
   5   2.0000     -10.210512      -277.8422 
   6   2.0000     -10.198143      -277.5056 
   7   2.0000     -10.194654      -277.4107 
   8   2.0000      -7.974191      -216.9888 
   9   2.0000      -7.962018      -216.6575 
  10   2.0000      -5.942294      -161.6981 
  11   2.0000      -5.938011      -161.5815 
  12   2.0000      -5.935833      -161.5222 
  13   2.0000      -5.930709      -161.3828 
  14   2.0000      -5.926690      -161.2734 
  15   2.0000      -5.921941      -161.1442 
  16   2.0000      -0.905950       -24.6522 
  17   2.0000      -0.844437       -22.9783 
  18   2.0000      -0.758062       -20.6279 
  19   2.0000      -0.719055       -19.5665 
  20   2.0000      -0.691836       -18.8258 
  21   2.0000      -0.592698       -16.1281 
  22   2.0000      -0.570803       -15.5323 
  23   2.0000      -0.536610       -14.6019 
  24   2.0000      -0.501385       -13.6434 
  25   2.0000      -0.439350       -11.9553 
  26   2.0000      -0.432545       -11.7701 
  27   2.0000      -0.414425       -11.2771 
  28   2.0000      -0.404830       -11.0160 
  29   2.0000      -0.387163       -10.5352 
  30   2.0000      -0.353828        -9.6282 
  31   2.0000      -0.341581        -9.2949 
  32   2.0000      -0.340055        -9.2534 
  33   2.0000      -0.286521        -7.7966 
  34   2.0000      -0.243559        -6.6276 
  35   2.0000      -0.209027        -5.6879 
  36   0.0000      -0.037256        -1.0138 
  37   0.0000       0.016355         0.4451 
  38   0.0000       0.034496         0.9387 
  39   0.0000       0.037708         1.0261 
  40   0.0000       0.082139         2.2351 
  41   0.0000       0.091905         2.5009 
  42   0.0000       0.096295         2.6203 
  43   0.0000       0.103302         2.8110 
  44   0.0000       0.119556         3.2533 
  45   0.0000       0.147166         4.0046 
  46   0.0000       0.159877         4.3505 
  47   0.0000       0.249100         6.7784 
  48   0.0000       0.272473         7.4144 
  49   0.0000       0.296539         8.0692 
  50   0.0000       0.328439         8.9373 
  51   0.0000       0.330919         9.0048 
  52   0.0000       0.370263        10.0754 
  53   0.0000       0.380436        10.3522 
  54   0.0000       0.409181        11.1344 
  55   0.0000       0.414252        11.2724 
  56   0.0000       0.427703        11.6384 
  57   0.0000       0.447135        12.1672 
  58   0.0000       0.455696        12.4001 
  59   0.0000       0.466422        12.6920 
  60   0.0000       0.496770        13.5178 
  61   0.0000       0.506534        13.7835 
  62   0.0000       0.517070        14.0702 
  63   0.0000       0.528720        14.3872 
  64   0.0000       0.563278        15.3276 
  65   0.0000       0.563714        15.3394 
  66   0.0000       0.579134        15.7590 
  67   0.0000       0.605498        16.4764 
  68   0.0000       0.628811        17.1108 
  69   0.0000       0.635422        17.2907 
  70   0.0000       0.649056        17.6617 
  71   0.0000       0.657800        17.8996 
  72   0.0000       0.665965        18.1218 
  73   0.0000       0.680717        18.5233 
  74   0.0000       0.685455        18.6522 
  75   0.0000       0.692313        18.8388 
  76   0.0000       0.709196        19.2982 
  77   0.0000       0.739694        20.1281 
  78   0.0000       0.749306        20.3897 
  79   0.0000       0.761050        20.7092 
  80   0.0000       0.778662        21.1885 
  81   0.0000       0.784958        21.3598 
  82   0.0000       0.794137        21.6096 
  83   0.0000       0.798485        21.7279 
  84   0.0000       0.827318        22.5125 
  85   0.0000       0.831189        22.6178 
  86   0.0000       0.852842        23.2070 
  87   0.0000       0.941129        25.6094 
  88   0.0000       0.958468        26.0813 
  89   0.0000       1.022626        27.8271 
  90   0.0000       1.109204        30.1830 
  91   0.0000       1.120700        30.4958 
  92   0.0000       1.138206        30.9722 
  93   0.0000       1.172043        31.8929 
  94   0.0000       1.189186        32.3594 
  95   0.0000       1.190363        32.3914 
  96   0.0000       1.209577        32.9143 
  97   0.0000       1.257190        34.2099 
  98   0.0000       1.271098        34.5883 
  99   0.0000       1.281958        34.8839 
 100   0.0000       1.284641        34.9568 
 101   0.0000       1.406039        38.2603 
 102   0.0000       1.530409        41.6445 
 103   0.0000       1.557764        42.3889 
 104   0.0000       1.656550        45.0770 
 105   0.0000       1.660606        45.1874 
 106   0.0000       1.675569        45.5946 
 107   0.0000       1.744399        47.4675 
 108   0.0000       1.768191        48.1149 
 109   0.0000       1.786201        48.6050 
 110   0.0000       1.803247        49.0689 
 111   0.0000       1.835123        49.9362 
 112   0.0000       1.862317        50.6762 
 113   0.0000       1.926618        52.4260 
 114   0.0000       1.939753        52.7834 
 115   0.0000       1.954551        53.1860 
 116   0.0000       1.992707        54.2243 
 117   0.0000       2.010171        54.6995 
 118   0.0000       2.039832        55.5066 
 119   0.0000       2.109247        57.3955 
 120   0.0000       2.127811        57.9007 
 121   0.0000       2.149603        58.4937 
 122   0.0000       2.212013        60.1919 
 123   0.0000       2.251473        61.2657 
 124   0.0000       2.299801        62.5808 
 125   0.0000       2.305495        62.7357 
 126   0.0000       2.353923        64.0535 
 127   0.0000       2.404616        65.4329 
 128   0.0000       2.404853        65.4394 
 129   0.0000       2.489582        67.7450 
 130   0.0000       2.600282        70.7573 
 131   0.0000       2.627868        71.5079 
 132   0.0000       2.658812        72.3500 
 133   0.0000       2.679821        72.9216 
 134   0.0000       2.765524        75.2537 
 135   0.0000       2.807504        76.3961 
 136   0.0000       2.978477        81.0485 
 137   0.0000       3.054870        83.1273 
 138   0.0000       3.290387        89.5360 
 139   0.0000       3.388870        92.2158 

                    ********************************
                    * MULLIKEN POPULATION ANALYSIS *
                    ********************************

-----------------------
MULLIKEN ATOMIC CHARGES
-----------------------
   0 C :   -0.155177
   1 S :    0.108391
   2 C :   -0.136338
   3 C :    0.103867
   4 C :   -0.007239
   5 S :    0.085894
   6 C :   -0.070205
   7 C :    0.056717
   8 H :    0.009673
   9 H :    0.007390
  10 H :    0.023058
  11 H :   -0.026032
Sum of atomic charges:   -0.0000000

--------------------------------
MULLIKEN REDUCED ORBITAL CHARGES
--------------------------------
  0 C s       :     3.232652  s :     3.232652
      pz      :     1.138738  p :     2.886536
      px      :     0.931706
      py      :     0.816093
      dz2     :     0.003150  d :     0.035989
      dxz     :     0.007426
      dyz     :     0.003034
      dx2y2   :     0.008789
      dxy     :     0.013591
  1 S s       :     5.839545  s :     5.839545
      pz      :     3.629836  p :     9.932893
      px      :     3.342773
      py      :     2.960285
      dz2     :     0.012661  d :     0.119171
      dxz     :     0.011793
      dyz     :     0.028173
      dx2y2   :     0.017472
      dxy     :     0.049072
  2 C s       :     3.205509  s :     3.205509
      pz      :     1.139519  p :     2.895003
      px      :     0.923465
      py      :     0.832020
      dz2     :     0.003114  d :     0.035825
      dxz     :     0.007300
      dyz     :     0.002917
      dx2y2   :     0.008962
      dxy     :     0.013532
  3 C s       :     3.048163  s :     3.048163
      pz      :     1.014583  p :     2.801518
      px      :     0.806418
      py      :     0.980517
      dz2     :     0.003524  d :     0.046452
      dxz     :     0.009842
      dyz     :     0.005674
      dx2y2   :     0.016247
      dxy     :     0.011165
  4 C s       :     2.994177  s :     2.994177
      pz      :     1.069644  p :     2.966280
      px      :     0.885340
      py      :     1.011296
      dz2     :     0.003710  d :     0.046782
      dxz     :     0.009701
      dyz     :     0.006066
      dx2y2   :     0.014309
      dxy     :     0.012996
  5 S s       :     5.855237  s :     5.855237
      pz      :     3.742815  p :     9.954534
      px      :     2.970564
      py      :     3.241155
      dz2     :     0.012308  d :     0.104335
      dxz     :     0.015798
      dyz     :     0.012510
      dx2y2   :     0.029714
      dxy     :     0.034006
  6 C s       :     3.160370  s :     3.160370
      pz      :     1.072687  p :     2.872534
      px      :     0.913865
      py      :     0.885982
      dz2     :     0.003050  d :     0.037302
      dxz     :     0.003151
      dyz     :     0.007908
      dx2y2   :     0.013127
      dxy     :     0.010066
  7 C s       :     3.179611  s :     3.179611
      pz      :     1.027567  p :     2.727365
      px      :     0.937126
      py      :     0.762673
      dz2     :     0.002712  d :     0.036307
      dxz     :     0.006404
      dyz     :     0.004031
      dx2y2   :     0.011674
      dxy     :     0.011485
  8 H s       :     0.965646  s :     0.965646
      pz      :     0.006069  p :     0.024681
      px      :     0.004529
      py      :     0.014082
  9 H s       :     0.968164  s :     0.968164
      pz      :     0.005990  p :     0.024446
      px      :     0.003817
      py      :     0.014639
 10 H s       :     0.952932  s :     0.952932
      pz      :     0.005330  p :     0.024010
      px      :     0.015587
      py      :     0.003093
 11 H s       :     1.001628  s :     1.001628
      pz      :     0.005495  p :     0.024404
      px      :     0.004448
      py      :     0.014460


                     *******************************
                     * LOEWDIN POPULATION ANALYSIS *
                     *******************************

----------------------
LOEWDIN ATOMIC CHARGES
----------------------
   0 C :   -0.219427
   1 S :    0.452396
   2 C :   -0.203398
   3 C :   -0.079730
   4 C :   -0.194416
   5 S :    0.371025
   6 C :   -0.156653
   7 C :   -0.060634
   8 H :    0.020901
   9 H :    0.020036
  10 H :    0.021254
  11 H :    0.028646

-------------------------------
LOEWDIN REDUCED ORBITAL CHARGES
-------------------------------
  0 C s       :     2.916185  s :     2.916185
      pz      :     1.135496  p :     3.215555
      px      :     1.052853
      py      :     1.027206
      dz2     :     0.006580  d :     0.087687
      dxz     :     0.015802
      dyz     :     0.004949
      dx2y2   :     0.024029
      dxy     :     0.036326
  1 S s       :     5.498157  s :     5.498157
      pz      :     3.581118  p :     9.904234
      px      :     3.361888
      py      :     2.961228
      dz2     :     0.015842  d :     0.145212
      dxz     :     0.011217
      dyz     :     0.034758
      dx2y2   :     0.018905
      dxy     :     0.064491
  2 C s       :     2.914759  s :     2.914759
      pz      :     1.129850  p :     3.202503
      px      :     1.040367
      py      :     1.032285
      dz2     :     0.006403  d :     0.086136
      dxz     :     0.015183
      dyz     :     0.004670
      dx2y2   :     0.023951
      dxy     :     0.035929
  3 C s       :     2.845692  s :     2.845692
      pz      :     1.008687  p :     3.112231
      px      :     1.065743
      py      :     1.037801
      dz2     :     0.008587  d :     0.121808
      dxz     :     0.020288
      dyz     :     0.012044
      dx2y2   :     0.049580
      dxy     :     0.031308
  4 C s       :     2.900952  s :     2.900952
      pz      :     1.066886  p :     3.180449
      px      :     1.059567
      py      :     1.053996
      dz2     :     0.008234  d :     0.113015
      dxz     :     0.019948
      dyz     :     0.012027
      dx2y2   :     0.041062
      dxy     :     0.031744
  5 S s       :     5.512260  s :     5.512260
      pz      :     3.700893  p :     9.987325
      px      :     2.994337
      py      :     3.292095
      dz2     :     0.015974  d :     0.129390
      dxz     :     0.019080
      dyz     :     0.013091
      dx2y2   :     0.036329
      dxy     :     0.044916
  6 C s       :     2.923634  s :     2.923634
      pz      :     1.059605  p :     3.144429
      px      :     1.059326
      py      :     1.025498
      dz2     :     0.006243  d :     0.088590
      dxz     :     0.005150
      dyz     :     0.016692
      dx2y2   :     0.033715
      dxy     :     0.026790
  7 C s       :     2.855107  s :     2.855107
      pz      :     1.018407  p :     3.110172
      px      :     1.037978
      py      :     1.053787
      dz2     :     0.006876  d :     0.095356
      dxz     :     0.013763
      dyz     :     0.007041
      dx2y2   :     0.033719
      dxy     :     0.033957
  8 H s       :     0.901907  s :     0.901907
      pz      :     0.019795  p :     0.077193
      px      :     0.014080
      py      :     0.043318
  9 H s       :     0.902664  s :     0.902664
      pz      :     0.019827  p :     0.077300
      px      :     0.012864
      py      :     0.044609
 10 H s       :     0.903957  s :     0.903957
      pz      :     0.017256  p :     0.074790
      px      :     0.045792
      py      :     0.011742
 11 H s       :     0.900340  s :     0.900340
      pz      :     0.016478  p :     0.071014
      px      :     0.014011
      py      :     0.040526


                      *****************************
                      * MAYER POPULATION ANALYSIS *
                      *****************************

  NA   - Mulliken gross atomic population
  ZA   - Total nuclear charge
  QA   - Mulliken gross atomic charge
  VA   - Mayer's total valence
  BVA  - Mayer's bonded valence
  FA   - Mayer's free valence

  ATOM       NA         ZA         QA         VA         BVA        FA
  0 C      6.1552     6.0000    -0.1552     3.8598     3.8598     0.0000
  1 S     15.8916    16.0000     0.1084     2.5522     2.5522     0.0000
  2 C      6.1363     6.0000    -0.1363     3.7529     3.7529    -0.0000
  3 C      5.8961     6.0000     0.1039     3.9924     3.9924    -0.0000
  4 C      6.0072     6.0000    -0.0072     3.8978     3.8978    -0.0000
  5 S     15.9141    16.0000     0.0859     2.3414     2.3414    -0.0000
  6 C      6.0702     6.0000    -0.0702     3.8142     3.8142     0.0000
  7 C      5.9433     6.0000     0.0567     3.8550     3.8550    -0.0000
  8 H      0.9903     1.0000     0.0097     1.0019     1.0019     0.0000
  9 H      0.9926     1.0000     0.0074     1.0000     1.0000    -0.0000
 10 H      0.9769     1.0000     0.0231     0.9927     0.9927    -0.0000
 11 H      1.0260     1.0000    -0.0260     0.9894     0.9894    -0.0000

  Mayer bond orders larger than 0.100000
B(  0-C ,  1-S ) :   1.1712 B(  0-C ,  4-C ) :   1.5294 B(  0-C ,  8-H ) :   0.9785 
B(  1-S ,  2-C ) :   1.1747 B(  2-C ,  3-C ) :   1.4635 B(  2-C ,  9-H ) :   0.9688 
B(  3-C ,  4-C ) :   1.2308 B(  3-C ,  7-C ) :   1.1438 B(  4-C ,  5-S ) :   1.0347 
B(  5-S ,  6-C ) :   1.0941 B(  6-C ,  7-C ) :   1.6420 B(  6-C , 10-H ) :   0.9654 
B(  7-C , 11-H ) :   1.0013 

-------
TIMINGS
-------

Total SCF time: 0 days 0 hours 0 min 43 sec 

Total time                  ....      43.214 sec
Sum of individual times     ....      43.091 sec  ( 99.7%)

Fock matrix formation       ....      41.425 sec  ( 95.9%)
  Split-RI-J                ....       4.686 sec  ( 11.3% of F)
  Chain of spheres X        ....      32.175 sec  ( 77.7% of F)
  COS-X 1 center corr.      ....       0.000 sec  (  0.0% of F)
  XC integration            ....       4.339 sec  ( 10.5% of F)
    Basis function eval.    ....       1.660 sec  ( 38.3% of XC)
    Density eval.           ....       0.832 sec  ( 19.2% of XC)
    XC-Functional eval.     ....       0.372 sec  (  8.6% of XC)
    XC-Potential eval.      ....       1.315 sec  ( 30.3% of XC)
Diagonalization             ....       0.030 sec  (  0.1%)
Density matrix formation    ....       0.005 sec  (  0.0%)
Population analysis         ....       0.003 sec  (  0.0%)
Initial guess               ....       0.269 sec  (  0.6%)
Orbital Transformation      ....       0.000 sec  (  0.0%)
Orbital Orthonormalization  ....       0.000 sec  (  0.0%)
DIIS solution               ....       0.006 sec  (  0.0%)
SOSCF solution              ....       0.026 sec  (  0.1%)
Grid generation             ....       1.328 sec  (  3.1%)


-------------------------------------------------------------------------------
                          DFT DISPERSION CORRECTION                            
                                                                               
                              DFTD3 V3.1  Rev 1                                
                          USING Becke-Johnson damping                          
-------------------------------------------------------------------------------
Gaussians B3LYP functional is recognized, using regular B3LYP params
Active option DFTDOPT                   ...         4   

molecular C6(AA) [au] = 3436.382894 


            DFT-D V3
 parameters
 s6 scaling factor         :     1.0000 
 a1 scaling factor         :     0.3981 
 s8 scaling factor         :     1.9889 
 a2 scaling factor         :     4.4211 
 ad hoc parameters k1-k3   :    16.0000     1.3333    -4.0000 

 Edisp/kcal,au: -18.079085001507  -0.028810852776 
 E6   /kcal   :  -7.597763879 
 E8   /kcal   : -10.481321123 
 % E8         :  57.974842874 

-------------------------   ----------------
Dispersion correction           -0.028810853
-------------------------   ----------------


-------------------------   --------------------
FINAL SINGLE POINT ENERGY     -1027.043145213197
-------------------------   --------------------

------------------------------------------------------------------------------
                         ORCA SCF GRADIENT CALCULATION
------------------------------------------------------------------------------

Gradient of the Kohn-Sham DFT energy:
Kohn-Sham wavefunction type      ... RKS
Hartree-Fock exchange scaling    ...    0.200
Number of operators              ...    1
Number of atoms                  ...   12
Basis set dimensions             ...  140
Integral neglect threshold       ... 2.5e-11
Integral primitive cutoff        ... 2.5e-12

Nuclear repulsion gradient       ... done
One Electron Gradient            ... done
Pre-screening matrix             ... done
RI-J gradient                    ... done
COSX-gradient                    ... done
Exchange-correlation gradient    ... done
Dispersion correction            ... done

------------------
CARTESIAN GRADIENT
------------------

   1   C   :    0.010099690   -0.000542148    0.000012167
   2   S   :    0.004621479   -0.000856672   -0.000019437
   3   C   :    0.010162046    0.000082398    0.000001570
   4   C   :   -0.002893563    0.001903276    0.000025160
   5   C   :   -0.006918509    0.002995918    0.000024276
   6   S   :   -0.003890329    0.008930619   -0.000071333
   7   C   :   -0.003176609    0.006851318    0.000071349
   8   C   :    0.001393103   -0.005649063   -0.000050508
   9   H   :    0.003891746    0.012455043   -0.000003343
  10   H   :    0.002661460   -0.012763814   -0.000001793
  11   H   :   -0.012572578   -0.002363402    0.000007019
  12   H   :   -0.004791928   -0.010477020   -0.000012770

Difference to translation invariance:
           :   -0.0014139929    0.0005664534   -0.0000176439

Norm of the cartesian gradient     ...    0.0334506718
RMS gradient                       ...    0.0055751120
MAX gradient                       ...    0.0127638143

-------
TIMINGS
-------

Total SCF gradient time            ...        8.015 sec

One electron gradient       ....       0.058 sec  (  0.7%)
Prescreening matrices       ....       0.078 sec  (  1.0%)
RI-J Coulomb gradient       ....       0.720 sec  (  9.0%)
COSX gradient               ....       3.899 sec  ( 48.6%)
XC gradient                 ....       2.776 sec  ( 34.6%)
------------------------------------------------------------------------------
                         ORCA GEOMETRY RELAXATION STEP
------------------------------------------------------------------------------

Reading the OPT-File                    .... done
Getting information on internals        .... done
Copying old internal coords+grads       .... done
Making the new internal coordinates     .... (new redundants).... done
Validating the new internal coordinates .... (new redundants).... done
Calculating the B-matrix                .... done
Calculating the G,G- and P matrices     .... done
Transforming gradient to internals      .... done
Projecting the internal gradient        .... done
Number of atoms                         ....  12
Number of internal coordinates          ....  61
Current Energy                          .... -1027.043145213 Eh
Current gradient norm                   ....     0.033450672 Eh/bohr
Maximum allowed component of the step   ....  0.300
Current trust radius                    ....  0.300
Evaluating the initial hessian          ....  (Almloef) done
Projecting the Hessian                  .... done
Forming the augmented Hessian           .... done
Diagonalizing the augmented Hessian     .... done
Last element of RFO vector              ....  0.995912688
Lowest eigenvalues of augmented Hessian:
 -0.003984947  0.015011632  0.016430054  0.022833358  0.023713435
Length of the computed step             ....  0.090691881
The final length of the internal step   ....  0.090691881
Converting the step to cartesian space:
 Initial RMS(Int)=    0.0116119054
Transforming coordinates:
 Iter   0:  RMS(Cart)=    0.0242175073 RMS(Int)=    2.4132396183
 Iter   1:  RMS(Cart)=    0.0000368527 RMS(Int)=    0.0000206397
 Iter   2:  RMS(Cart)=    0.0000005100 RMS(Int)=    0.0000002813
 Iter   3:  RMS(Cart)=    0.0000000071 RMS(Int)=    0.0000000039
done
Storing new coordinates                 .... done

                                .--------------------.
          ----------------------|Geometry convergence|-------------------------
          Item                value                   Tolerance       Converged
          ---------------------------------------------------------------------
          RMS gradient        0.0058071786            0.0001000000      NO
          MAX gradient        0.0175904667            0.0003000000      NO
          RMS step            0.0116119054            0.0020000000      NO
          MAX step            0.0336004023            0.0040000000      NO
          ........................................................
          Max(Bonds)      0.0178      Max(Angles)    0.50
          Max(Dihed)        0.10      Max(Improp)    0.00
          ---------------------------------------------------------------------

The optimization has not yet converged - more geometry cycles are needed


    ---------------------------------------------------------------------------
                         Redundant Internal Coordinates
                            (Angstroem and degrees)

        Definition                    Value    dE/dq     Step     New-Value
    ----------------------------------------------------------------------------
     1. B(S   1,C   0)                1.7236 -0.006346  0.0064    1.7301   
     2. B(C   2,S   1)                1.7199 -0.005331  0.0053    1.7252   
     3. B(C   3,C   2)                1.3650 -0.017034  0.0132    1.3783   
     4. B(C   4,C   3)                1.4349 -0.010787  0.0110    1.4459   
     5. B(C   4,C   0)                1.3571 -0.017590  0.0132    1.3704   
     6. B(S   5,C   4)                1.7409 -0.009527  0.0103    1.7512   
     7. B(C   6,S   5)                1.7474 -0.008374  0.0096    1.7570   
     8. B(C   7,C   6)                1.3458 -0.014768  0.0108    1.3566   
     9. B(C   7,C   3)                1.4295 -0.013982  0.0139    1.4434   
    10. B(H   8,C   0)                1.0703 -0.013031  0.0176    1.0879   
    11. B(H   9,C   2)                1.0709 -0.013111  0.0178    1.0887   
    12. B(H  10,C   6)                1.0732 -0.012550  0.0172    1.0903   
    13. B(H  11,C   7)                1.0747 -0.011385  0.0157    1.0904   
    14. A(S   1,C   0,H   8)          120.16 -0.000946    0.14    120.30   
    15. A(C   4,C   0,H   8)          129.53 -0.000481    0.06    129.59   
    16. A(S   1,C   0,C   4)          110.31  0.001428   -0.20    110.12   
    17. A(C   0,S   1,C   2)           92.64 -0.004906    0.50     93.14   
    18. A(S   1,C   2,H   9)          119.63 -0.001123    0.16    119.79   
    19. A(C   3,C   2,H   9)          128.96 -0.000347    0.04    129.00   
    20. A(S   1,C   2,C   3)          111.41  0.001469   -0.20    111.21   
    21. A(C   2,C   3,C   7)          136.78 -0.000662    0.02    136.79   
    22. A(C   4,C   3,C   7)          111.54  0.000145   -0.00    111.54   
    23. A(C   2,C   3,C   4)          111.68  0.000517   -0.02    111.66   
    24. A(C   3,C   4,S   5)          111.54  0.000659   -0.17    111.37   
    25. A(C   0,C   4,S   5)          134.50 -0.002152    0.26    134.76   
    26. A(C   0,C   4,C   3)          113.96  0.001492   -0.09    113.87   
    27. A(C   4,S   5,C   6)           89.94 -0.003454    0.36     90.29   
    28. A(S   5,C   6,C   7)          114.83  0.001687   -0.17    114.66   
    29. A(C   7,C   6,H  10)          127.65  0.001003   -0.21    127.44   
    30. A(S   5,C   6,H  10)          117.52 -0.002690    0.37    117.90   
    31. A(C   3,C   7,C   6)          112.15  0.000963   -0.01    112.13   
    32. A(C   6,C   7,H  11)          124.23  0.001249   -0.27    123.96   
    33. A(C   3,C   7,H  11)          123.63 -0.002211    0.28    123.91   
    34. D(C   2,S   1,C   0,H   8)   -179.99  0.000004   -0.01   -180.00   
    35. D(C   2,S   1,C   0,C   4)     -0.01 -0.000008    0.02      0.01   
    36. D(C   3,C   2,S   1,C   0)      0.01  0.000005   -0.01     -0.00   
    37. D(H   9,C   2,S   1,C   0)    180.00 -0.000001   -0.01    179.99   
    38. D(C   4,C   3,C   2,H   9)   -179.99  0.000006   -0.00   -180.00   
    39. D(C   7,C   3,C   2,S   1)    179.99 -0.000008   -0.00    179.99   
    40. D(C   7,C   3,C   2,H   9)     -0.00 -0.000001   -0.00     -0.01   
    41. D(C   4,C   3,C   2,S   1)     -0.00 -0.000001   -0.00     -0.00   
    42. D(C   0,C   4,C   3,C   7)   -180.00 -0.000001    0.02   -179.98   
    43. D(S   5,C   4,C   0,H   8)      0.02  0.000008   -0.01      0.00   
    44. D(S   5,C   4,C   0,S   1)   -179.96  0.000022   -0.05   -180.01   
    45. D(C   3,C   4,C   0,H   8)    179.99 -0.000004    0.01    180.00   
    46. D(C   3,C   4,C   0,S   1)      0.01  0.000010   -0.02     -0.01   
    47. D(S   5,C   4,C   3,C   2)    179.97 -0.000016    0.04    180.01   
    48. D(S   5,C   4,C   3,C   7)     -0.02 -0.000011    0.04      0.02   
    49. D(C   0,C   4,C   3,C   2)     -0.01 -0.000006    0.02      0.01   
    50. D(C   6,S   5,C   4,C   3)      0.04  0.000026   -0.07     -0.03   
    51. D(C   6,S   5,C   4,C   0)   -179.99  0.000015   -0.05   -180.03   
    52. D(H  10,C   6,S   5,C   4)    179.99 -0.000011    0.03    180.02   
    53. D(C   7,C   6,S   5,C   4)     -0.06 -0.000041    0.10      0.04   
    54. D(H  11,C   7,C   6,H  10)     -0.00 -0.000007    0.02      0.01   
    55. D(C   3,C   7,C   6,H  10)   -179.99  0.000008   -0.02   -180.02   
    56. D(C   3,C   7,C   6,S   5)      0.06  0.000044   -0.10     -0.04   
    57. D(H  11,C   7,C   3,C   4)    179.99 -0.000006   -0.00    179.98   
    58. D(H  11,C   7,C   3,C   2)     -0.00  0.000001   -0.00     -0.01   
    59. D(H  11,C   7,C   6,S   5)   -179.95  0.000029   -0.06   -180.01   
    60. D(C   6,C   7,C   3,C   4)     -0.02 -0.000020    0.04      0.01   
    61. D(C   6,C   7,C   3,C   2)    179.99 -0.000014    0.04    180.02   
    ----------------------------------------------------------------------------

         *************************************************************
         *                GEOMETRY OPTIMIZATION CYCLE   2            *
         *************************************************************
---------------------------------
CARTESIAN COORDINATES (ANGSTROEM)
---------------------------------
  C     -1.384269   -1.223046    0.001093
  S     -2.509231    0.091336    0.001306
  C     -1.262075    1.283291    0.001013
  C     -0.013844    0.698902    0.000864
  C     -0.100191   -0.744380    0.001048
  S      1.489554   -1.478807    0.001119
  C      2.234551    0.112428   -0.000037
  C      1.357978    1.147796    0.000404
  H     -1.741036   -2.250816    0.001246
  H     -1.523837    2.340077    0.000905
  H      3.323560    0.165849   -0.000712
  H      1.654660    2.197059   -0.000061

----------------------------
CARTESIAN COORDINATES (A.U.)
----------------------------
  NO LB      ZA    FRAG     MASS         X           Y           Z
   0 C     6.0000    0    12.011   -2.615890   -2.311222    0.002065
   1 S    16.0000    0    32.060   -4.741759    0.172601    0.002469
   2 C     6.0000    0    12.011   -2.384976    2.425068    0.001914
   3 C     6.0000    0    12.011   -0.026162    1.320734    0.001634
   4 C     6.0000    0    12.011   -0.189334   -1.406674    0.001981
   5 S    16.0000    0    32.060    2.814849   -2.794539    0.002115
   6 C     6.0000    0    12.011    4.222690    0.212459   -0.000070
   7 C     6.0000    0    12.011    2.566206    2.169021    0.000763
   8 H     1.0000    0     1.008   -3.290081   -4.253426    0.002355
   9 H     1.0000    0     1.008   -2.879634    4.422104    0.001710
  10 H     1.0000    0     1.008    6.280619    0.313409   -0.001345
  11 H     1.0000    0     1.008    3.126854    4.151839   -0.000115

--------------------------------
INTERNAL COORDINATES (ANGSTROEM)
--------------------------------
 C      0   0   0     0.000000000000     0.00000000     0.00000000
 S      1   0   0     1.730069204604     0.00000000     0.00000000
 C      2   1   0     1.725153251881    93.14375502     0.00000000
 C      3   2   1     1.378256038526   111.20873225     0.00000000
 C      1   2   3     1.370393555785   110.11579428     0.00000000
 S      5   1   2     1.751191872030   134.76014561   179.98803993
 C      6   5   1     1.757000553298    90.29253640   179.96722639
 C      7   6   5     1.356601799283   114.65929770     0.04029817
 H      1   2   3     1.087930901339   120.29698861   179.99665792
 H      3   2   1     1.088721902974   119.79157947   179.99142536
 H      7   6   5     1.090318865895   117.89677678   180.02266152
 H      8   7   6     1.090399865787   123.95930919   179.99193217

---------------------------
INTERNAL COORDINATES (A.U.)
---------------------------
 C      0   0   0     0.000000000000     0.00000000     0.00000000
 S      1   0   0     3.269356989432     0.00000000     0.00000000
 C      2   1   0     3.260067185098    93.14375502     0.00000000
 C      3   2   1     2.604526455237   111.20873225     0.00000000
 C      1   2   3     2.589668516125   110.11579428     0.00000000
 S      5   1   2     3.309273046086   134.76014561   179.98803993
 C      6   5   1     3.320249862881    90.29253640   179.96722639
 C      7   6   5     2.563605873430   114.65929770     0.04029817
 H      1   2   3     2.055891456160   120.29698861   179.99665792
 H      3   2   1     2.057386232623   119.79157947   179.99142536
 H      7   6   5     2.060404055188   117.89677678   180.02266152
 H      8   7   6     2.060557122802   123.95930919   179.99193217

 One Electron integrals                  ... done
 Pre-screening matrix                    ... done

Diagonalization of the overlap matrix:
Smallest eigenvalue                        ... 8.233e-04
Time for diagonalization                   ...    0.004 sec
Threshold for overlap eigenvalues          ... 1.000e-08
Number of eigenvalues below threshold      ... 0
Time for construction of square roots      ...    0.001 sec
Total time needed                          ...    0.005 sec

-------------------
DFT GRID GENERATION
-------------------

General Integration Accuracy     IntAcc      ...  4.340
Radial Grid Type                 RadialGrid  ... Gauss-Chebyshev
Angular Grid (max. acc.)         AngularGrid ... Lebedev-110
Angular grid pruning method      GridPruning ... 3 (G Style)
Weight generation scheme         WeightScheme... Becke
Basis function cutoff            BFCut       ...    1.0000e-11
Integration weight cutoff        WCut        ...    1.0000e-14
Grids for H and He will be reduced by one unit

# of grid points (after initial pruning)     ...  16724 (   0.0 sec)
# of grid points (after weights+screening)   ...  15720 (   0.0 sec)
nearest neighbour list constructed           ...    0.0 sec
Grid point re-assignment to atoms done       ...    0.0 sec
Grid point division into batches done        ...    0.0 sec
Reduced shell lists constructed in    0.1 sec

Total number of grid points                  ...    15720
Total number of batches                      ...      250
Average number of points per batch           ...       62
Average number of grid points per atom       ...     1310
Average number of shells per batch           ...    45.75 (71.49%)
Average number of basis functions per batch  ...   102.22 (73.02%)
Average number of large shells per batch     ...    37.12 (81.13%)
Average number of large basis fcns per batch ...    81.75 (79.97%)
Maximum spatial batch extension              ...  18.23, 20.19, 25.60 au
Average spatial batch extension              ...   3.93,  3.91,  5.53 au

Time for grid setup =    0.111 sec

--------------------
COSX GRID GENERATION
--------------------

General Integration Accuracy     IntAcc      ...  3.340
Radial Grid Type                 RadialGrid  ... Gauss-Chebyshev
Angular Grid (max. acc.)         AngularGrid ... Lebedev-50
Angular grid pruning method      GridPruning ... 3 (G Style)
Weight generation scheme         WeightScheme... Becke
Basis function cutoff            BFCut       ...    1.0000e-11
Integration weight cutoff        WCut        ...    1.0000e-14
Grids for H and He will be reduced by one unit

# of grid points (after initial pruning)     ...   6172 (   0.0 sec)
# of grid points (after weights+screening)   ...   5872 (   0.0 sec)
nearest neighbour list constructed           ...    0.0 sec
Grid point re-assignment to atoms done       ...    0.0 sec
Grid point division into batches done        ...    0.0 sec
Reduced shell lists constructed in    0.1 sec

Total number of grid points                  ...     5872
Total number of batches                      ...       98
Average number of points per batch           ...       59
Average number of grid points per atom       ...      489
Average number of shells per batch           ...    49.28 (77.00%)
Average number of basis functions per batch  ...   110.49 (78.92%)
Average number of large shells per batch     ...    40.16 (81.49%)
Average number of large basis fcns per batch ...    88.73 (80.30%)
Maximum spatial batch extension              ...  16.02, 20.87, 35.81 au
Average spatial batch extension              ...   4.88,  4.92,  7.69 au

Overlap Fitting                  UseSFitting ... on
Constructing numerical overlap ... done (      0.0 sec)
Inverting numerical overlap    ... done (      0.0 sec)
Obtaining analytic overlap     ... done (      0.0 sec)
Final contraction and storage  ... done (      0.0 sec)


General Integration Accuracy     IntAcc      ...  3.670
Radial Grid Type                 RadialGrid  ... Gauss-Chebyshev
Angular Grid (max. acc.)         AngularGrid ... Lebedev-50
Angular grid pruning method      GridPruning ... 3 (G Style)
Weight generation scheme         WeightScheme... Becke
Basis function cutoff            BFCut       ...    1.0000e-11
Integration weight cutoff        WCut        ...    1.0000e-14
Grids for H and He will be reduced by one unit

# of grid points (after initial pruning)     ...   7720 (   0.0 sec)
# of grid points (after weights+screening)   ...   7333 (   0.0 sec)
nearest neighbour list constructed           ...    0.0 sec
Grid point re-assignment to atoms done       ...    0.0 sec
Grid point division into batches done        ...    0.0 sec
Reduced shell lists constructed in    0.0 sec

Total number of grid points                  ...     7333
Total number of batches                      ...      121
Average number of points per batch           ...       60
Average number of grid points per atom       ...      611
Average number of shells per batch           ...    48.26 (75.41%)
Average number of basis functions per batch  ...   108.11 (77.22%)
Average number of large shells per batch     ...    38.98 (80.77%)
Average number of large basis fcns per batch ...    86.10 (79.64%)
Maximum spatial batch extension              ...  16.56, 23.16, 39.19 au
Average spatial batch extension              ...   4.51,  4.72,  7.30 au

Overlap Fitting                  UseSFitting ... on
Constructing numerical overlap ... done (      0.0 sec)
Inverting numerical overlap    ... done (      0.0 sec)
Obtaining analytic overlap     ... done (      0.0 sec)
Final contraction and storage  ... done (      0.0 sec)


General Integration Accuracy     IntAcc      ...  4.010
Radial Grid Type                 RadialGrid  ... Gauss-Chebyshev
Angular Grid (max. acc.)         AngularGrid ... Lebedev-110
Angular grid pruning method      GridPruning ... 3 (G Style)
Weight generation scheme         WeightScheme... Becke
Basis function cutoff            BFCut       ...    1.0000e-11
Integration weight cutoff        WCut        ...    1.0000e-14
Grids for H and He will be reduced by one unit

# of grid points (after initial pruning)     ...  14744 (   0.0 sec)
# of grid points (after weights+screening)   ...  13887 (   0.0 sec)
nearest neighbour list constructed           ...    0.0 sec
Grid point re-assignment to atoms done       ...    0.0 sec
Grid point division into batches done        ...    0.0 sec
Reduced shell lists constructed in    0.1 sec

Total number of grid points                  ...    13887
Total number of batches                      ...      223
Average number of points per batch           ...       62
Average number of grid points per atom       ...     1157
Average number of shells per batch           ...    46.25 (72.27%)
Average number of basis functions per batch  ...   103.35 (73.82%)
Average number of large shells per batch     ...    37.45 (80.97%)
Average number of large basis fcns per batch ...    82.52 (79.85%)
Maximum spatial batch extension              ...  17.55, 21.47, 41.97 au
Average spatial batch extension              ...   4.06,  4.08,  5.63 au

Overlap Fitting                  UseSFitting ... on
Constructing numerical overlap ... done (      0.1 sec)
Inverting numerical overlap    ... done (      0.0 sec)
Obtaining analytic overlap     ... done (      0.0 sec)
Final contraction and storage  ... done (      0.0 sec)

Time for X-Grid setup             =    0.544 sec
--------------
SCF ITERATIONS
--------------
ITER       Energy         Delta-E        Max-DP      RMS-DP      [F,P]     Damp
               ***  Starting incremental Fock matrix formation  ***
                      *** Initiating the SOSCF procedure ***
                      *** Re-Reading the Fockian *** 
                      *** Removing any level shift *** 
ITER      Energy       Delta-E        Grad      Rot      Max-DP    RMS-DP
  0  -1027.01610161 -1027.0161016097  0.002852  0.002852  0.018628  0.000692
               *** Restarting incremental Fock matrix formation ***
  1  -1027.01643835  -0.0003367442  0.001012  0.004212  0.004361  0.000221
  2  -1027.01639153   0.0000468225  0.001769  0.003086  0.002800  0.000130
  3  -1027.01647717  -0.0000856364  0.000183  0.000578  0.000961  0.000033
  4  -1027.01647524   0.0000019268  0.000322  0.000347  0.000635  0.000019
  5  -1027.01647821  -0.0000029679  0.000019  0.000109  0.000181  0.000005
  6  -1027.01647822  -0.0000000143  0.000046  0.000102  0.000103  0.000003
  7  -1027.01647824  -0.0000000173  0.000011  0.000034  0.000071  0.000002
  8  -1027.01647823   0.0000000075  0.000008  0.000017  0.000043  0.000001
                  ***Gradient check signals convergence***
              ***Rediagonalizing the Fockian in SOSCF/NRSCF***

[...]
  14   2.0000      -5.928091      -161.3116 
  15   2.0000      -5.923165      -161.1775 
  16   2.0000      -0.899202       -24.4685 
  17   2.0000      -0.839286       -22.8381 
  18   2.0000      -0.753410       -20.5013 
  19   2.0000      -0.716490       -19.4967 
  20   2.0000      -0.689366       -18.7586 
  21   2.0000      -0.589039       -16.0286 
  22   2.0000      -0.566067       -15.4035 
  23   2.0000      -0.533945       -14.5294 
  24   2.0000      -0.497428       -13.5357 
  25   2.0000      -0.437047       -11.8927 
  26   2.0000      -0.430123       -11.7042 
  27   2.0000      -0.409867       -11.1531 
  28   2.0000      -0.404587       -11.0094 
  29   2.0000      -0.385679       -10.4949 
  30   2.0000      -0.353033        -9.6065 
  31   2.0000      -0.339720        -9.2442 
  32   2.0000      -0.339628        -9.2418 
  33   2.0000      -0.284222        -7.7341 
  34   2.0000      -0.243229        -6.6186 
  35   2.0000      -0.209396        -5.6980 
  36   0.0000      -0.039736        -1.0813 
  37   0.0000       0.012665         0.3446 
  38   0.0000       0.030935         0.8418 
  39   0.0000       0.035379         0.9627 
  40   0.0000       0.078789         2.1440 
  41   0.0000       0.086877         2.3640 
  42   0.0000       0.089770         2.4428 
  43   0.0000       0.098266         2.6740 
  44   0.0000       0.115112         3.1324 
  45   0.0000       0.143902         3.9158 
  46   0.0000       0.153141         4.1672 
  47   0.0000       0.243459         6.6249 
  48   0.0000       0.268106         7.2955 
  49   0.0000       0.294269         8.0075 
  50   0.0000       0.329101         8.9553 
  51   0.0000       0.329596         8.9688 
  52   0.0000       0.366342         9.9687 
  53   0.0000       0.381555        10.3826 
  54   0.0000       0.405137        11.0243 
  55   0.0000       0.412423        11.2226 
  56   0.0000       0.425196        11.5702 
  57   0.0000       0.443766        12.0755 
  58   0.0000       0.450814        12.2673 
  59   0.0000       0.467576        12.7234 
  60   0.0000       0.497259        13.5311 
  61   0.0000       0.498048        13.5526 
  62   0.0000       0.516324        14.0499 
  63   0.0000       0.525914        14.3109 
  64   0.0000       0.560704        15.2575 
  65   0.0000       0.561035        15.2665 
  66   0.0000       0.578436        15.7400 
  67   0.0000       0.606011        16.4904 
  68   0.0000       0.627748        17.0819 
  69   0.0000       0.628821        17.1111 
  70   0.0000       0.639510        17.4019 
  71   0.0000       0.656921        17.8757 
  72   0.0000       0.657112        17.8809 
  73   0.0000       0.675912        18.3925 
  74   0.0000       0.679770        18.4975 
  75   0.0000       0.687429        18.7059 
  76   0.0000       0.703100        19.1323 
  77   0.0000       0.729769        19.8580 
  78   0.0000       0.742240        20.1974 
  79   0.0000       0.759210        20.6592 
  80   0.0000       0.763017        20.7627 
  81   0.0000       0.782698        21.2983 
  82   0.0000       0.783043        21.3077 
  83   0.0000       0.790980        21.5237 
  84   0.0000       0.817926        22.2569 
  85   0.0000       0.828776        22.5521 
  86   0.0000       0.846091        23.0233 
  87   0.0000       0.932169        25.3656 
  88   0.0000       0.950313        25.8593 
  89   0.0000       1.014433        27.6041 
  90   0.0000       1.104506        30.0551 
  91   0.0000       1.115985        30.3675 
  92   0.0000       1.127990        30.6942 
  93   0.0000       1.162667        31.6378 
  94   0.0000       1.180588        32.1254 
  95   0.0000       1.190330        32.3905 
  96   0.0000       1.207138        32.8479 
  97   0.0000       1.255777        34.1714 
  98   0.0000       1.262248        34.3475 
  99   0.0000       1.281526        34.8721 
 100   0.0000       1.282404        34.8960 
 101   0.0000       1.402135        38.1540 
 102   0.0000       1.523800        41.4647 
 103   0.0000       1.552288        42.2399 
 104   0.0000       1.645346        44.7721 
 105   0.0000       1.652565        44.9686 
 106   0.0000       1.668409        45.3997 
 107   0.0000       1.731943        47.1286 
 108   0.0000       1.756441        47.7952 
 109   0.0000       1.776371        48.3375 
 110   0.0000       1.790749        48.7288 
 111   0.0000       1.820007        49.5249 
 112   0.0000       1.851372        50.3784 
 113   0.0000       1.909533        51.9610 
 114   0.0000       1.930897        52.5424 
 115   0.0000       1.942697        52.8635 
 116   0.0000       1.985506        54.0284 
 117   0.0000       1.988502        54.1099 
 118   0.0000       2.027177        55.1623 
 119   0.0000       2.093660        56.9714 
 120   0.0000       2.108380        57.3719 
 121   0.0000       2.135536        58.1109 
 122   0.0000       2.192983        59.6741 
 123   0.0000       2.229891        60.6784 
 124   0.0000       2.282616        62.1131 
 125   0.0000       2.284924        62.1759 
 126   0.0000       2.331400        63.4406 
 127   0.0000       2.378401        64.7196 
 128   0.0000       2.384404        64.8829 
 129   0.0000       2.463921        67.0467 
 130   0.0000       2.569787        69.9275 
 131   0.0000       2.606209        70.9186 
 132   0.0000       2.629218        71.5447 
 133   0.0000       2.649615        72.0997 
 134   0.0000       2.729337        74.2690 
 135   0.0000       2.780403        75.6586 
 136   0.0000       2.938413        79.9583 
 137   0.0000       3.010349        81.9158 
 138   0.0000       3.245152        88.3051 
 139   0.0000       3.331645        90.6587 

                    ********************************
                    * MULLIKEN POPULATION ANALYSIS *
                    ********************************

-----------------------
MULLIKEN ATOMIC CHARGES
-----------------------
   0 C :   -0.157967
   1 S :    0.108151
   2 C :   -0.139699
   3 C :    0.090955
   4 C :   -0.016132
   5 S :    0.085952
   6 C :   -0.084116
   7 C :    0.050057
   8 H :    0.022963
   9 H :    0.020435
  10 H :    0.033755
  11 H :   -0.014354
Sum of atomic charges:    0.0000000

--------------------------------
MULLIKEN REDUCED ORBITAL CHARGES
--------------------------------
  0 C s       :     3.235943  s :     3.235943
      pz      :     1.140250  p :     2.887289
      px      :     0.924993
      py      :     0.822046
      dz2     :     0.003105  d :     0.034735
      dxz     :     0.007080
      dyz     :     0.002956
      dx2y2   :     0.008362
      dxy     :     0.013232
  1 S s       :     5.841827  s :     5.841827
      pz      :     3.629575  p :     9.932499
      px      :     3.342701
      py      :     2.960223
      dz2     :     0.012597  d :     0.117523
      dxz     :     0.011486
      dyz     :     0.027932
      dx2y2   :     0.017041
      dxy     :     0.048467
  2 C s       :     3.210527  s :     3.210527
      pz      :     1.139173  p :     2.894559
      px      :     0.918183
      py      :     0.837202
      dz2     :     0.003070  d :     0.034614
      dxz     :     0.006997
      dyz     :     0.002850
      dx2y2   :     0.008455
      dxy     :     0.013241
  3 C s       :     3.058805  s :     3.058805
      pz      :     1.015564  p :     2.805669
      px      :     0.819142
      py      :     0.970963
      dz2     :     0.003450  d :     0.044571
      dxz     :     0.009326
      dyz     :     0.005478
      dx2y2   :     0.015613
      dxy     :     0.010704
  4 C s       :     3.012106  s :     3.012106
      pz      :     1.069208  p :     2.959120
      px      :     0.887635
      py      :     1.002277
      dz2     :     0.003616  d :     0.044905
      dxz     :     0.009241
      dyz     :     0.005812
      dx2y2   :     0.013855
      dxy     :     0.012383
  5 S s       :     5.856689  s :     5.856689
      pz      :     3.747892  p :     9.956705
      px      :     2.969922
      py      :     3.238891
      dz2     :     0.012118  d :     0.100654
      dxz     :     0.015021
      dyz     :     0.011914
      dx2y2   :     0.028682
      dxy     :     0.032919
  6 C s       :     3.172356  s :     3.172356
      pz      :     1.072032  p :     2.875901
      px      :     0.921282
      py      :     0.882586
      dz2     :     0.002983  d :     0.035859
      dxz     :     0.003023
      dyz     :     0.007550
      dx2y2   :     0.012472
      dxy     :     0.009831
  7 C s       :     3.181653  s :     3.181653
      pz      :     1.027705  p :     2.733418
      px      :     0.930799
      py      :     0.774913
      dz2     :     0.002686  d :     0.034873
      dxz     :     0.006146
      dyz     :     0.003867
      dx2y2   :     0.011047
      dxy     :     0.011126
  8 H s       :     0.953108  s :     0.953108
      pz      :     0.005805  p :     0.023929
      px      :     0.004304
      py      :     0.013819
  9 H s       :     0.955874  s :     0.955874
      pz      :     0.005719  p :     0.023691
      px      :     0.003574
      py      :     0.014398
 10 H s       :     0.942956  s :     0.942956
      pz      :     0.005111  p :     0.023290
      px      :     0.015238
      py      :     0.002941
 11 H s       :     0.990691  s :     0.990691
      pz      :     0.005283  p :     0.023663
      px      :     0.004266
      py      :     0.014114


                     *******************************
                     * LOEWDIN POPULATION ANALYSIS *
                     *******************************

----------------------
LOEWDIN ATOMIC CHARGES
----------------------
   0 C :   -0.222440
   1 S :    0.449316
   2 C :   -0.207336
   3 C :   -0.078715
   4 C :   -0.191004
   5 S :    0.361401
   6 C :   -0.159154
   7 C :   -0.062998
   8 H :    0.026561
   9 H :    0.025767
  10 H :    0.026579
  11 H :    0.032024

-------------------------------
LOEWDIN REDUCED ORBITAL CHARGES
-------------------------------
  0 C s       :     2.928039  s :     2.928039
      pz      :     1.138032  p :     3.210568
      px      :     1.048063
      py      :     1.024473
      dz2     :     0.006335  d :     0.083833
      dxz     :     0.014911
      dyz     :     0.004794
      dx2y2   :     0.022964
      dxy     :     0.034830
  1 S s       :     5.504286  s :     5.504286
      pz      :     3.581311  p :     9.903398
      px      :     3.361303
      py      :     2.960783
      dz2     :     0.015711  d :     0.143001
      dxz     :     0.010910
      dyz     :     0.034339
      dx2y2   :     0.018472
      dxy     :     0.063568
  2 C s       :     2.926673  s :     2.926673
      pz      :     1.131003  p :     3.198170
      px      :     1.036935
      py      :     1.030232
      dz2     :     0.006175  d :     0.082492
      dxz     :     0.014425
      dyz     :     0.004528
      dx2y2   :     0.022700
      dxy     :     0.034665
  3 C s       :     2.855522  s :     2.855522
      pz      :     1.010775  p :     3.107184
      px      :     1.061384
      py      :     1.035025
      dz2     :     0.008266  d :     0.116009
      dxz     :     0.018988
      dyz     :     0.011487
      dx2y2   :     0.047388
      dxy     :     0.029880
  4 C s       :     2.911284  s :     2.911284
      pz      :     1.067581  p :     3.172099
      px      :     1.054109
      py      :     1.050409
      dz2     :     0.007915  d :     0.107621
      dxz     :     0.018837
      dyz     :     0.011413
      dx2y2   :     0.039525
      dxy     :     0.029931
  5 S s       :     5.525806  s :     5.525806
      pz      :     3.707216  p :     9.988508
      px      :     2.993103
      py      :     3.288189
      dz2     :     0.015589  d :     0.124286
      dxz     :     0.018040
      dyz     :     0.012432
      dx2y2   :     0.034977
      dxy     :     0.043248
  6 C s       :     2.935997  s :     2.935997
      pz      :     1.060382  p :     3.138779
      px      :     1.057455
      py      :     1.020941
      dz2     :     0.005988  d :     0.084378
      dxz     :     0.004899
      dyz     :     0.015787
      dx2y2   :     0.031679
      dxy     :     0.026024
  7 C s       :     2.866556  s :     2.866556
      pz      :     1.019298  p :     3.105471
      px      :     1.034119
      py      :     1.052054
      dz2     :     0.006606  d :     0.090970
      dxz     :     0.013019
      dyz     :     0.006691
      dx2y2   :     0.031694
      dxy     :     0.032960
  8 H s       :     0.899194  s :     0.899194
      pz      :     0.018575  p :     0.074245
      px      :     0.013161
      py      :     0.042508
  9 H s       :     0.899943  s :     0.899943
      pz      :     0.018559  p :     0.074290
      px      :     0.011862
      py      :     0.043870
 10 H s       :     0.901414  s :     0.901414
      pz      :     0.016205  p :     0.072007
      px      :     0.044891
      py      :     0.010911
 11 H s       :     0.899448  s :     0.899448
      pz      :     0.015560  p :     0.068528
      px      :     0.013324
      py      :     0.039645


                      *****************************
                      * MAYER POPULATION ANALYSIS *
                      *****************************

  NA   - Mulliken gross atomic population
  ZA   - Total nuclear charge
  QA   - Mulliken gross atomic charge
  VA   - Mayer's total valence
  BVA  - Mayer's bonded valence
  FA   - Mayer's free valence

  ATOM       NA         ZA         QA         VA         BVA        FA
  0 C      6.1580     6.0000    -0.1580     3.8595     3.8595     0.0000
  1 S     15.8918    16.0000     0.1082     2.5550     2.5550     0.0000
  2 C      6.1397     6.0000    -0.1397     3.7609     3.7609     0.0000
  3 C      5.9090     6.0000     0.0910     3.9868     3.9868     0.0000
  4 C      6.0161     6.0000    -0.0161     3.8995     3.8995     0.0000
  5 S     15.9140    16.0000     0.0860     2.3389     2.3389    -0.0000
  6 C      6.0841     6.0000    -0.0841     3.8240     3.8240     0.0000
  7 C      5.9499     6.0000     0.0501     3.8624     3.8624     0.0000
  8 H      0.9770     1.0000     0.0230     1.0005     1.0005     0.0000
  9 H      0.9796     1.0000     0.0204     0.9988     0.9988     0.0000
 10 H      0.9662     1.0000     0.0338     0.9918     0.9918    -0.0000
 11 H      1.0144     1.0000    -0.0144     0.9893     0.9893    -0.0000

  Mayer bond orders larger than 0.100000
B(  0-C ,  1-S ) :   1.1707 B(  0-C ,  2-C ) :   0.1043 B(  0-C ,  4-C ) :   1.5260 
B(  0-C ,  8-H ) :   0.9752 B(  1-S ,  2-C ) :   1.1758 B(  2-C ,  3-C ) :   1.4612 
B(  2-C ,  9-H ) :   0.9663 B(  3-C ,  4-C ) :   1.2326 B(  3-C ,  7-C ) :   1.1393 
B(  4-C ,  5-S ) :   1.0353 B(  5-S ,  6-C ) :   1.0902 B(  6-C ,  7-C ) :   1.6535 
B(  6-C , 10-H ) :   0.9615 B(  7-C , 11-H ) :   0.9948 

-------
TIMINGS
-------

Total SCF time: 0 days 0 hours 0 min 16 sec 

Total time                  ....      16.783 sec
Sum of individual times     ....      16.664 sec  ( 99.3%)

Fock matrix formation       ....      15.151 sec  ( 90.3%)
  Split-RI-J                ....       1.565 sec  ( 10.3% of F)
  Chain of spheres X        ....      11.957 sec  ( 78.9% of F)
  COS-X 1 center corr.      ....       0.000 sec  (  0.0% of F)
  XC integration            ....       1.604 sec  ( 10.6% of F)
    Basis function eval.    ....       0.603 sec  ( 37.6% of XC)
    Density eval.           ....       0.318 sec  ( 19.8% of XC)
    XC-Functional eval.     ....       0.134 sec  (  8.3% of XC)
    XC-Potential eval.      ....       0.482 sec  ( 30.0% of XC)
Diagonalization             ....       0.003 sec  (  0.0%)
Density matrix formation    ....       0.002 sec  (  0.0%)
Population analysis         ....       0.003 sec  (  0.0%)
Initial guess               ....       0.003 sec  (  0.0%)
Orbital Transformation      ....       0.000 sec  (  0.0%)
Orbital Orthonormalization  ....       0.002 sec  (  0.0%)
DIIS solution               ....       0.000 sec  (  0.0%)
SOSCF solution              ....       0.006 sec  (  0.0%)
Grid generation             ....       1.496 sec  (  8.9%)


-------------------------------------------------------------------------------
                          DFT DISPERSION CORRECTION                            
                                                                               
                              DFTD3 V3.1  Rev 1                                
                          USING Becke-Johnson damping                          
-------------------------------------------------------------------------------
Gaussians B3LYP functional is recognized, using regular B3LYP params
Active option DFTDOPT                   ...         4   

molecular C6(AA) [au] = 3461.339463 


            DFT-D V3
 parameters
 s6 scaling factor         :     1.0000 
 a1 scaling factor         :     0.3981 
 s8 scaling factor         :     1.9889 
 a2 scaling factor         :     4.4211 
 ad hoc parameters k1-k3   :    16.0000     1.3333    -4.0000 

 Edisp/kcal,au: -18.056929080039  -0.028775545072 
 E6   /kcal   :  -7.587529531 
 E8   /kcal   : -10.469399549 
 % E8         :  57.979956075 

-------------------------   ----------------
Dispersion correction           -0.028775545
-------------------------   ----------------


-------------------------   --------------------
FINAL SINGLE POINT ENERGY     -1027.045411592755
-------------------------   --------------------

                                *** OPTIMIZATION RUN DONE ***

                            ***************************************
                            *     ORCA property calculations      *
                            ***************************************

                                    ---------------------
                                    Active property flags
                                    ---------------------
   (+) Dipole Moment


------------------------------------------------------------------------------
                       ORCA ELECTRIC PROPERTIES CALCULATION
------------------------------------------------------------------------------

Dipole Moment Calculation                       ... on
Quadrupole Moment Calculation                   ... off
Polarizability Calculation                      ... off
GBWName                                         ... 391.gbw
Electron density file                           ... 391.scfp
The origin for moment calculation is the CENTER OF MASS  = (-0.283826, -0.362816  0.001628)

-------------
DIPOLE MOMENT
-------------
                                X             Y             Z
Electronic contribution:     -2.12258      -2.79603       0.00139
Nuclear contribution   :      2.19937       3.06058      -0.00153
                        -----------------------------------------
Total Dipole Moment    :      0.07679       0.26455      -0.00014
                        -----------------------------------------
Magnitude (a.u.)       :      0.27547
Magnitude (Debye)      :      0.70019



--------------------
Rotational spectrum 
--------------------
 
Rotational constants in cm-1:     0.122972     0.039596     0.029952 
Rotational constants in MHz :  3686.598129  1187.049873   897.926184 

 Dipole components along the rotational axes: 
x,y,z [a.u.] :     0.024518     0.274378    -0.000058 
x,y,z [Debye]:     0.062319     0.697415    -0.000148 

 

Timings for individual modules:

Sum of individual times         ...      231.131 sec (=   3.852 min)
GTO integral calculation        ...        1.561 sec (=   0.026 min)   0.7 %
SCF iterations                  ...      182.495 sec (=   3.042 min)  79.0 %
SCF Gradient evaluation         ...       46.513 sec (=   0.775 min)  20.1 %
Geometry relaxation             ...        0.562 sec (=   0.009 min)   0.2 %
                             ****ORCA TERMINATED NORMALLY****
TOTAL RUN TIME: 0 days 0 hours 3 minutes 51 seconds 955 msec
