
                                 *****************
                                 * O   R   C   A *
                                 *****************

           --- An Ab Initio, DFT and Semiempirical electronic structure package ---

                  #######################################################
                  #                        -***-                        #
                  #          Department of theory and spectroscopy      #
                  #               Directorship: Frank Neese             #
                  #        Max Planck Institute fuer Kohlenforschung    #
                  #                Kaiser Wilhelm Platz 1               #
                  #                 D-45470 Muelheim/Ruhr               #
                  #                      Germany                        #
                  #                                                     #
                  #                  All rights reserved                #
                  #                        -***-                        #
                  #######################################################


                         Program Version 4.2.0 -  RELEASE  -


 With contributions from (in alphabetic order):
   Daniel Aravena         : Magnetic Suceptibility
   Michael Atanasov       : Ab Initio Ligand Field Theory (pilot matlab implementation)
   Alexander A. Auer      : GIAO ZORA, VPT2
   Ute Becker             : Parallelization
   Giovanni Bistoni       : ED, misc. LED, open-shell LED, HFLED
   Martin Brehm           : Molecular dynamics
   Dmytro Bykov           : SCF Hessian
   Vijay G. Chilkuri      : MRCI spin determinant printing, contributions to CSF-ICE
   Dipayan Datta          : RHF DLPNO-CCSD density
   Achintya Kumar Dutta   : EOM-CC, STEOM-CC
   Dmitry Ganyushin       : Spin-Orbit,Spin-Spin,Magnetic field MRCI
   Miquel Garcia          : C-PCM Hessian, Gaussian charge scheme
   Yang Guo               : DLPNO-NEVPT2, CIM, IAO-localization
   Andreas Hansen         : Spin unrestricted coupled pair/coupled cluster methods
   Benjamin Helmich-Paris : CASSCF linear response (MC-RPA)
   Lee Huntington         : MR-EOM, pCC
   Robert Izsak           : Overlap fitted RIJCOSX, COSX-SCS-MP3, EOM
   Christian Kollmar      : KDIIS, OOCD, Brueckner-CCSD(T), CCSD density
   Simone Kossmann        : Meta GGA functionals, TD-DFT gradient, OOMP2, MP2 Hessian
   Martin Krupicka        : AUTO-CI
   Lucas Lang             : DCDCAS
   Dagmar Lenk            : GEPOL surface, SMD
   Dimitrios Liakos       : Extrapolation schemes; Compound Job, initial MDCI parallelization
   Dimitrios Manganas     : Further ROCIS development; embedding schemes
   Dimitrios Pantazis     : SARC Basis sets
   Taras Petrenko         : DFT Hessian,TD-DFT gradient, ASA, ECA, R-Raman, ABS, FL, XAS/XES, NRVS
   Peter Pinski           : DLPNO-MP2, DLPNO-MP2 Gradient
   Christoph Reimann      : Effective Core Potentials
   Marius Retegan         : Local ZFS, SOC
   Christoph Riplinger    : Optimizer, TS searches, QM/MM, DLPNO-CCSD(T), (RO)-DLPNO pert. Triples
   Tobias Risthaus        : Range-separated hybrids, TD-DFT gradient, RPA, STAB
   Michael Roemelt        : Original ROCIS implementation
   Masaaki Saitow         : Open-shell DLPNO-CCSD energy and density
   Barbara Sandhoefer     : DKH picture change effects
   Avijit Sen             : IP-ROCIS
   Kantharuban Sivalingam : CASSCF convergence, NEVPT2, FIC-MRCI
   Bernardo de Souza      : ESD, SOC TD-DFT
   Georgi Stoychev        : AutoAux, RI-MP2 NMR
   Willem Van den Heuvel  : Paramagnetic NMR
   Boris Wezisla          : Elementary symmetry handling
   Frank Wennmohs         : Technical directorship


 We gratefully acknowledge several colleagues who have allowed us to
 interface, adapt or use parts of their codes:
   Stefan Grimme, W. Hujo, H. Kruse,             : VdW corrections, initial TS optimization,
                  C. Bannwarth                     DFT functionals, gCP, sTDA/sTD-DF
   Ed Valeev, F. Pavosevic, A. Kumar             : LibInt (2-el integral package), F12 methods
   Garnet Chan, S. Sharma, J. Yang, R. Olivares  : DMRG
   Ulf Ekstrom                                   : XCFun DFT Library
   Mihaly Kallay                                 : mrcc  (arbitrary order and MRCC methods)
   Andreas Klamt, Michael Diedenhofen            : otool_cosmo (COSMO solvation model)
   Jiri Pittner, Ondrej Demel                    : Mk-CCSD
   Frank Weinhold                                : gennbo (NPA and NBO analysis)
   Christopher J. Cramer and Donald G. Truhlar   : smd solvation model
   Lars Goerigk                                  : TD-DFT with DH, B97 family of functionals
   V. Asgeirsson, H. Jonsson                     : NEB implementation
   FAccTs GmbH                                   : IRC, NEB, NEB-TS, Multilevel, MM, QM/MM, CI optimization
   S Lehtola, MJT Oliveira, MAL Marques          : LibXC Library


 Your calculation uses the libint2 library for the computation of 2-el integrals
 For citations please refer to: http://libint.valeyev.net

 Your ORCA version has been built with support for libXC version: 4.2.3
 For citations please refer to: https://tddft.org/programs/libxc/

 This ORCA versions uses:
   CBLAS   interface :  Fast vector & matrix operations
   LAPACKE interface :  Fast linear algebra routines
   SCALAPACK package :  Parallel linear algebra routines


Your calculation utilizes the atom-pairwise dispersion correction
with the Becke-Johnson damping scheme (D3BJ)
Cite in your paper:
S.Grimme, S.Ehrlich, L.Goerigk, J Comput Chem, (2011), 32, 1456–1465 
S.Grimme, J.Antony, S.Ehrlich and H.Krieg, J.Chem.Phys., 132, (2010), 154104 
   

----- Orbital basis set information -----
Your calculation utilizes the basis: def2-SVP
   F. Weigend and R. Ahlrichs, Phys. Chem. Chem. Phys. 7, 3297 (2005).

----- AuxJ basis set information -----
Your calculation utilizes the auxiliary basis: def2/J
   F. Weigend, Phys. Chem. Chem. Phys. 8, 1057 (2006).

================================================================================
                                        WARNINGS
                       Please study these warnings very carefully!
================================================================================


WARNING: Geometry Optimization
  ===> : Switching off AutoStart
         For restart on a previous wavefunction, please use MOREAD

INFO   : the flag for use of LIBINT has been found!

================================================================================
                                       INPUT FILE
================================================================================
NAME = 428.inp
|  1> # ORCA input file
|  2> # SCF done        -34.183216817090          0.000977307609
|  3> ! B3LYP/G D3BJ Opt RIJCOSX def2-SVP def2/J
|  4> * xyz 0 1
|  5>    C        0.21963         1.00797        -0.00286
|  6>    S        1.83804         0.45629         0.00188
|  7>    C        1.33082        -1.17914        -0.00751
|  8>    C       -0.02508        -1.29299        -0.01433
|  9>    C       -0.67962        -0.02376        -0.01157
| 10>    C       -2.07903         0.14879        -0.01688
| 11>    N       -3.21438         0.29709        -0.02100
| 12>    C       -0.76482        -2.59175        -0.02389
| 13>    F        0.06909        -3.64255        -0.02629
| 14>    F       -1.55838        -2.73420         1.04861
| 15>    F       -1.55033        -2.72284        -1.10373
| 16>    H       -0.00057         2.05708         0.00083
| 17>    H        2.04888        -1.97526        -0.00774
| 18> *
| 19> 
| 20>                          ****END OF INPUT****
================================================================================

                       *****************************
                       * Geometry Optimization Run *
                       *****************************

Geometry optimization settings:
Update method            Update   .... BFGS
Choice of coordinates    CoordSys .... Z-matrix Internals
Initial Hessian          InHess   .... Almoef's Model

Convergence Tolerances:
Energy Change            TolE     ....  5.0000e-06 Eh
Max. Gradient            TolMAXG  ....  3.0000e-04 Eh/bohr
RMS Gradient             TolRMSG  ....  1.0000e-04 Eh/bohr
Max. Displacement        TolMAXD  ....  4.0000e-03 bohr
RMS Displacement         TolRMSD  ....  2.0000e-03 bohr
Strict Convergence                ....  False
------------------------------------------------------------------------------
                        ORCA OPTIMIZATION COORDINATE SETUP
------------------------------------------------------------------------------

The optimization will be done in new redundant internal coordinates
Making redundant internal coordinates   ...  (new redundants) done
Evaluating the initial hessian          ...  (Almloef) done
Evaluating the coordinates              ...  done
Calculating the B-matrix                .... done
Calculating the G-matrix                .... done
Diagonalizing the G-matrix              .... done
The first mode is                       ....   23
The number of degrees of freedom        ....   33

    -----------------------------------------------------------------
                    Redundant Internal Coordinates


    -----------------------------------------------------------------
         Definition                    Initial Value    Approx d2E/dq
    -----------------------------------------------------------------
      1. B(S   1,C   0)                  1.7099         0.520222   
      2. B(C   2,S   1)                  1.7123         0.515570   
      3. B(C   3,C   2)                  1.3607         0.695830   
      4. B(C   4,C   3)                  1.4281         0.543257   
      5. B(C   4,C   0)                  1.3686         0.675782   
      6. B(C   5,C   4)                  1.4100         0.580499   
      7. B(N   6,C   5)                  1.1450         1.376430   
      8. B(C   7,C   3)                  1.4947         0.425324   
      9. B(F   8,C   7)                  1.3415         0.621389   
     10. B(F   9,C   7)                  1.3417         0.620799   
     11. B(F  10,C   7)                  1.3417         0.620816   
     12. B(H  11,C   0)                  1.0720         0.384750   
     13. B(H  12,C   2)                  1.0721         0.384563   
     14. A(S   1,C   0,C   4)          112.2526         0.450901   
     15. A(C   4,C   0,H  11)          127.0714         0.362169   
     16. A(S   1,C   0,H  11)          120.6760         0.364538   
     17. A(C   0,S   1,C   2)           91.5912         0.453298   
     18. A(S   1,C   2,H  12)          120.7197         0.363948   
     19. A(S   1,C   2,C   3)          112.0317         0.452563   
     20. A(C   3,C   2,H  12)          127.2486         0.363952   
     21. A(C   2,C   3,C   7)          124.4653         0.414236   
     22. A(C   2,C   3,C   4)          112.4795         0.432760   
     23. A(C   4,C   3,C   7)          123.0552         0.396516   
     24. A(C   3,C   4,C   5)          124.3084         0.418946   
     25. A(C   0,C   4,C   5)          124.0466         0.435657   
     26. A(C   0,C   4,C   3)          111.6449         0.430493   
     27. L(C   4,C   5,N   6,C   3, 2) 179.9837         0.492866   
     28. L(C   4,C   5,N   6,C   3, 1) 180.4127         0.492866   
     29. A(C   3,C   7,F  10)          112.3204         0.401583   
     30. A(F   8,C   7,F   9)          106.6141         0.424898   
     31. A(C   3,C   7,F   9)          112.3243         0.401581   
     32. A(C   3,C   7,F   8)          111.9001         0.401649   
     33. A(F   9,C   7,F  10)          106.6594         0.424828   
     34. A(F   8,C   7,F  10)          106.6161         0.424900   
     35. D(C   2,S   1,C   0,C   4)     -0.0102         0.005527   
     36. D(C   2,S   1,C   0,H  11)    179.9952         0.005527   
     37. D(C   3,C   2,S   1,C   0)      0.0150         0.005452   
     38. D(H  12,C   2,S   1,C   0)   -179.9952         0.005452   
     39. D(C   4,C   3,C   2,H  12)    179.9951         0.034067   
     40. D(C   4,C   3,C   2,S   1)     -0.0159         0.034067   
     41. D(C   7,C   3,C   2,S   1)    179.9754         0.034067   
     42. D(C   7,C   3,C   2,H  12)     -0.0136         0.034067   
     43. D(C   0,C   4,C   3,C   7)   -179.9832         0.020173   
     44. D(C   0,C   4,C   3,C   2)      0.0083         0.020173   
     45. D(C   5,C   4,C   0,H  11)     -0.0143         0.031981   
     46. D(C   3,C   4,C   0,H  11)    179.9973         0.031981   
     47. D(C   3,C   4,C   0,S   1)      0.0031         0.031981   
     48. D(C   5,C   4,C   3,C   2)   -179.9802         0.020173   
     49. D(C   5,C   4,C   3,C   7)      0.0284         0.020173   
     50. D(C   5,C   4,C   0,S   1)    179.9916         0.031981   
     51. D(F  10,C   7,C   3,C   4)     60.0495         0.013367   
     52. D(F  10,C   7,C   3,C   2)   -119.9409         0.013367   
     53. D(F   9,C   7,C   3,C   4)    -60.1884         0.013367   
     54. D(F   9,C   7,C   3,C   2)    119.8212         0.013367   
     55. D(F   8,C   7,C   3,C   4)    179.9305         0.013367   
     56. D(F   8,C   7,C   3,C   2)     -0.0599         0.013367   
    -----------------------------------------------------------------

Number of atoms                         .... 13
Number of degrees of freedom            .... 56

         *************************************************************
         *                GEOMETRY OPTIMIZATION CYCLE   1            *
         *************************************************************
---------------------------------
CARTESIAN COORDINATES (ANGSTROEM)
---------------------------------
  C      0.219630    1.007970   -0.002860
  S      1.838040    0.456290    0.001880
  C      1.330820   -1.179140   -0.007510
  C     -0.025080   -1.292990   -0.014330
  C     -0.679620   -0.023760   -0.011570
  C     -2.079030    0.148790   -0.016880
  N     -3.214380    0.297090   -0.021000
  C     -0.764820   -2.591750   -0.023890
  F      0.069090   -3.642550   -0.026290
  F     -1.558380   -2.734200    1.048610
  F     -1.550330   -2.722840   -1.103730
  H     -0.000570    2.057080    0.000830
  H      2.048880   -1.975260   -0.007740

----------------------------
CARTESIAN COORDINATES (A.U.)
----------------------------
  NO LB      ZA    FRAG     MASS         X           Y           Z
   0 C     6.0000    0    12.011    0.415041    1.904787   -0.005405
   1 S    16.0000    0    32.060    3.473392    0.862263    0.003553
   2 C     6.0000    0    12.011    2.514885   -2.228252   -0.014192
   3 C     6.0000    0    12.011   -0.047394   -2.443397   -0.027080
   4 C     6.0000    0    12.011   -1.284296   -0.044900   -0.021864
   5 C     6.0000    0    12.011   -3.928797    0.281172   -0.031899
   6 N     7.0000    0    14.007   -6.074298    0.561419   -0.039684
   7 C     6.0000    0    12.011   -1.445300   -4.897698   -0.045146
   8 F     9.0000    0    18.998    0.130561   -6.883422   -0.049681
   9 F     9.0000    0    18.998   -2.944911   -5.166889    1.981586
  10 F     9.0000    0    18.998   -2.929699   -5.145422   -2.085747
  11 H     1.0000    0     1.008   -0.001077    3.887318    0.001568
  12 H     1.0000    0     1.008    3.871822   -3.732700   -0.014626

--------------------------------
INTERNAL COORDINATES (ANGSTROEM)
--------------------------------
 C      0   0   0     0.000000000000     0.00000000     0.00000000
 S      1   0   0     1.709860876826     0.00000000     0.00000000
 C      2   1   0     1.712305926346    91.59119974     0.00000000
 C      3   2   1     1.360688481946   112.03172039     0.00000000
 C      1   2   3     1.368646491794   112.25264628     0.00000000
 C      5   1   2     1.410017746945   124.04661741   179.99161173
 N      6   5   1     1.145001959343   179.58722253   358.96148857
 C      4   3   2     1.494685317651   124.46530607   179.97537029
 F      8   4   3     1.341488832641   111.90012935   359.94005946
 F      8   4   3     1.341747266105   112.32432934   119.82120126
 F      8   4   3     1.341739532771   112.32037434   240.05905539
 H      1   2   3     1.071976421476   120.67599797   179.99520102
 H      3   2   1     1.072108796205   120.71970133   180.00478462

---------------------------
INTERNAL COORDINATES (A.U.)
---------------------------
 C      0   0   0     0.000000000000     0.00000000     0.00000000
 S      1   0   0     3.231168784307     0.00000000     0.00000000
 C      2   1   0     3.235789258284    91.59119974     0.00000000
 C      3   2   1     2.571328584459   112.03172039     0.00000000
 C      1   2   3     2.586367043643   112.25264628     0.00000000
 C      5   1   2     2.664547385695   124.04661741   179.99161173
 N      6   5   1     2.163740125962   179.58722253   358.96148857
 C      4   3   2     2.824545906753   124.46530607   179.97537029
 F      8   4   3     2.535046505405   111.90012935   359.94005946
 F      8   4   3     2.535534873876   112.32432934   119.82120126
 F      8   4   3     2.535520259992   112.32037434   240.05905539
 H      1   2   3     2.025741858610   120.67599797   179.99520102
 H      3   2   1     2.025992010595   120.71970133   180.00478462

---------------------
BASIS SET INFORMATION
---------------------
There are 5 groups of distinct atoms

 Group   1 Type C   : 7s4p1d contracted to 3s2p1d pattern {511/31/1}
 Group   2 Type S   : 10s7p1d contracted to 4s3p1d pattern {5311/511/1}
 Group   3 Type N   : 7s4p1d contracted to 3s2p1d pattern {511/31/1}
 Group   4 Type F   : 7s4p1d contracted to 3s2p1d pattern {511/31/1}
 Group   5 Type H   : 4s1p contracted to 2s1p pattern {31/1}

Atom   0C    basis set group =>   1
Atom   1S    basis set group =>   2
Atom   2C    basis set group =>   1
Atom   3C    basis set group =>   1
Atom   4C    basis set group =>   1
Atom   5C    basis set group =>   1
Atom   6N    basis set group =>   3
Atom   7C    basis set group =>   1
Atom   8F    basis set group =>   4
Atom   9F    basis set group =>   4
Atom  10F    basis set group =>   4
Atom  11H    basis set group =>   5
Atom  12H    basis set group =>   5
---------------------------------
AUXILIARY/J BASIS SET INFORMATION
---------------------------------
There are 5 groups of distinct atoms

 Group   1 Type C   : 12s5p4d2f1g contracted to 6s4p3d1f1g pattern {711111/2111/211/2/1}
 Group   2 Type S   : 14s5p5d2f1g contracted to 8s4p3d1f1g pattern {71111111/2111/311/2/1}
 Group   3 Type N   : 12s5p4d2f1g contracted to 6s4p3d1f1g pattern {711111/2111/211/2/1}
 Group   4 Type F   : 12s5p4d2f1g contracted to 6s4p3d1f1g pattern {711111/2111/211/2/1}
 Group   5 Type H   : 5s2p1d contracted to 3s1p1d pattern {311/2/1}

Atom   0C    basis set group =>   1
Atom   1S    basis set group =>   2
Atom   2C    basis set group =>   1
Atom   3C    basis set group =>   1
Atom   4C    basis set group =>   1
Atom   5C    basis set group =>   1
Atom   6N    basis set group =>   3
Atom   7C    basis set group =>   1
Atom   8F    basis set group =>   4
Atom   9F    basis set group =>   4
Atom  10F    basis set group =>   4
Atom  11H    basis set group =>   5
Atom  12H    basis set group =>   5
------------------------------------------------------------------------------
                           ORCA GTO INTEGRAL CALCULATION
                           -- RI-GTO INTEGRALS CHOSEN --
------------------------------------------------------------------------------

                         BASIS SET STATISTICS AND STARTUP INFO

Gaussian basis set:
 # of primitive gaussian shells          ...  148
 # of primitive gaussian functions       ...  290
 # of contracted shells                  ...   74
 # of contracted basis functions         ...  168
 Highest angular momentum                ...    2
 Maximum contraction depth               ...    5
Auxiliary gaussian basis set:
 # of primitive gaussian shells          ...  283
 # of primitive gaussian functions       ...  809
 # of contracted shells                  ...  177
 # of contracted aux-basis functions     ...  563
 Highest angular momentum                ...    4
 Maximum contraction depth               ...    7
Ratio of auxiliary to basis functions    ...  3.35
Integral package used                  ... LIBINT
 One Electron integrals                  ... done
 Ordering auxiliary basis shells         ... done
 Integral threshhold             Thresh  ...  2.500e-11
 Primitive cut-off               TCut    ...  2.500e-12
 Pre-screening matrix                    ... done
 Shell pair data                         ... 
 Ordering of the shell pairs             ... done (   0.000 sec) 2507 of 2775 pairs
 Determination of significant pairs      ... done (   0.000 sec)
 Creation of shell pair data             ... done (   0.000 sec)
 Storage of shell pair data              ... done (   0.000 sec)
 Shell pair data done in (   0.001 sec)
 Computing two index integrals           ... done
 Cholesky decomposition of the V-matrix  ... done


Timings:
 Total evaluation time                   ...   0.107 sec (  0.002 min)
 One electron matrix time                ...   0.022 sec (  0.000 min) = 20.8%
 Schwartz matrix evaluation time         ...   0.054 sec (  0.001 min) = 50.3%
 Two index repulsion integral time       ...   0.005 sec (  0.000 min) =  4.5%
 Cholesky decomposition of V             ...   0.009 sec (  0.000 min) =  8.8%
 Three index repulsion integral time     ...   0.000 sec (  0.000 min) =  0.0%

-------------------------------------------------------------------------------
                                 ORCA SCF
-------------------------------------------------------------------------------

------------
SCF SETTINGS
------------
Hamiltonian:
 Density Functional     Method          .... DFT(GTOs)
 Exchange Functional    Exchange        .... B88
   X-Alpha parameter    XAlpha          ....  0.666667
   Becke's b parameter  XBeta           ....  0.004200
 Correlation Functional Correlation     .... LYP
 LDA part of GGA corr.  LDAOpt          .... VWN-3
 Gradients option       PostSCFGGA      .... off
 Hybrid DFT is turned on
   Fraction HF Exchange ScalHFX         ....  0.200000
   Scaling of DF-GGA-X  ScalDFX         ....  0.720000
   Scaling of DF-GGA-C  ScalDFC         ....  0.810000
   Scaling of DF-LDA-C  ScalLDAC        ....  1.000000
   Perturbative correction              ....  0.000000
   Density functional embedding theory  .... OFF
   NL short-range parameter             ....  4.800000
 RI-approximation to the Coulomb term is turned on
   Number of auxiliary basis functions  .... 563
   RIJ-COSX (HFX calculated with COS-X)).... on


General Settings:
 Integral files         IntName         .... 428
 Hartree-Fock type      HFTyp           .... RHF
 Total Charge           Charge          ....    0
 Multiplicity           Mult            ....    1
 Number of Electrons    NEL             ....   88
 Basis Dimension        Dim             ....  168
 Nuclear Repulsion      ENuc            ....    689.8904448604 Eh

Convergence Acceleration:
 DIIS                   CNVDIIS         .... on
   Start iteration      DIISMaxIt       ....    12
   Startup error        DIISStart       ....  0.200000
   # of expansion vecs  DIISMaxEq       ....     5
   Bias factor          DIISBfac        ....   1.050
   Max. coefficient     DIISMaxC        ....  10.000
 Newton-Raphson         CNVNR           .... off
 SOSCF                  CNVSOSCF        .... on
   Start iteration      SOSCFMaxIt      ....   150
   Startup grad/error   SOSCFStart      ....  0.003300
 Level Shifting         CNVShift        .... on
   Level shift para.    LevelShift      ....    0.2500
   Turn off err/grad.   ShiftErr        ....    0.0010
 Zerner damping         CNVZerner       .... off
 Static damping         CNVDamp         .... on
   Fraction old density DampFac         ....    0.7000
   Max. Damping (<1)    DampMax         ....    0.9800
   Min. Damping (>=0)   DampMin         ....    0.0000
   Turn off err/grad.   DampErr         ....    0.1000
 Fernandez-Rico         CNVRico         .... off

SCF Procedure:
 Maximum # iterations   MaxIter         ....   125
 SCF integral mode      SCFMode         .... Direct
   Integral package                     .... LIBINT
 Reset frequency        DirectResetFreq ....    20
 Integral Threshold     Thresh          ....  2.500e-11 Eh
 Primitive CutOff       TCut            ....  2.500e-12 Eh

Convergence Tolerance:
 Convergence Check Mode ConvCheckMode   .... Total+1el-Energy
 Convergence forced     ConvForced      .... 0
 Energy Change          TolE            ....  1.000e-08 Eh
 1-El. energy change                    ....  1.000e-05 Eh
 Orbital Gradient       TolG            ....  1.000e-05
 Orbital Rotation angle TolX            ....  1.000e-05
 DIIS Error             TolErr          ....  5.000e-07


Diagonalization of the overlap matrix:
Smallest eigenvalue                        ... 4.652e-04
Time for diagonalization                   ...    0.004 sec
Threshold for overlap eigenvalues          ... 1.000e-08
Number of eigenvalues below threshold      ... 0
Time for construction of square roots      ...    0.002 sec
Total time needed                          ...    0.007 sec

-------------------
DFT GRID GENERATION
-------------------

General Integration Accuracy     IntAcc      ...  4.340
Radial Grid Type                 RadialGrid  ... Gauss-Chebyshev
Angular Grid (max. acc.)         AngularGrid ... Lebedev-110
Angular grid pruning method      GridPruning ... 3 (G Style)
Weight generation scheme         WeightScheme... Becke
Basis function cutoff            BFCut       ...    1.0000e-11
Integration weight cutoff        WCut        ...    1.0000e-14
Grids for H and He will be reduced by one unit

# of grid points (after initial pruning)     ...  20252 (   0.0 sec)
# of grid points (after weights+screening)   ...  18979 (   0.0 sec)
nearest neighbour list constructed           ...    0.0 sec
Grid point re-assignment to atoms done       ...    0.0 sec
Grid point division into batches done        ...    0.0 sec
Reduced shell lists constructed in    0.2 sec

Total number of grid points                  ...    18979
Total number of batches                      ...      303
Average number of points per batch           ...       62
Average number of grid points per atom       ...     1460
Average number of shells per batch           ...    48.37 (65.37%)
Average number of basis functions per batch  ...   111.33 (66.27%)
Average number of large shells per batch     ...    37.01 (76.50%)
Average number of large basis fcns per batch ...    83.43 (74.94%)
Maximum spatial batch extension              ...  20.88, 17.69, 25.63 au
Average spatial batch extension              ...   3.90,  3.76,  4.21 au

Time for grid setup =    0.227 sec

------------------------------
INITIAL GUESS: MODEL POTENTIAL
------------------------------
Loading Hartree-Fock densities                     ... done
Calculating cut-offs                               ... done
Setting up the integral package                    ... done
Initializing the effective Hamiltonian             ... done
Starting the Coulomb interaction                   ... done (   0.2 sec)
Reading the grid                                   ... done
Mapping shells                                     ... done
Starting the XC term evaluation                    ... done (   0.2 sec)
  promolecular density results
     # of electrons  =     88.001776251
     EX              =    -93.207849402
     EC              =     -3.248574290
     EX+EC           =    -96.456423692
Transforming the Hamiltonian                       ... done (   0.0 sec)
Diagonalizing the Hamiltonian                      ... done (   0.0 sec)
Back transforming the eigenvectors                 ... done (   0.0 sec)
Now organizing SCF variables                       ... done
                      ------------------
                      INITIAL GUESS DONE (   0.7 sec)
                      ------------------
--------------------
COSX GRID GENERATION
--------------------

General Integration Accuracy     IntAcc      ...  3.340
Radial Grid Type                 RadialGrid  ... Gauss-Chebyshev
Angular Grid (max. acc.)         AngularGrid ... Lebedev-50
Angular grid pruning method      GridPruning ... 3 (G Style)
Weight generation scheme         WeightScheme... Becke
Basis function cutoff            BFCut       ...    1.0000e-11
Integration weight cutoff        WCut        ...    1.0000e-14
Grids for H and He will be reduced by one unit

# of grid points (after initial pruning)     ...   7132 (   0.0 sec)
# of grid points (after weights+screening)   ...   6748 (   0.0 sec)
nearest neighbour list constructed           ...    0.0 sec
Grid point re-assignment to atoms done       ...    0.0 sec
Grid point division into batches done        ...    0.0 sec
Reduced shell lists constructed in    0.0 sec

Total number of grid points                  ...     6748
Total number of batches                      ...      114
Average number of points per batch           ...       59
Average number of grid points per atom       ...      519
Average number of shells per batch           ...    52.57 (71.03%)
Average number of basis functions per batch  ...   122.08 (72.67%)
Average number of large shells per batch     ...    40.47 (76.99%)
Average number of large basis fcns per batch ...    91.76 (75.16%)
Maximum spatial batch extension              ...  16.79, 16.09, 18.16 au
Average spatial batch extension              ...   4.70,  4.66,  5.08 au

Overlap Fitting                  UseSFitting ... on
Constructing numerical overlap ... done (      0.1 sec)
Inverting numerical overlap    ... done (      0.0 sec)
Obtaining analytic overlap     ... done (      0.0 sec)
Final contraction and storage  ... done (      0.0 sec)


General Integration Accuracy     IntAcc      ...  3.670
Radial Grid Type                 RadialGrid  ... Gauss-Chebyshev
Angular Grid (max. acc.)         AngularGrid ... Lebedev-50
Angular grid pruning method      GridPruning ... 3 (G Style)
Weight generation scheme         WeightScheme... Becke
Basis function cutoff            BFCut       ...    1.0000e-11
Integration weight cutoff        WCut        ...    1.0000e-14
Grids for H and He will be reduced by one unit

# of grid points (after initial pruning)     ...   8802 (   0.0 sec)
# of grid points (after weights+screening)   ...   8314 (   0.0 sec)
nearest neighbour list constructed           ...    0.0 sec
Grid point re-assignment to atoms done       ...    0.0 sec
Grid point division into batches done        ...    0.0 sec
Reduced shell lists constructed in    0.1 sec

Total number of grid points                  ...     8314
Total number of batches                      ...      137
Average number of points per batch           ...       60
Average number of grid points per atom       ...      640
Average number of shells per batch           ...    51.73 (69.91%)
Average number of basis functions per batch  ...   119.50 (71.13%)
Average number of large shells per batch     ...    39.72 (76.78%)
Average number of large basis fcns per batch ...    89.59 (74.97%)
Maximum spatial batch extension              ...  18.24, 16.79, 22.64 au
Average spatial batch extension              ...   4.55,  4.39,  4.97 au

Overlap Fitting                  UseSFitting ... on
Constructing numerical overlap ... done (      0.0 sec)
Inverting numerical overlap    ... done (      0.0 sec)
Obtaining analytic overlap     ... done (      0.0 sec)
Final contraction and storage  ... done (      0.0 sec)


General Integration Accuracy     IntAcc      ...  4.010
Radial Grid Type                 RadialGrid  ... Gauss-Chebyshev
Angular Grid (max. acc.)         AngularGrid ... Lebedev-110
Angular grid pruning method      GridPruning ... 3 (G Style)
Weight generation scheme         WeightScheme... Becke
Basis function cutoff            BFCut       ...    1.0000e-11
Integration weight cutoff        WCut        ...    1.0000e-14
Grids for H and He will be reduced by one unit

# of grid points (after initial pruning)     ...  17582 (   0.0 sec)
# of grid points (after weights+screening)   ...  16490 (   0.0 sec)
nearest neighbour list constructed           ...    0.0 sec
Grid point re-assignment to atoms done       ...    0.0 sec
Grid point division into batches done        ...    0.0 sec
Reduced shell lists constructed in    0.2 sec

Total number of grid points                  ...    16490
Total number of batches                      ...      264
Average number of points per batch           ...       62
Average number of grid points per atom       ...     1268
Average number of shells per batch           ...    48.79 (65.94%)
Average number of basis functions per batch  ...   112.36 (66.88%)
Average number of large shells per batch     ...    37.52 (76.90%)
Average number of large basis fcns per batch ...    84.89 (75.55%)
Maximum spatial batch extension              ...  19.84, 16.82, 24.23 au
Average spatial batch extension              ...   3.95,  3.88,  4.30 au

Overlap Fitting                  UseSFitting ... on
Constructing numerical overlap ... done (      0.1 sec)
Inverting numerical overlap    ... done (      0.0 sec)
Obtaining analytic overlap     ... done (      0.0 sec)
Final contraction and storage  ... done (      0.0 sec)

Time for X-Grid setup             =    0.609 sec
--------------
SCF ITERATIONS
--------------
ITER       Energy         Delta-E        Max-DP      RMS-DP      [F,P]     Damp
               ***  Starting incremental Fock matrix formation  ***
  0   -981.4733083659   0.000000000000 0.09262404  0.00286995  0.2462779 0.7000
  1   -981.6046466074  -0.131338241514 0.05596133  0.00189621  0.0997358 0.7000
                               ***Turning on DIIS***
  2   -981.6492599081  -0.044613300702 0.11297382  0.00301375  0.0317724 0.0000
  3   -981.7192382752  -0.069978367076 0.03857217  0.00142581  0.0568483 0.0000
  4   -981.7378929895  -0.018654714277 0.02195929  0.00055327  0.0219589 0.0000
  5   -981.7395698614  -0.001676871901 0.00975139  0.00017381  0.0073866 0.0000
                      *** Initiating the SOSCF procedure ***
                           *** Shutting down DIIS ***
                      *** Re-Reading the Fockian *** 
                      *** Removing any level shift *** 
ITER      Energy       Delta-E        Grad      Rot      Max-DP    RMS-DP
  6   -981.73971056  -0.0001406963  0.000416  0.000416  0.002074  0.000065
               *** Restarting incremental Fock matrix formation ***
  7   -981.73972555  -0.0000149966  0.000294  0.001116  0.001575  0.000047
  8   -981.73972098   0.0000045713  0.000570  0.000941  0.001020  0.000029
  9   -981.73972792  -0.0000069338  0.000068  0.000202  0.000252  0.000008
 10   -981.73972779   0.0000001316  0.000079  0.000124  0.000142  0.000005
 11   -981.73972797  -0.0000001872  0.000031  0.000071  0.000142  0.000003
 12   -981.73972795   0.0000000262  0.000048  0.000035  0.000093  0.000002
 13   -981.73972799  -0.0000000395  0.000004  0.000021  0.000022  0.000001
 14   -981.73972798   0.0000000030  0.000009  0.000014  0.000014  0.000000
                  ***Gradient check signals convergence***
              ***Rediagonalizing the Fockian in SOSCF/NRSCF***

               *****************************************************
               *                     SUCCESS                       *
               *           SCF CONVERGED AFTER  15 CYCLES          *
               *****************************************************

Setting up the final grid:

General Integration Accuracy     IntAcc      ...  4.670
Radial Grid Type                 RadialGrid  ... Gauss-Chebyshev
Angular Grid (max. acc.)         AngularGrid ... Lebedev-302
Angular grid pruning method      GridPruning ... 3 (G Style)
Weight generation scheme         WeightScheme... Becke
Basis function cutoff            BFCut       ...    1.0000e-11
Integration weight cutoff        WCut        ...    1.0000e-14
Grids for H and He will be reduced by one unit

# of grid points (after initial pruning)     ...  75934 (   0.0 sec)
# of grid points (after weights+screening)   ...  70295 (   0.1 sec)
nearest neighbour list constructed           ...    0.0 sec
Grid point re-assignment to atoms done       ...    0.0 sec
Grid point division into batches done        ...    0.5 sec
Reduced shell lists constructed in    0.9 sec

Total number of grid points                  ...    70295
Total number of batches                      ...     1104
Average number of points per batch           ...       63
Average number of grid points per atom       ...     5407
Average number of shells per batch           ...    43.65 (58.98%)
Average number of basis functions per batch  ...    99.46 (59.20%)
Average number of large shells per batch     ...    32.83 (75.21%)
Average number of large basis fcns per batch ...    73.58 (73.98%)
Maximum spatial batch extension              ...  18.91, 16.44, 18.89 au
Average spatial batch extension              ...   2.60,  2.57,  2.70 au

Final grid set up in    1.0 sec
Final integration                            ... done (   0.8 sec)
Change in XC energy                          ...     0.000827921
Integrated number of electrons               ...    87.999959980
Previous integrated no of electrons          ...    88.003384084
Old exchange energy                            =    -18.710764650 Eh
New exchange energy                            =    -18.710854428 Eh
Exchange energy change after final integration =     -0.000089779 Eh
Total energy after final integration           =   -981.738989844 Eh
Final COS-X integration done in                =     5.355 sec

----------------
TOTAL SCF ENERGY
----------------

Total Energy       :         -981.73898984 Eh          -26714.47605 eV

Components:
Nuclear Repulsion  :          689.89044486 Eh           18772.87340 eV
Electronic Energy  :        -1671.62943470 Eh          -45487.34945 eV
One Electron Energy:        -2721.45731269 Eh          -74054.61834 eV
Two Electron Energy:         1049.82787799 Eh           28567.26889 eV

Virial components:
Potential Energy   :        -1958.42884634 Eh          -53291.55820 eV
Kinetic Energy     :          976.68985650 Eh           26577.08215 eV
Virial Ratio       :            2.00516964


DFT components:
N(Alpha)           :       43.999979990030 electrons
N(Beta)            :       43.999979990030 electrons
N(Total)           :       87.999959980060 electrons
E(X)               :      -74.431614980856 Eh       
E(C)               :       -4.141082172027 Eh       
E(XC)              :      -78.572697152883 Eh       
DFET-embed. en.    :        0.000000000000 Eh       

---------------
SCF CONVERGENCE
---------------

  Last Energy change         ...   -3.4624e-09  Tolerance :   1.0000e-08
  Last MAX-Density change    ...    5.7732e-15  Tolerance :   1.0000e-07
  Last RMS-Density change    ...    7.7839e-17  Tolerance :   5.0000e-09
  Last Orbital Gradient      ...    6.6742e-07  Tolerance :   1.0000e-05
  Last Orbital Rotation      ...    2.1808e-06  Tolerance :   1.0000e-05

             **** THE GBW FILE WAS UPDATED (428.gbw) ****
             **** DENSITY FILE WAS UPDATED (428.scfp) ****
             **** ENERGY FILE WAS UPDATED (428.en.tmp) ****
             **** THE GBW FILE WAS UPDATED (428.gbw) ****
             **** DENSITY FILE WAS UPDATED (428.scfp) ****
----------------
ORBITAL ENERGIES
----------------

  NO   OCC          E(Eh)            E(eV) 
   0   2.0000     -88.922192     -2419.6959 
   1   2.0000     -24.730513      -672.9515 
   2   2.0000     -24.725068      -672.8033 
   3   2.0000     -24.724940      -672.7998 
   4   2.0000     -14.337588      -390.1456 
   5   2.0000     -10.449834      -284.3544 
   6   2.0000     -10.260231      -279.1951 
   7   2.0000     -10.259645      -279.1791 
   8   2.0000     -10.257196      -279.1125 
   9   2.0000     -10.246552      -278.8228 
  10   2.0000     -10.237763      -278.5837 
  11   2.0000      -8.018035      -218.1818 
  12   2.0000      -5.985963      -162.8863 
  13   2.0000      -5.981678      -162.7697 
  14   2.0000      -5.979671      -162.7151 
  15   2.0000      -1.310374       -35.6571 
  16   2.0000      -1.216486       -33.1023 
  17   2.0000      -1.212729       -33.0000 
  18   2.0000      -0.942725       -25.6528 
  19   2.0000      -0.911998       -24.8167 
  20   2.0000      -0.814533       -22.1646 
  21   2.0000      -0.791010       -21.5245 
  22   2.0000      -0.708096       -19.2683 
  23   2.0000      -0.648609       -17.6496 
  24   2.0000      -0.633602       -17.2412 
  25   2.0000      -0.615004       -16.7351 
  26   2.0000      -0.601335       -16.3632 
  27   2.0000      -0.594732       -16.1835 
  28   2.0000      -0.520492       -14.1633 
  29   2.0000      -0.482305       -13.1242 
  30   2.0000      -0.479906       -13.0589 
  31   2.0000      -0.473357       -12.8807 
  32   2.0000      -0.453868       -12.3504 
  33   2.0000      -0.452487       -12.3128 
  34   2.0000      -0.435235       -11.8434 
  35   2.0000      -0.429813       -11.6958 
  36   2.0000      -0.426110       -11.5950 
  37   2.0000      -0.416398       -11.3308 
  38   2.0000      -0.392111       -10.6699 
  39   2.0000      -0.376591       -10.2476 
  40   2.0000      -0.370131       -10.0718 
  41   2.0000      -0.352558        -9.5936 
  42   2.0000      -0.300219        -8.1694 
  43   2.0000      -0.285530        -7.7697 
  44   0.0000      -0.070770        -1.9257 
  45   0.0000      -0.034605        -0.9417 
  46   0.0000      -0.005531        -0.1505 
  47   0.0000       0.037158         1.0111 
  48   0.0000       0.061905         1.6845 
  49   0.0000       0.088634         2.4118 
  50   0.0000       0.091521         2.4904 
  51   0.0000       0.108590         2.9549 
  52   0.0000       0.121758         3.3132 
  53   0.0000       0.162910         4.4330 
  54   0.0000       0.194175         5.2838 
  55   0.0000       0.206943         5.6312 
  56   0.0000       0.220255         5.9934 
  57   0.0000       0.267113         7.2685 
  58   0.0000       0.284876         7.7519 
  59   0.0000       0.295767         8.0482 
  60   0.0000       0.328754         8.9459 
  61   0.0000       0.349345         9.5062 
  62   0.0000       0.387153        10.5350 
  63   0.0000       0.414060        11.2672 
  64   0.0000       0.416378        11.3302 
  65   0.0000       0.421315        11.4646 
  66   0.0000       0.434373        11.8199 
  67   0.0000       0.449838        12.2407 
  68   0.0000       0.483084        13.1454 
  69   0.0000       0.488811        13.3012 
  70   0.0000       0.499210        13.5842 
  71   0.0000       0.532645        14.4940 
  72   0.0000       0.543884        14.7998 
  73   0.0000       0.560514        15.2524 
  74   0.0000       0.589197        16.0329 
  75   0.0000       0.608272        16.5519 
  76   0.0000       0.612366        16.6633 
  77   0.0000       0.615978        16.7616 
  78   0.0000       0.623510        16.9666 
  79   0.0000       0.642912        17.4945 
  80   0.0000       0.658878        17.9290 
  81   0.0000       0.670062        18.2333 
  82   0.0000       0.701476        19.0881 
  83   0.0000       0.729390        19.8477 
  84   0.0000       0.735480        20.0134 
  85   0.0000       0.746848        20.3228 
  86   0.0000       0.762476        20.7480 
  87   0.0000       0.779671        21.2159 
  88   0.0000       0.829531        22.5727 
  89   0.0000       0.872117        23.7315 
  90   0.0000       0.874092        23.7852 
  91   0.0000       0.921703        25.0808 
  92   0.0000       0.973781        26.4979 
  93   0.0000       0.997370        27.1398 
  94   0.0000       1.049294        28.5527 
  95   0.0000       1.076330        29.2884 
  96   0.0000       1.083564        29.4853 
  97   0.0000       1.095436        29.8083 
  98   0.0000       1.097547        29.8658 
  99   0.0000       1.111354        30.2415 
 100   0.0000       1.136347        30.9216 
 101   0.0000       1.179555        32.0973 
 102   0.0000       1.188539        32.3418 
 103   0.0000       1.211768        32.9739 
 104   0.0000       1.276540        34.7364 
 105   0.0000       1.276951        34.7476 
 106   0.0000       1.313304        35.7368 
 107   0.0000       1.339258        36.4431 
 108   0.0000       1.352243        36.7964 
 109   0.0000       1.453127        39.5416 
 110   0.0000       1.453938        39.5637 
 111   0.0000       1.473564        40.0977 
 112   0.0000       1.501913        40.8691 
 113   0.0000       1.528222        41.5850 
 114   0.0000       1.539863        41.9018 
 115   0.0000       1.598662        43.5018 
 116   0.0000       1.636075        44.5199 
 117   0.0000       1.673106        45.5275 
 118   0.0000       1.714746        46.6606 
 119   0.0000       1.732408        47.1412 
 120   0.0000       1.750568        47.6354 
 121   0.0000       1.769599        48.1532 
 122   0.0000       1.819057        49.4991 
 123   0.0000       1.827246        49.7219 
 124   0.0000       1.847575        50.2751 
 125   0.0000       1.867272        50.8111 
 126   0.0000       1.890446        51.4417 
 127   0.0000       1.916033        52.1379 
 128   0.0000       1.971688        53.6524 
 129   0.0000       1.990576        54.1663 
 130   0.0000       2.000293        54.4307 
 131   0.0000       2.025296        55.1111 
 132   0.0000       2.040599        55.5275 
 133   0.0000       2.126344        57.8608 
 134   0.0000       2.156977        58.6943 
 135   0.0000       2.180570        59.3363 
 136   0.0000       2.246432        61.1285 
 137   0.0000       2.273334        61.8606 
 138   0.0000       2.292085        62.3708 
 139   0.0000       2.306296        62.7575 
 140   0.0000       2.337545        63.6078 
 141   0.0000       2.365677        64.3733 
 142   0.0000       2.443621        66.4943 
 143   0.0000       2.471679        67.2578 
 144   0.0000       2.633768        71.6685 
 145   0.0000       2.666454        72.5579 
 146   0.0000       2.745415        74.7065 
 147   0.0000       2.876689        78.2787 
 148   0.0000       2.963251        80.6342 
 149   0.0000       2.993664        81.4617 
 150   0.0000       3.027395        82.3796 
 151   0.0000       3.032341        82.5142 
 152   0.0000       3.035096        82.5892 
 153   0.0000       3.041742        82.7700 
 154   0.0000       3.047641        82.9305 
 155   0.0000       3.056945        83.1837 
 156   0.0000       3.135440        85.3197 
 157   0.0000       3.165934        86.1494 
 158   0.0000       3.172775        86.3356 
 159   0.0000       3.193596        86.9022 
 160   0.0000       3.279577        89.2418 
 161   0.0000       3.431370        93.3723 
 162   0.0000       3.526761        95.9680 
 163   0.0000       3.566540        97.0505 
 164   0.0000       3.594664        97.8158 
 165   0.0000       3.657413        99.5233 
 166   0.0000       3.827632       104.1552 
 167   0.0000       3.860058       105.0375 

                    ********************************
                    * MULLIKEN POPULATION ANALYSIS *
                    ********************************

-----------------------
MULLIKEN ATOMIC CHARGES
-----------------------
   0 C :   -0.060984
   1 S :    0.160561
   2 C :   -0.114465
   3 C :   -0.020826
   4 C :   -0.091059
   5 C :   -0.147457
   6 N :    0.119578
   7 C :    0.559795
   8 F :   -0.164866
   9 F :   -0.161309
  10 F :   -0.161329
  11 H :    0.038960
  12 H :    0.043400
Sum of atomic charges:   -0.0000000

--------------------------------
MULLIKEN REDUCED ORBITAL CHARGES
--------------------------------
  0 C s       :     3.216777  s :     3.216777
      pz      :     1.061396  p :     2.807802
      px      :     0.855767
      py      :     0.890639
      dz2     :     0.003164  d :     0.036405
      dxz     :     0.006959
      dyz     :     0.003758
      dx2y2   :     0.012642
      dxy     :     0.009883
  1 S s       :     5.838290  s :     5.838290
      pz      :     3.602839  p :     9.882478
      px      :     3.246912
      py      :     3.032727
      dz2     :     0.013012  d :     0.118671
      dxz     :     0.014891
      dyz     :     0.021463
      dx2y2   :     0.039771
      dxy     :     0.029534
  2 C s       :     3.220431  s :     3.220431
      pz      :     1.067134  p :     2.857751
      px      :     0.967462
      py      :     0.823155
      dz2     :     0.003111  d :     0.036283
      dxz     :     0.006651
      dyz     :     0.004226
      dx2y2   :     0.011279
      dxy     :     0.011015
  3 C s       :     3.077849  s :     3.077849
      pz      :     1.053734  p :     2.902987
      px      :     0.890928
      py      :     0.958325
      dz2     :     0.003556  d :     0.039990
      dxz     :     0.007362
      dyz     :     0.004467
      dx2y2   :     0.011288
      dxy     :     0.013316
  4 C s       :     3.048406  s :     3.048406
      pz      :     1.060958  p :     2.996895
      px      :     0.966437
      py      :     0.969500
      dz2     :     0.003535  d :     0.045758
      dxz     :     0.006438
      dyz     :     0.007542
      dx2y2   :     0.013743
      dxy     :     0.014500
  5 C s       :     3.073323  s :     3.073323
      pz      :     0.964134  p :     3.027997
      px      :     1.083672
      py      :     0.980192
      dz2     :     0.003428  d :     0.046137
      dxz     :     0.017825
      dyz     :     0.000303
      dx2y2   :     0.010011
      dxy     :     0.014570
  6 N s       :     3.496409  s :     3.496409
      pz      :     1.047929  p :     3.350663
      px      :     1.280330
      py      :     1.022404
      dz2     :     0.003116  d :     0.033350
      dxz     :     0.010165
      dyz     :     0.000166
      dx2y2   :     0.009365
      dxy     :     0.010538
  7 C s       :     2.909554  s :     2.909554
      pz      :     0.713369  p :     2.348981
      px      :     0.757813
      py      :     0.877799
      dz2     :     0.040328  d :     0.181670
      dxz     :     0.048747
      dyz     :     0.026497
      dx2y2   :     0.027162
      dxy     :     0.038935
  8 F s       :     3.888645  s :     3.888645
      pz      :     1.900080  p :     5.268076
      px      :     1.738258
      py      :     1.629737
      dz2     :     0.001204  d :     0.008145
      dxz     :     0.000665
      dyz     :     0.001041
      dx2y2   :     0.001856
      dxy     :     0.003379
  9 F s       :     3.895550  s :     3.895550
      pz      :     1.620663  p :     5.257514
      px      :     1.738083
      py      :     1.898768
      dz2     :     0.002169  d :     0.008246
      dxz     :     0.003308
      dyz     :     0.001166
      dx2y2   :     0.000843
      dxy     :     0.000760
 10 F s       :     3.895562  s :     3.895562
      pz      :     1.616696  p :     5.257521
      px      :     1.741156
      py      :     1.899669
      dz2     :     0.002214  d :     0.008247
      dxz     :     0.003301
      dyz     :     0.001170
      dx2y2   :     0.000822
      dxy     :     0.000740
 11 H s       :     0.936834  s :     0.936834
      pz      :     0.005237  p :     0.024206
      px      :     0.003388
      py      :     0.015580
 12 H s       :     0.932210  s :     0.932210
      pz      :     0.005110  p :     0.024390
      px      :     0.009004
      py      :     0.010276


                     *******************************
                     * LOEWDIN POPULATION ANALYSIS *
                     *******************************

----------------------
LOEWDIN ATOMIC CHARGES
----------------------
   0 C :   -0.144144
   1 S :    0.497032
   2 C :   -0.158064
   3 C :   -0.099953
   4 C :   -0.091309
   5 C :   -0.037855
   6 N :   -0.038028
   7 C :    0.171107
   8 F :   -0.058421
   9 F :   -0.055375
  10 F :   -0.055346
  11 H :    0.035826
  12 H :    0.034529

-------------------------------
LOEWDIN REDUCED ORBITAL CHARGES
-------------------------------
  0 C s       :     2.919909  s :     2.919909
      pz      :     1.059633  p :     3.137796
      px      :     1.008868
      py      :     1.069295
      dz2     :     0.006498  d :     0.086438
      dxz     :     0.014403
      dyz     :     0.006312
      dx2y2   :     0.032701
      dxy     :     0.026524
  1 S s       :     5.490593  s :     5.490593
      pz      :     3.552317  p :     9.867570
      px      :     3.272669
      py      :     3.042584
      dz2     :     0.016668  d :     0.144805
      dxz     :     0.015288
      dyz     :     0.025509
      dx2y2   :     0.051139
      dxy     :     0.036200
  2 C s       :     2.917943  s :     2.917943
      pz      :     1.063047  p :     3.152707
      px      :     1.076207
      py      :     1.013453
      dz2     :     0.006473  d :     0.087415
      dxz     :     0.013157
      dyz     :     0.007926
      dx2y2   :     0.029951
      dxy     :     0.029908
  3 C s       :     2.863563  s :     2.863563
      pz      :     1.033470  p :     3.128852
      px      :     1.070726
      py      :     1.024655
      dz2     :     0.009000  d :     0.107538
      dxz     :     0.015154
      dyz     :     0.008843
      dx2y2   :     0.035170
      dxy     :     0.039371
  4 C s       :     2.834694  s :     2.834694
      pz      :     1.037276  p :     3.135036
      px      :     1.039406
      py      :     1.058354
      dz2     :     0.008949  d :     0.121578
      dxz     :     0.013465
      dyz     :     0.015795
      dx2y2   :     0.040320
      dxy     :     0.043049
  5 C s       :     2.894463  s :     2.894463
      pz      :     0.942377  p :     3.030342
      px      :     1.151384
      py      :     0.936581
      dz2     :     0.010783  d :     0.113050
      dxz     :     0.037257
      dyz     :     0.000592
      dx2y2   :     0.032024
      dxy     :     0.032394
  6 N s       :     3.414480  s :     3.414480
      pz      :     1.056903  p :     3.567545
      px      :     1.472790
      py      :     1.037852
      dz2     :     0.006622  d :     0.056003
      dxz     :     0.014335
      dyz     :     0.000239
      dx2y2   :     0.019488
      dxy     :     0.015320
  7 C s       :     2.844909  s :     2.844909
      pz      :     0.808991  p :     2.600592
      px      :     0.843714
      py      :     0.947887
      dz2     :     0.088055  d :     0.383392
      dxz     :     0.106781
      dyz     :     0.046519
      dx2y2   :     0.053685
      dxy     :     0.088353
  8 F s       :     3.729090  s :     3.729090
      pz      :     1.897316  p :     5.316383
      px      :     1.760360
      py      :     1.658706
      dz2     :     0.002213  d :     0.012948
      dxz     :     0.000866
      dyz     :     0.001227
      dx2y2   :     0.002540
      dxy     :     0.006101
  9 F s       :     3.733749  s :     3.733749
      pz      :     1.657549  p :     5.308549
      px      :     1.758213
      py      :     1.892788
      dz2     :     0.003273  d :     0.013078
      dxz     :     0.005993
      dyz     :     0.001552
      dx2y2   :     0.001245
      dxy     :     0.001015
 10 F s       :     3.733738  s :     3.733738
      pz      :     1.654032  p :     5.308530
      px      :     1.760882
      py      :     1.893616
      dz2     :     0.003359  d :     0.013078
      dxz     :     0.005972
      dyz     :     0.001551
      dx2y2   :     0.001212
      dxy     :     0.000984
 11 H s       :     0.887469  s :     0.887469
      pz      :     0.017229  p :     0.076705
      px      :     0.013239
      py      :     0.046237
 12 H s       :     0.888258  s :     0.888258
      pz      :     0.017090  p :     0.077213
      px      :     0.026073
      py      :     0.034050


                      *****************************
                      * MAYER POPULATION ANALYSIS *
                      *****************************

  NA   - Mulliken gross atomic population
  ZA   - Total nuclear charge
  QA   - Mulliken gross atomic charge
  VA   - Mayer's total valence
  BVA  - Mayer's bonded valence
  FA   - Mayer's free valence

  ATOM       NA         ZA         QA         VA         BVA        FA
  0 C      6.0610     6.0000    -0.0610     3.8249     3.8249     0.0000
  1 S     15.8394    16.0000     0.1606     2.5798     2.5798    -0.0000
  2 C      6.1145     6.0000    -0.1145     3.8641     3.8641    -0.0000
  3 C      6.0208     6.0000    -0.0208     3.8522     3.8522    -0.0000
  4 C      6.0911     6.0000    -0.0911     4.1337     4.1337    -0.0000
  5 C      6.1475     6.0000    -0.1475     4.1297     4.1297    -0.0000
  6 N      6.8804     7.0000     0.1196     3.1599     3.1599    -0.0000
  7 C      5.4402     6.0000     0.5598     4.4537     4.4537     0.0000
  8 F      9.1649     9.0000    -0.1649     1.2013     1.2013    -0.0000
  9 F      9.1613     9.0000    -0.1613     1.1929     1.1929     0.0000
 10 F      9.1613     9.0000    -0.1613     1.1929     1.1929    -0.0000
 11 H      0.9610     1.0000     0.0390     0.9995     0.9995     0.0000
 12 H      0.9566     1.0000     0.0434     1.0075     1.0075    -0.0000

  Mayer bond orders larger than 0.100000
B(  0-C ,  1-S ) :   1.1904 B(  0-C ,  4-C ) :   1.5376 B(  0-C , 11-H ) :   0.9745 
B(  1-S ,  2-C ) :   1.1909 B(  2-C ,  3-C ) :   1.5579 B(  2-C , 12-H ) :   0.9660 
B(  3-C ,  4-C ) :   1.2609 B(  3-C ,  7-C ) :   0.9464 B(  4-C ,  5-C ) :   1.1381 
B(  5-C ,  6-N ) :   3.0097 B(  7-C ,  8-F ) :   1.1585 B(  7-C ,  9-F ) :   1.1611 
B(  7-C , 10-F ) :   1.1610 

-------
TIMINGS
-------

Total SCF time: 0 days 0 hours 0 min 54 sec 

Total time                  ....      54.170 sec
Sum of individual times     ....      54.064 sec  ( 99.8%)

Fock matrix formation       ....      51.571 sec  ( 95.2%)
  Split-RI-J                ....       5.729 sec  ( 11.1% of F)
  Chain of spheres X        ....      41.771 sec  ( 81.0% of F)
  COS-X 1 center corr.      ....       0.000 sec  (  0.0% of F)
  XC integration            ....       4.024 sec  (  7.8% of F)
    Basis function eval.    ....       1.215 sec  ( 30.2% of XC)
    Density eval.           ....       1.340 sec  ( 33.3% of XC)
    XC-Functional eval.     ....       0.306 sec  (  7.6% of XC)
    XC-Potential eval.      ....       1.068 sec  ( 26.5% of XC)
Diagonalization             ....       0.074 sec  (  0.1%)
Density matrix formation    ....       0.005 sec  (  0.0%)
Population analysis         ....       0.005 sec  (  0.0%)
Initial guess               ....       0.426 sec  (  0.8%)
Orbital Transformation      ....       0.000 sec  (  0.0%)
Orbital Orthonormalization  ....       0.000 sec  (  0.0%)
DIIS solution               ....       0.017 sec  (  0.0%)
SOSCF solution              ....       0.134 sec  (  0.2%)
Grid generation             ....       1.831 sec  (  3.4%)


-------------------------------------------------------------------------------
                          DFT DISPERSION CORRECTION                            
                                                                               
                              DFTD3 V3.1  Rev 1                                
                          USING Becke-Johnson damping                          
-------------------------------------------------------------------------------
Gaussians B3LYP functional is recognized, using regular B3LYP params
Active option DFTDOPT                   ...         4   

molecular C6(AA) [au] = 3153.451079 


            DFT-D V3
 parameters
 s6 scaling factor         :     1.0000 
 a1 scaling factor         :     0.3981 
 s8 scaling factor         :     1.9889 
 a2 scaling factor         :     4.4211 
 ad hoc parameters k1-k3   :    16.0000     1.3333    -4.0000 

 Edisp/kcal,au: -16.925751921454  -0.026972899718 
 E6   /kcal   :  -7.439865423 
 E8   /kcal   :  -9.485886499 
 % E8         :  56.044106891 

-------------------------   ----------------
Dispersion correction           -0.026972900
-------------------------   ----------------


-------------------------   --------------------
FINAL SINGLE POINT ENERGY      -981.765962743642
-------------------------   --------------------

------------------------------------------------------------------------------
                         ORCA SCF GRADIENT CALCULATION
------------------------------------------------------------------------------

Gradient of the Kohn-Sham DFT energy:
Kohn-Sham wavefunction type      ... RKS
Hartree-Fock exchange scaling    ...    0.200
Number of operators              ...    1
Number of atoms                  ...   13
Basis set dimensions             ...  168
Integral neglect threshold       ... 2.5e-11
Integral primitive cutoff        ... 2.5e-12

Nuclear repulsion gradient       ... done
One Electron Gradient            ... done
Pre-screening matrix             ... done
RI-J gradient                    ... done
COSX-gradient                    ... done
Exchange-correlation gradient    ... done
Dispersion correction            ... done

------------------
CARTESIAN GRADIENT
------------------

   1   C   :   -0.004587383   -0.002669188    0.000005628
   2   S   :   -0.006107745   -0.003683029   -0.000076919
   3   C   :   -0.001491755   -0.000074477    0.000004259
   4   C   :    0.004927273    0.007025648    0.000047655
   5   C   :   -0.002921542    0.002754466   -0.000010905
   6   C   :   -0.022925607    0.001268818   -0.000090246
   7   N   :    0.038479853   -0.004960530    0.000148538
   8   C   :    0.004528138    0.013744061    0.000059418
   9   F   :   -0.005112088    0.000528757   -0.000048736
  10   F   :    0.000714436   -0.004899210   -0.002156118
  11   F   :    0.000589497   -0.004822390    0.002384631
  12   H   :    0.003351101   -0.012068367   -0.000041814
  13   H   :   -0.007433056    0.009348984    0.000012735

Difference to translation invariance:
           :    0.0020111235    0.0014935401    0.0002381251

Norm of the cartesian gradient     ...    0.0528901799
RMS gradient                       ...    0.0084692069
MAX gradient                       ...    0.0384798532

-------
TIMINGS
-------

Total SCF gradient time            ...       12.236 sec

One electron gradient       ....       0.099 sec  (  0.8%)
Prescreening matrices       ....       0.105 sec  (  0.9%)
RI-J Coulomb gradient       ....       1.279 sec  ( 10.5%)
COSX gradient               ....       5.246 sec  ( 42.9%)
XC gradient                 ....       4.955 sec  ( 40.5%)
------------------------------------------------------------------------------
                         ORCA GEOMETRY RELAXATION STEP
------------------------------------------------------------------------------

Reading the OPT-File                    .... done
Getting information on internals        .... done
Copying old internal coords+grads       .... done
Making the new internal coordinates     .... (new redundants).... done
Validating the new internal coordinates .... (new redundants).... done
Calculating the B-matrix                .... done
Calculating the G,G- and P matrices     .... done
Transforming gradient to internals      .... done
Projecting the internal gradient        .... done
Number of atoms                         ....  13
Number of internal coordinates          ....  56
Current Energy                          ....  -981.765962744 Eh
Current gradient norm                   ....     0.052890180 Eh/bohr
Maximum allowed component of the step   ....  0.300
Current trust radius                    ....  0.300
Evaluating the initial hessian          ....  (Almloef) done
Projecting the Hessian                  .... done
Forming the augmented Hessian           .... done
Diagonalizing the augmented Hessian     .... done
Last element of RFO vector              ....  0.996557108
Lowest eigenvalues of augmented Hessian:
 -0.003831687  0.013370696  0.015467115  0.021064809  0.022283327
Length of the computed step             ....  0.083195606
The final length of the internal step   ....  0.083195606
Converting the step to cartesian space:
 Initial RMS(Int)=    0.0111174805
Transforming coordinates:
 Iter   0:  RMS(Cart)=    0.0202393895 RMS(Int)=    1.6787954835
 Iter   1:  RMS(Cart)=    0.0001097261 RMS(Int)=    0.0000788361
 Iter   2:  RMS(Cart)=    0.0000019065 RMS(Int)=    0.0000017196
 Iter   3:  RMS(Cart)=    0.0000006351 RMS(Int)=    0.0000006736
 Iter   4:  RMS(Cart)=    0.0000003222 RMS(Int)=    0.0000003399
 Iter   5:  RMS(Cart)=    0.0000001626 RMS(Int)=    0.0000001716
 Iter   6:  RMS(Cart)=    0.0000000821 RMS(Int)=    0.0000000866
done
Storing new coordinates                 .... done

                                .--------------------.
          ----------------------|Geometry convergence|-------------------------
          Item                value                   Tolerance       Converged
          ---------------------------------------------------------------------
          RMS gradient        0.0071332757            0.0001000000      NO
          MAX gradient        0.0387292801            0.0003000000      NO
          RMS step            0.0111174805            0.0020000000      NO
          MAX step            0.0325722327            0.0040000000      NO
          ........................................................
          Max(Bonds)      0.0172      Max(Angles)    0.97
          Max(Dihed)        0.68      Max(Improp)    0.00
          ---------------------------------------------------------------------

The optimization has not yet converged - more geometry cycles are needed


    ---------------------------------------------------------------------------
                         Redundant Internal Coordinates
                            (Angstroem and degrees)

        Definition                    Value    dE/dq     Step     New-Value
    ----------------------------------------------------------------------------
     1. B(S   1,C   0)                1.7099 -0.006786  0.0067    1.7166   
     2. B(C   2,S   1)                1.7123 -0.008363  0.0083    1.7206   
     3. B(C   3,C   2)                1.3607 -0.009844  0.0075    1.3682   
     4. B(C   4,C   3)                1.4281 -0.012658  0.0125    1.4405   
     5. B(C   4,C   0)                1.3686 -0.012292  0.0097    1.3783   
     6. B(C   5,C   4)                1.4100 -0.015752  0.0143    1.4243   
     7. B(N   6,C   5)                1.1450 -0.038729  0.0148    1.1599   
     8. B(C   7,C   3)                1.4947 -0.003461  0.0043    1.4990   
     9. B(F   8,C   7)                1.3415 -0.003709  0.0031    1.3446   
    10. B(F   9,C   7)                1.3417 -0.001475  0.0012    1.3430   
    11. B(F  10,C   7)                1.3417 -0.001587  0.0013    1.3431   
    12. B(H  11,C   0)                1.0720 -0.012657  0.0172    1.0892   
    13. B(H  12,C   2)                1.0721 -0.011851  0.0161    1.0883   
    14. A(S   1,C   0,C   4)          112.25  0.002230   -0.29    111.96   
    15. A(C   4,C   0,H  11)          127.07 -0.000245    0.01    127.08   
    16. A(S   1,C   0,H  11)          120.68 -0.001984    0.28    120.96   
    17. A(C   0,S   1,C   2)           91.59 -0.004050    0.44     92.03   
    18. A(S   1,C   2,H  12)          120.72 -0.001066    0.16    120.87   
    19. A(S   1,C   2,C   3)          112.03  0.001409   -0.20    111.83   
    20. A(C   3,C   2,H  12)          127.25 -0.000342    0.04    127.29   
    21. A(C   2,C   3,C   7)          124.47  0.001203   -0.19    124.27   
    22. A(C   2,C   3,C   4)          112.48  0.000495   -0.02    112.46   
    23. A(C   4,C   3,C   7)          123.06 -0.001698    0.21    123.27   
    24. A(C   3,C   4,C   5)          124.31 -0.001939    0.23    124.54   
    25. A(C   0,C   4,C   5)          124.05  0.002022   -0.30    123.75   
    26. A(C   0,C   4,C   3)          111.64 -0.000083    0.07    111.71   
    27. L(C   4,C   5,N   6,C   3, 2) 179.98  0.000023   -0.00    179.98   
    28. L(C   4,C   5,N   6,C   3, 1) 180.41  0.000382   -0.04    180.37   
    29. A(C   3,C   7,F  10)          112.32  0.006375   -0.95    111.38   
    30. A(F   8,C   7,F   9)          106.61 -0.006247    0.97    107.59   
    31. A(C   3,C   7,F   9)          112.32  0.006405   -0.95    111.38   
    32. A(C   3,C   7,F   8)          111.90  0.003484   -0.34    111.56   
    33. A(F   9,C   7,F  10)          106.66 -0.005364    0.51    107.17   
    34. A(F   8,C   7,F  10)          106.62 -0.006203    0.96    107.58   
    35. D(C   2,S   1,C   0,C   4)     -0.01 -0.000005    0.01     -0.01   
    36. D(C   2,S   1,C   0,H  11)    180.00  0.000025   -0.07    179.93   
    37. D(C   3,C   2,S   1,C   0)      0.02 -0.000014    0.04      0.05   
    38. D(H  12,C   2,S   1,C   0)   -180.00  0.000018   -0.04   -180.04   
    39. D(C   4,C   3,C   2,H  12)    180.00 -0.000006    0.02    180.01   
    40. D(C   4,C   3,C   2,S   1)     -0.02  0.000029   -0.07     -0.08   
    41. D(C   7,C   3,C   2,S   1)    179.98  0.000025   -0.06    179.91   
    42. D(C   7,C   3,C   2,H  12)     -0.01 -0.000010    0.02      0.01   
    43. D(C   0,C   4,C   3,C   7)   -179.98 -0.000030    0.06   -179.92   
    44. D(C   0,C   4,C   3,C   2)      0.01 -0.000033    0.07      0.08   
    45. D(C   5,C   4,C   0,H  11)     -0.01  0.000039   -0.06     -0.08   
    46. D(C   3,C   4,C   0,H  11)    180.00 -0.000010    0.04    180.04   
    47. D(C   3,C   4,C   0,S   1)      0.00  0.000023   -0.04     -0.04   
    48. D(C   5,C   4,C   3,C   2)   -179.98 -0.000083    0.17   -179.81   
    49. D(C   5,C   4,C   3,C   7)      0.03 -0.000080    0.17      0.20   
    50. D(C   5,C   4,C   0,S   1)    179.99  0.000072   -0.15    179.85   
    51. D(F  10,C   7,C   3,C   4)     60.05  0.000984   -0.01     60.04   
    52. D(F  10,C   7,C   3,C   2)   -119.94  0.000988   -0.02   -119.96   
    53. D(F   9,C   7,C   3,C   4)    -60.19 -0.001198    0.68    -59.51   
    54. D(F   9,C   7,C   3,C   2)    119.82 -0.001194    0.67    120.50   
    55. D(F   8,C   7,C   3,C   4)    179.93 -0.000089    0.33    180.26   
    56. D(F   8,C   7,C   3,C   2)     -0.06 -0.000085    0.32      0.26   
    ----------------------------------------------------------------------------

         *************************************************************
         *                GEOMETRY OPTIMIZATION CYCLE   2            *
         *************************************************************
---------------------------------
CARTESIAN COORDINATES (ANGSTROEM)
---------------------------------
  C      0.221161    1.016914   -0.004065
  S      1.843365    0.455633    0.000604
  C      1.338778   -1.189309   -0.007600
  C     -0.024616   -1.303318   -0.014830
  C     -0.683974   -0.022531   -0.011803
  C     -2.096717    0.158401   -0.013875
  N     -3.246198    0.313139   -0.015359
  C     -0.762521   -2.608023   -0.024865
  F      0.082665   -3.653807   -0.020133
  F     -1.561065   -2.726872    1.048375
  F     -1.541704   -2.721190   -1.112956
  H     -0.002900    2.082823    0.000180
  H      2.067974   -1.997130   -0.008152

----------------------------
CARTESIAN COORDINATES (A.U.)
----------------------------
  NO LB      ZA    FRAG     MASS         X           Y           Z
   0 C     6.0000    0    12.011    0.417934    1.921688   -0.007683
   1 S    16.0000    0    32.060    3.483456    0.861022    0.001141
   2 C     6.0000    0    12.011    2.529924   -2.247469   -0.014362
   3 C     6.0000    0    12.011   -0.046517   -2.462915   -0.028024
   4 C     6.0000    0    12.011   -1.292524   -0.042577   -0.022305
   5 C     6.0000    0    12.011   -3.962220    0.299335   -0.026221
   6 N     7.0000    0    14.007   -6.134425    0.591748   -0.029024
   7 C     6.0000    0    12.011   -1.440955   -4.928449   -0.046987
   8 F     9.0000    0    18.998    0.156214   -6.904694   -0.038045
   9 F     9.0000    0    18.998   -2.949985   -5.153042    1.981141
  10 F     9.0000    0    18.998   -2.913397   -5.142304   -2.103182
  11 H     1.0000    0     1.008   -0.005481    3.935966    0.000339
  12 H     1.0000    0     1.008    3.907905   -3.774029   -0.015405

--------------------------------
INTERNAL COORDINATES (ANGSTROEM)
--------------------------------
 C      0   0   0     0.000000000000     0.00000000     0.00000000
 S      1   0   0     1.716567717240     0.00000000     0.00000000
 C      2   1   0     1.720613609825    92.03135469     0.00000000
 C      3   2   1     1.368171625018   111.83443678     0.05106576
 C      1   2   3     1.378323140087   111.96389148     0.00000000
 C      5   1   2     1.424282682323   123.75065445   179.84700273
 N      6   5   1     1.159850339069   179.63126211   358.76298752
 C      4   3   2     1.498952567385   124.27237136   179.91515529
 F      8   4   3     1.344628153432   111.56200240     0.26337350
 F      8   4   3     1.342996633293   111.36986211   120.49124245
 F      8   4   3     1.343084285710   111.36802623   240.04649957
 H      1   2   3     1.089212904638   120.95557983   179.92501919
 H      3   2   1     1.088255995572   120.87471220   179.96381977

---------------------------
INTERNAL COORDINATES (A.U.)
---------------------------
 C      0   0   0     0.000000000000     0.00000000     0.00000000
 S      1   0   0     3.243842875913     0.00000000     0.00000000
 C      2   1   0     3.251488504868    92.03135469     0.00000000
 C      3   2   1     2.585469675487   111.83443678     0.05106576
 C      1   2   3     2.604653258811   111.96389148     0.00000000
 C      5   1   2     2.691504206877   123.75065445   179.84700273
 N      6   5   1     2.191799497177   179.63126211   358.76298752
 C      4   3   2     2.832609840096   124.27237136   179.91515529
 F      8   4   3     2.540978961947   111.56200240     0.26337350
 F      8   4   3     2.537895835701   111.36986211   120.49124245
 F      8   4   3     2.538061474766   111.36802623   240.04649957
 H      1   2   3     2.058314091298   120.95557983   179.92501919
 H      3   2   1     2.056505795230   120.87471220   179.96381977

 One Electron integrals                  ... done
 Pre-screening matrix                    ... done

Diagonalization of the overlap matrix:
Smallest eigenvalue                        ... 4.921e-04
Time for diagonalization                   ...    0.004 sec
Threshold for overlap eigenvalues          ... 1.000e-08
Number of eigenvalues below threshold      ... 0
Time for construction of square roots      ...    0.003 sec
Total time needed                          ...    0.007 sec

-------------------
DFT GRID GENERATION
-------------------

General Integration Accuracy     IntAcc      ...  4.340
Radial Grid Type                 RadialGrid  ... Gauss-Chebyshev
Angular Grid (max. acc.)         AngularGrid ... Lebedev-110
Angular grid pruning method      GridPruning ... 3 (G Style)
Weight generation scheme         WeightScheme... Becke
Basis function cutoff            BFCut       ...    1.0000e-11
Integration weight cutoff        WCut        ...    1.0000e-14
Grids for H and He will be reduced by one unit

# of grid points (after initial pruning)     ...  20252 (   0.0 sec)
# of grid points (after weights+screening)   ...  18984 (   0.0 sec)
nearest neighbour list constructed           ...    0.0 sec
Grid point re-assignment to atoms done       ...    0.0 sec
Grid point division into batches done        ...    0.0 sec
Reduced shell lists constructed in    0.2 sec

Total number of grid points                  ...    18984
Total number of batches                      ...      305
Average number of points per batch           ...       62
Average number of grid points per atom       ...     1460
Average number of shells per batch           ...    48.27 (65.24%)
Average number of basis functions per batch  ...   111.07 (66.11%)
Average number of large shells per batch     ...    36.80 (76.24%)
Average number of large basis fcns per batch ...    82.96 (74.70%)
Maximum spatial batch extension              ...  20.88, 17.27, 25.62 au
Average spatial batch extension              ...   3.85,  3.74,  4.14 au

Time for grid setup =    0.188 sec

--------------------
COSX GRID GENERATION
--------------------

General Integration Accuracy     IntAcc      ...  3.340
Radial Grid Type                 RadialGrid  ... Gauss-Chebyshev
Angular Grid (max. acc.)         AngularGrid ... Lebedev-50
Angular grid pruning method      GridPruning ... 3 (G Style)
Weight generation scheme         WeightScheme... Becke
Basis function cutoff            BFCut       ...    1.0000e-11
Integration weight cutoff        WCut        ...    1.0000e-14
Grids for H and He will be reduced by one unit

# of grid points (after initial pruning)     ...   7132 (   0.0 sec)
# of grid points (after weights+screening)   ...   6750 (   0.0 sec)
nearest neighbour list constructed           ...    0.0 sec
Grid point re-assignment to atoms done       ...    0.0 sec
Grid point division into batches done        ...    0.0 sec
Reduced shell lists constructed in    0.0 sec

Total number of grid points                  ...     6750
Total number of batches                      ...      114
Average number of points per batch           ...       59
Average number of grid points per atom       ...      519
Average number of shells per batch           ...    52.50 (70.95%)
Average number of basis functions per batch  ...   121.86 (72.54%)
Average number of large shells per batch     ...    40.50 (77.13%)
Average number of large basis fcns per batch ...    92.11 (75.59%)
Maximum spatial batch extension              ...  16.78, 16.07, 18.16 au
Average spatial batch extension              ...   4.72,  4.72,  5.12 au

Overlap Fitting                  UseSFitting ... on
Constructing numerical overlap ... done (      0.0 sec)
Inverting numerical overlap    ... done (      0.0 sec)
Obtaining analytic overlap     ... done (      0.0 sec)
Final contraction and storage  ... done (      0.0 sec)


General Integration Accuracy     IntAcc      ...  3.670
Radial Grid Type                 RadialGrid  ... Gauss-Chebyshev
Angular Grid (max. acc.)         AngularGrid ... Lebedev-50
Angular grid pruning method      GridPruning ... 3 (G Style)
Weight generation scheme         WeightScheme... Becke
Basis function cutoff            BFCut       ...    1.0000e-11
Integration weight cutoff        WCut        ...    1.0000e-14
Grids for H and He will be reduced by one unit

# of grid points (after initial pruning)     ...   8802 (   0.0 sec)
# of grid points (after weights+screening)   ...   8312 (   0.0 sec)
nearest neighbour list constructed           ...    0.0 sec
Grid point re-assignment to atoms done       ...    0.0 sec
Grid point division into batches done        ...    0.0 sec
Reduced shell lists constructed in    0.1 sec

Total number of grid points                  ...     8312
Total number of batches                      ...      137
Average number of points per batch           ...       60
Average number of grid points per atom       ...      639
Average number of shells per batch           ...    51.55 (69.66%)
Average number of basis functions per batch  ...   119.07 (70.88%)
Average number of large shells per batch     ...    39.47 (76.57%)
Average number of large basis fcns per batch ...    89.15 (74.87%)
Maximum spatial batch extension              ...  18.22, 17.82, 22.64 au
Average spatial batch extension              ...   4.58,  4.41,  5.01 au

Overlap Fitting                  UseSFitting ... on
Constructing numerical overlap ... done (      0.0 sec)
Inverting numerical overlap    ... done (      0.0 sec)
Obtaining analytic overlap     ... done (      0.0 sec)
Final contraction and storage  ... done (      0.0 sec)


[...]
  72   0.0000       0.543417        14.7871 
  73   0.0000       0.563212        15.3258 
  74   0.0000       0.585809        15.9407 
  75   0.0000       0.605871        16.4866 
  76   0.0000       0.607248        16.5240 
  77   0.0000       0.608676        16.5629 
  78   0.0000       0.624292        16.9878 
  79   0.0000       0.639324        17.3969 
  80   0.0000       0.653980        17.7957 
  81   0.0000       0.668180        18.1821 
  82   0.0000       0.690520        18.7900 
  83   0.0000       0.723604        19.6903 
  84   0.0000       0.734457        19.9856 
  85   0.0000       0.744514        20.2593 
  86   0.0000       0.753012        20.4905 
  87   0.0000       0.772553        21.0222 
  88   0.0000       0.823365        22.4049 
  89   0.0000       0.867775        23.6134 
  90   0.0000       0.870785        23.6953 
  91   0.0000       0.918206        24.9857 
  92   0.0000       0.961201        26.1556 
  93   0.0000       0.981095        26.6969 
  94   0.0000       1.043023        28.3821 
  95   0.0000       1.074444        29.2371 
  96   0.0000       1.080115        29.3914 
  97   0.0000       1.091489        29.7009 
  98   0.0000       1.093471        29.7549 
  99   0.0000       1.106878        30.1197 
 100   0.0000       1.131248        30.7828 
 101   0.0000       1.175441        31.9854 
 102   0.0000       1.184865        32.2418 
 103   0.0000       1.211777        32.9741 
 104   0.0000       1.274162        34.6717 
 105   0.0000       1.275683        34.7131 
 106   0.0000       1.308606        35.6090 
 107   0.0000       1.337505        36.3954 
 108   0.0000       1.349156        36.7124 
 109   0.0000       1.446645        39.3652 
 110   0.0000       1.447607        39.3914 
 111   0.0000       1.469043        39.9747 
 112   0.0000       1.499739        40.8100 
 113   0.0000       1.523599        41.4592 
 114   0.0000       1.540734        41.9255 
 115   0.0000       1.600888        43.5624 
 116   0.0000       1.629440        44.3393 
 117   0.0000       1.667568        45.3768 
 118   0.0000       1.713906        46.6378 
 119   0.0000       1.727365        47.0040 
 120   0.0000       1.745294        47.4919 
 121   0.0000       1.765437        48.0400 
 122   0.0000       1.805620        49.1334 
 123   0.0000       1.816489        49.4292 
 124   0.0000       1.840453        50.0813 
 125   0.0000       1.865773        50.7703 
 126   0.0000       1.881276        51.1921 
 127   0.0000       1.912071        52.0301 
 128   0.0000       1.959656        53.3249 
 129   0.0000       1.980239        53.8850 
 130   0.0000       1.988829        54.1188 
 131   0.0000       2.018970        54.9390 
 132   0.0000       2.030263        55.2463 
 133   0.0000       2.107626        57.3514 
 134   0.0000       2.140287        58.2402 
 135   0.0000       2.159770        58.7703 
 136   0.0000       2.240731        60.9734 
 137   0.0000       2.265021        61.6343 
 138   0.0000       2.279077        62.0168 
 139   0.0000       2.291800        62.3630 
 140   0.0000       2.317526        63.0631 
 141   0.0000       2.346268        63.8452 
 142   0.0000       2.427180        66.0469 
 143   0.0000       2.459600        66.9291 
 144   0.0000       2.614655        71.1484 
 145   0.0000       2.638724        71.8033 
 146   0.0000       2.729233        74.2662 
 147   0.0000       2.841163        77.3120 
 148   0.0000       2.932443        79.7958 
 149   0.0000       2.990101        81.3648 
 150   0.0000       2.998902        81.6043 
 151   0.0000       3.025362        82.3243 
 152   0.0000       3.029953        82.4492 
 153   0.0000       3.037056        82.6425 
 154   0.0000       3.044787        82.8529 
 155   0.0000       3.052417        83.0605 
 156   0.0000       3.133217        85.2592 
 157   0.0000       3.142927        85.5234 
 158   0.0000       3.166904        86.1758 
 159   0.0000       3.169248        86.2396 
 160   0.0000       3.257765        88.6483 
 161   0.0000       3.410278        92.7984 
 162   0.0000       3.525067        95.9219 
 163   0.0000       3.525520        95.9343 
 164   0.0000       3.587989        97.6341 
 165   0.0000       3.657093        99.5146 
 166   0.0000       3.824227       104.0625 
 167   0.0000       3.852265       104.8254 

                    ********************************
                    * MULLIKEN POPULATION ANALYSIS *
                    ********************************

-----------------------
MULLIKEN ATOMIC CHARGES
-----------------------
   0 C :   -0.063057
   1 S :    0.155392
   2 C :   -0.123329
   3 C :   -0.024818
   4 C :   -0.099263
   5 C :   -0.136162
   6 N :    0.102448
   7 C :    0.569616
   8 F :   -0.163910
   9 F :   -0.160989
  10 F :   -0.161174
  11 H :    0.051037
  12 H :    0.054208
Sum of atomic charges:   -0.0000000

--------------------------------
MULLIKEN REDUCED ORBITAL CHARGES
--------------------------------
  0 C s       :     3.221247  s :     3.221247
      pz      :     1.058771  p :     2.806547
      px      :     0.852449
      py      :     0.895327
      dz2     :     0.003109  d :     0.035263
      dxz     :     0.006731
      dyz     :     0.003661
      dx2y2   :     0.012058
      dxy     :     0.009703
  1 S s       :     5.842288  s :     5.842288
      pz      :     3.610097  p :     9.887119
      px      :     3.245043
      py      :     3.031979
      dz2     :     0.012858  d :     0.115200
      dxz     :     0.014370
      dyz     :     0.020541
      dx2y2   :     0.038808
      dxy     :     0.028623
  2 C s       :     3.228565  s :     3.228565
      pz      :     1.067666  p :     2.859553
      px      :     0.967476
      py      :     0.824412
      dz2     :     0.003064  d :     0.035210
      dxz     :     0.006475
      dyz     :     0.004022
      dx2y2   :     0.011102
      dxy     :     0.010547
  3 C s       :     3.082378  s :     3.082378
      pz      :     1.051303  p :     2.903487
      px      :     0.891958
      py      :     0.960227
      dz2     :     0.003503  d :     0.038952
      dxz     :     0.007218
      dyz     :     0.004306
      dx2y2   :     0.011018
      dxy     :     0.012908
  4 C s       :     3.051258  s :     3.051258
      pz      :     1.063093  p :     3.003822
      px      :     0.972884
      py      :     0.967845
      dz2     :     0.003488  d :     0.044183
      dxz     :     0.006078
      dyz     :     0.007284
      dx2y2   :     0.013327
      dxy     :     0.014006
  5 C s       :     3.083037  s :     3.083037
      pz      :     0.962240  p :     3.008426
      px      :     1.068258
      py      :     0.977928
      dz2     :     0.003409  d :     0.044699
      dxz     :     0.017117
      dyz     :     0.000325
      dx2y2   :     0.009996
      dxy     :     0.013852
  6 N s       :     3.519598  s :     3.519598
      pz      :     1.051941  p :     3.345863
      px      :     1.268952
      py      :     1.024970
      dz2     :     0.003006  d :     0.032091
      dxz     :     0.009740
      dyz     :     0.000182
      dx2y2   :     0.009044
      dxy     :     0.010118
  7 C s       :     2.904796  s :     2.904796
      pz      :     0.712530  p :     2.344176
      px      :     0.756596
      py      :     0.875050
      dz2     :     0.040710  d :     0.181413
      dxz     :     0.048818
      dyz     :     0.026250
      dx2y2   :     0.026949
      dxy     :     0.038686
  8 F s       :     3.889684  s :     3.889684
      pz      :     1.899150  p :     5.266063
      px      :     1.730745
      py      :     1.636168
      dz2     :     0.001203  d :     0.008163
      dxz     :     0.000681
      dyz     :     0.001027
      dx2y2   :     0.001846
      dxy     :     0.003407
  9 F s       :     3.896122  s :     3.896122
      pz      :     1.619071  p :     5.256590
      px      :     1.735678
      py      :     1.901841
      dz2     :     0.002181  d :     0.008277
      dxz     :     0.003346
      dyz     :     0.001136
      dx2y2   :     0.000858
      dxy     :     0.000756
 10 F s       :     3.896103  s :     3.896103
      pz      :     1.608482  p :     5.256807
      px      :     1.746598
      py      :     1.901726
      dz2     :     0.002305  d :     0.008264
      dxz     :     0.003284
      dyz     :     0.001180
      dx2y2   :     0.000784
      dxy     :     0.000711
 11 H s       :     0.925435  s :     0.925435
      pz      :     0.004989  p :     0.023528
      px      :     0.003282
      py      :     0.015257
 12 H s       :     0.922057  s :     0.922057
      pz      :     0.004903  p :     0.023735
      px      :     0.008756
      py      :     0.010076


                     *******************************
                     * LOEWDIN POPULATION ANALYSIS *
                     *******************************

----------------------
LOEWDIN ATOMIC CHARGES
----------------------
   0 C :   -0.145854
   1 S :    0.485488
   2 C :   -0.159958
   3 C :   -0.099842
   4 C :   -0.090954
   5 C :   -0.033867
   6 N :   -0.044576
   7 C :    0.173127
   8 F :   -0.056630
   9 F :   -0.053909
  10 F :   -0.054529
  11 H :    0.041875
  12 H :    0.039629

-------------------------------
LOEWDIN REDUCED ORBITAL CHARGES
-------------------------------
  0 C s       :     2.931222  s :     2.931222
      pz      :     1.058117  p :     3.131550
      px      :     1.005830
      py      :     1.067603
      dz2     :     0.006280  d :     0.083082
      dxz     :     0.013838
      dyz     :     0.006085
      dx2y2   :     0.030877
      dxy     :     0.026002
  1 S s       :     5.501475  s :     5.501475
      pz      :     3.560787  p :     9.872847
      px      :     3.270660
      py      :     3.041400
      dz2     :     0.016355  d :     0.140191
      dxz     :     0.014737
      dyz     :     0.024343
      dx2y2   :     0.049747
      dxy     :     0.035009
  2 C s       :     2.928291  s :     2.928291
      pz      :     1.064302  p :     3.147478
      px      :     1.074566
      py      :     1.008609
      dz2     :     0.006263  d :     0.084190
      dxz     :     0.012669
      dyz     :     0.007521
      dx2y2   :     0.029243
      dxy     :     0.028494
  3 C s       :     2.871182  s :     2.871182
      pz      :     1.031988  p :     3.124494
      px      :     1.069343
      py      :     1.023162
      dz2     :     0.008768  d :     0.104165
      dxz     :     0.014709
      dyz     :     0.008463
      dx2y2   :     0.034340
      dxy     :     0.037885
  4 C s       :     2.843804  s :     2.843804
      pz      :     1.040883  p :     3.130660
      px      :     1.034335
      py      :     1.055442
      dz2     :     0.008671  d :     0.116490
      dxz     :     0.012517
      dyz     :     0.015088
      dx2y2   :     0.038759
      dxy     :     0.041455
  5 C s       :     2.903993  s :     2.903993
      pz      :     0.941824  p :     3.022174
      px      :     1.142748
      py      :     0.937602
      dz2     :     0.010460  d :     0.107700
      dxz     :     0.035217
      dyz     :     0.000634
      dx2y2   :     0.031049
      dxy     :     0.030340
  6 N s       :     3.427273  s :     3.427273
      pz      :     1.060600  p :     3.563262
      px      :     1.462318
      py      :     1.040344
      dz2     :     0.006472  d :     0.054041
      dxz     :     0.013629
      dyz     :     0.000259
      dx2y2   :     0.018987
      dxy     :     0.014693
  7 C s       :     2.844703  s :     2.844703
      pz      :     0.809167  p :     2.599239
      px      :     0.844087
      py      :     0.945985
      dz2     :     0.088919  d :     0.382931
      dxz     :     0.106724
      dyz     :     0.046021
      dx2y2   :     0.053300
      dxy     :     0.087966
  8 F s       :     3.729530  s :     3.729530
      pz      :     1.896528  p :     5.314148
      px      :     1.753358
      py      :     1.664262
      dz2     :     0.002213  d :     0.012952
      dxz     :     0.000874
      dyz     :     0.001205
      dx2y2   :     0.002512
      dxy     :     0.006148
  9 F s       :     3.733776  s :     3.733776
      pz      :     1.656023  p :     5.307025
      px      :     1.755968
      py      :     1.895034
      dz2     :     0.003263  d :     0.013109
      dxz     :     0.006079
      dyz     :     0.001492
      dx2y2   :     0.001279
      dxy     :     0.000996
 10 F s       :     3.734003  s :     3.734003
      pz      :     1.646712  p :     5.307437
      px      :     1.765612
      py      :     1.895113
      dz2     :     0.003512  d :     0.013090
      dxz     :     0.005935
      dyz     :     0.001552
      dx2y2   :     0.001153
      dxy     :     0.000937
 11 H s       :     0.884220  s :     0.884220
      pz      :     0.016077  p :     0.073905
      px      :     0.012494
      py      :     0.045335
 12 H s       :     0.885786  s :     0.885786
      pz      :     0.016090  p :     0.074584
      px      :     0.025287
      py      :     0.033207


                      *****************************
                      * MAYER POPULATION ANALYSIS *
                      *****************************

  NA   - Mulliken gross atomic population
  ZA   - Total nuclear charge
  QA   - Mulliken gross atomic charge
  VA   - Mayer's total valence
  BVA  - Mayer's bonded valence
  FA   - Mayer's free valence

  ATOM       NA         ZA         QA         VA         BVA        FA
  0 C      6.0631     6.0000    -0.0631     3.8272     3.8272     0.0000
  1 S     15.8446    16.0000     0.1554     2.5702     2.5702     0.0000
  2 C      6.1233     6.0000    -0.1233     3.8636     3.8636    -0.0000
  3 C      6.0248     6.0000    -0.0248     3.8548     3.8548    -0.0000
  4 C      6.0993     6.0000    -0.0993     4.1209     4.1209    -0.0000
  5 C      6.1362     6.0000    -0.1362     4.1255     4.1255    -0.0000
  6 N      6.8976     7.0000     0.1024     3.1476     3.1476    -0.0000
  7 C      5.4304     6.0000     0.5696     4.4470     4.4470    -0.0000
  8 F      9.1639     9.0000    -0.1639     1.2038     1.2038    -0.0000
  9 F      9.1610     9.0000    -0.1610     1.1941     1.1941     0.0000
 10 F      9.1612     9.0000    -0.1612     1.1939     1.1939    -0.0000
 11 H      0.9490     1.0000     0.0510     0.9978     0.9978    -0.0000
 12 H      0.9458     1.0000     0.0542     1.0053     1.0053    -0.0000

  Mayer bond orders larger than 0.100000
B(  0-C ,  1-S ) :   1.1865 B(  0-C ,  4-C ) :   1.5399 B(  0-C , 11-H ) :   0.9697 
B(  1-S ,  2-C ) :   1.1841 B(  2-C ,  3-C ) :   1.5624 B(  2-C , 12-H ) :   0.9625 
B(  3-C ,  4-C ) :   1.2545 B(  3-C ,  7-C ) :   0.9457 B(  4-C ,  5-C ) :   1.1307 
B(  5-C ,  6-N ) :   3.0025 B(  7-C ,  8-F ) :   1.1564 B(  7-C ,  9-F ) :   1.1579 
B(  7-C , 10-F ) :   1.1593 

-------
TIMINGS
-------

Total SCF time: 0 days 0 hours 0 min 27 sec 

Total time                  ....      27.241 sec
Sum of individual times     ....      27.118 sec  ( 99.5%)

Fock matrix formation       ....      25.074 sec  ( 92.0%)
  Split-RI-J                ....       2.569 sec  ( 10.2% of F)
  Chain of spheres X        ....      20.465 sec  ( 81.6% of F)
  COS-X 1 center corr.      ....       0.000 sec  (  0.0% of F)
  XC integration            ....       1.998 sec  (  8.0% of F)
    Basis function eval.    ....       0.612 sec  ( 30.6% of XC)
    Density eval.           ....       0.680 sec  ( 34.0% of XC)
    XC-Functional eval.     ....       0.127 sec  (  6.3% of XC)
    XC-Potential eval.      ....       0.539 sec  ( 27.0% of XC)
Diagonalization             ....       0.007 sec  (  0.0%)
Density matrix formation    ....       0.002 sec  (  0.0%)
Population analysis         ....       0.005 sec  (  0.0%)
Initial guess               ....       0.006 sec  (  0.0%)
Orbital Transformation      ....       0.000 sec  (  0.0%)
Orbital Orthonormalization  ....       0.005 sec  (  0.0%)
DIIS solution               ....       0.002 sec  (  0.0%)
SOSCF solution              ....       0.123 sec  (  0.5%)
Grid generation             ....       1.898 sec  (  7.0%)


-------------------------------------------------------------------------------
                          DFT DISPERSION CORRECTION                            
                                                                               
                              DFTD3 V3.1  Rev 1                                
                          USING Becke-Johnson damping                          
-------------------------------------------------------------------------------
Gaussians B3LYP functional is recognized, using regular B3LYP params
Active option DFTDOPT                   ...         4   

molecular C6(AA) [au] = 3165.868443 


            DFT-D V3
 parameters
 s6 scaling factor         :     1.0000 
 a1 scaling factor         :     0.3981 
 s8 scaling factor         :     1.9889 
 a2 scaling factor         :     4.4211 
 ad hoc parameters k1-k3   :    16.0000     1.3333    -4.0000 

 Edisp/kcal,au: -16.860756639200  -0.026869323154 
 E6   /kcal   :  -7.411171361 
 E8   /kcal   :  -9.449585278 
 % E8         :  56.044847099 

-------------------------   ----------------
Dispersion correction           -0.026869323
-------------------------   ----------------


-------------------------   --------------------
FINAL SINGLE POINT ENERGY      -981.768115247593
-------------------------   --------------------

                                *** OPTIMIZATION RUN DONE ***

                            ***************************************
                            *     ORCA property calculations      *
                            ***************************************

                                    ---------------------
                                    Active property flags
                                    ---------------------
   (+) Dipole Moment


------------------------------------------------------------------------------
                       ORCA ELECTRIC PROPERTIES CALCULATION
------------------------------------------------------------------------------

Dipole Moment Calculation                       ... on
Quadrupole Moment Calculation                   ... off
Polarizability Calculation                      ... off
GBWName                                         ... 428.gbw
Electron density file                           ... 428.scfp
The origin for moment calculation is the CENTER OF MASS  = (-0.699629, -2.146504 -0.029534)

-------------
DIPOLE MOMENT
-------------
                                X             Y             Z
Electronic contribution:     -2.33900      -6.91368      -0.04832
Nuclear contribution   :      4.30879       7.45829       0.05692
                        -----------------------------------------
Total Dipole Moment    :      1.96978       0.54461       0.00859
                        -----------------------------------------
Magnitude (a.u.)       :      2.04370
Magnitude (Debye)      :      5.19468



--------------------
Rotational spectrum 
--------------------
 
Rotational constants in cm-1:     0.043616     0.029274     0.019300 
Rotational constants in MHz :  1307.573040   877.608649   578.592702 

 Dipole components along the rotational axes: 
x,y,z [a.u.] :     1.655880     1.197822     0.000619 
x,y,z [Debye]:     4.208912     3.044620     0.001574 

 

Timings for individual modules:

Sum of individual times         ...      299.972 sec (=   5.000 min)
GTO integral calculation        ...        1.178 sec (=   0.020 min)   0.4 %
SCF iterations                  ...      234.103 sec (=   3.902 min)  78.0 %
SCF Gradient evaluation         ...       64.229 sec (=   1.070 min)  21.4 %
Geometry relaxation             ...        0.462 sec (=   0.008 min)   0.2 %
                             ****ORCA TERMINATED NORMALLY****
TOTAL RUN TIME: 0 days 0 hours 5 minutes 0 seconds 500 msec
