
                                 *****************
                                 * O   R   C   A *
                                 *****************

           --- An Ab Initio, DFT and Semiempirical electronic structure package ---

                  #######################################################
                  #                        -***-                        #
                  #          Department of theory and spectroscopy      #
                  #               Directorship: Frank Neese             #
                  #        Max Planck Institute fuer Kohlenforschung    #
                  #                Kaiser Wilhelm Platz 1               #
                  #                 D-45470 Muelheim/Ruhr               #
                  #                      Germany                        #
                  #                                                     #
                  #                  All rights reserved                #
                  #                        -***-                        #
                  #######################################################


                         Program Version 4.2.0 -  RELEASE  -


 With contributions from (in alphabetic order):
   Daniel Aravena         : Magnetic Suceptibility
   Michael Atanasov       : Ab Initio Ligand Field Theory (pilot matlab implementation)
   Alexander A. Auer      : GIAO ZORA, VPT2
   Ute Becker             : Parallelization
   Giovanni Bistoni       : ED, misc. LED, open-shell LED, HFLED
   Martin Brehm           : Molecular dynamics
   Dmytro Bykov           : SCF Hessian
   Vijay G. Chilkuri      : MRCI spin determinant printing, contributions to CSF-ICE
   Dipayan Datta          : RHF DLPNO-CCSD density
   Achintya Kumar Dutta   : EOM-CC, STEOM-CC
   Dmitry Ganyushin       : Spin-Orbit,Spin-Spin,Magnetic field MRCI
   Miquel Garcia          : C-PCM Hessian, Gaussian charge scheme
   Yang Guo               : DLPNO-NEVPT2, CIM, IAO-localization
   Andreas Hansen         : Spin unrestricted coupled pair/coupled cluster methods
   Benjamin Helmich-Paris : CASSCF linear response (MC-RPA)
   Lee Huntington         : MR-EOM, pCC
   Robert Izsak           : Overlap fitted RIJCOSX, COSX-SCS-MP3, EOM
   Christian Kollmar      : KDIIS, OOCD, Brueckner-CCSD(T), CCSD density
   Simone Kossmann        : Meta GGA functionals, TD-DFT gradient, OOMP2, MP2 Hessian
   Martin Krupicka        : AUTO-CI
   Lucas Lang             : DCDCAS
   Dagmar Lenk            : GEPOL surface, SMD
   Dimitrios Liakos       : Extrapolation schemes; Compound Job, initial MDCI parallelization
   Dimitrios Manganas     : Further ROCIS development; embedding schemes
   Dimitrios Pantazis     : SARC Basis sets
   Taras Petrenko         : DFT Hessian,TD-DFT gradient, ASA, ECA, R-Raman, ABS, FL, XAS/XES, NRVS
   Peter Pinski           : DLPNO-MP2, DLPNO-MP2 Gradient
   Christoph Reimann      : Effective Core Potentials
   Marius Retegan         : Local ZFS, SOC
   Christoph Riplinger    : Optimizer, TS searches, QM/MM, DLPNO-CCSD(T), (RO)-DLPNO pert. Triples
   Tobias Risthaus        : Range-separated hybrids, TD-DFT gradient, RPA, STAB
   Michael Roemelt        : Original ROCIS implementation
   Masaaki Saitow         : Open-shell DLPNO-CCSD energy and density
   Barbara Sandhoefer     : DKH picture change effects
   Avijit Sen             : IP-ROCIS
   Kantharuban Sivalingam : CASSCF convergence, NEVPT2, FIC-MRCI
   Bernardo de Souza      : ESD, SOC TD-DFT
   Georgi Stoychev        : AutoAux, RI-MP2 NMR
   Willem Van den Heuvel  : Paramagnetic NMR
   Boris Wezisla          : Elementary symmetry handling
   Frank Wennmohs         : Technical directorship


 We gratefully acknowledge several colleagues who have allowed us to
 interface, adapt or use parts of their codes:
   Stefan Grimme, W. Hujo, H. Kruse,             : VdW corrections, initial TS optimization,
                  C. Bannwarth                     DFT functionals, gCP, sTDA/sTD-DF
   Ed Valeev, F. Pavosevic, A. Kumar             : LibInt (2-el integral package), F12 methods
   Garnet Chan, S. Sharma, J. Yang, R. Olivares  : DMRG
   Ulf Ekstrom                                   : XCFun DFT Library
   Mihaly Kallay                                 : mrcc  (arbitrary order and MRCC methods)
   Andreas Klamt, Michael Diedenhofen            : otool_cosmo (COSMO solvation model)
   Jiri Pittner, Ondrej Demel                    : Mk-CCSD
   Frank Weinhold                                : gennbo (NPA and NBO analysis)
   Christopher J. Cramer and Donald G. Truhlar   : smd solvation model
   Lars Goerigk                                  : TD-DFT with DH, B97 family of functionals
   V. Asgeirsson, H. Jonsson                     : NEB implementation
   FAccTs GmbH                                   : IRC, NEB, NEB-TS, Multilevel, MM, QM/MM, CI optimization
   S Lehtola, MJT Oliveira, MAL Marques          : LibXC Library


 Your calculation uses the libint2 library for the computation of 2-el integrals
 For citations please refer to: http://libint.valeyev.net

 Your ORCA version has been built with support for libXC version: 4.2.3
 For citations please refer to: https://tddft.org/programs/libxc/

 This ORCA versions uses:
   CBLAS   interface :  Fast vector & matrix operations
   LAPACKE interface :  Fast linear algebra routines
   SCALAPACK package :  Parallel linear algebra routines


Your calculation utilizes the atom-pairwise dispersion correction
with the Becke-Johnson damping scheme (D3BJ)
Cite in your paper:
S.Grimme, S.Ehrlich, L.Goerigk, J Comput Chem, (2011), 32, 1456–1465 
S.Grimme, J.Antony, S.Ehrlich and H.Krieg, J.Chem.Phys., 132, (2010), 154104 
   

----- Orbital basis set information -----
Your calculation utilizes the basis: def2-SVP
   F. Weigend and R. Ahlrichs, Phys. Chem. Chem. Phys. 7, 3297 (2005).

----- AuxJ basis set information -----
Your calculation utilizes the auxiliary basis: def2/J
   F. Weigend, Phys. Chem. Chem. Phys. 8, 1057 (2006).

================================================================================
                                        WARNINGS
                       Please study these warnings very carefully!
================================================================================


WARNING: Geometry Optimization
  ===> : Switching off AutoStart
         For restart on a previous wavefunction, please use MOREAD

INFO   : the flag for use of LIBINT has been found!

================================================================================
                                       INPUT FILE
================================================================================
NAME = 459.inp
|  1> # ORCA input file
|  2> # SCF done        -36.947721243809          0.000426672988
|  3> ! B3LYP/G D3BJ Opt RIJCOSX def2-SVP def2/J
|  4> * xyz 0 1
|  5>    C        1.49462        -1.28874         0.03040
|  6>    S        2.71679        -0.08840         0.14798
|  7>    C        1.52638         1.18247         0.12366
|  8>    C        0.25802         0.65759         0.02009
|  9>    C        0.24273        -0.76062        -0.02788
| 10>    C       -1.01909        -1.55110        -0.17395
| 11>    C       -2.21457        -0.73655         0.31162
| 12>    C       -2.22595         0.62977        -0.36706
| 13>    C       -1.00292         1.47958         0.00635
| 14>    C       -1.14434         2.05952         1.39346
| 15>    O       -0.99140         3.21419         1.67587
| 16>    C        1.91034         2.56714         0.19653
| 17>    C        3.16386         2.99657         0.31013
| 18>    H        1.77405        -2.32343         0.00515
| 19>    H       -0.93915        -2.48960         0.37818
| 20>    H       -1.15793        -1.80295        -1.23064
| 21>    H       -2.16211        -0.62006         1.39526
| 22>    H       -3.13996        -1.26682         0.07962
| 23>    H       -3.13276         1.17706        -0.10029
| 24>    H       -2.22976         0.48558        -1.45007
| 25>    H       -0.90151         2.31064        -0.69970
| 26>    H       -1.38039         1.30934         2.17136
| 27>    H        1.09604         3.27751         0.16573
| 28>    H        3.99296         2.30937         0.35642
| 29>    H        3.39667         4.04485         0.36374
| 30> *
| 31> 
| 32>                          ****END OF INPUT****
================================================================================

                       *****************************
                       * Geometry Optimization Run *
                       *****************************

Geometry optimization settings:
Update method            Update   .... BFGS
Choice of coordinates    CoordSys .... Z-matrix Internals
Initial Hessian          InHess   .... Almoef's Model

Convergence Tolerances:
Energy Change            TolE     ....  5.0000e-06 Eh
Max. Gradient            TolMAXG  ....  3.0000e-04 Eh/bohr
RMS Gradient             TolRMSG  ....  1.0000e-04 Eh/bohr
Max. Displacement        TolMAXD  ....  4.0000e-03 bohr
RMS Displacement         TolRMSD  ....  2.0000e-03 bohr
Strict Convergence                ....  False
------------------------------------------------------------------------------
                        ORCA OPTIMIZATION COORDINATE SETUP
------------------------------------------------------------------------------

The optimization will be done in new redundant internal coordinates
Making redundant internal coordinates   ...  (new redundants) done
Evaluating the initial hessian          ...  (Almloef) done
Evaluating the coordinates              ...  done
Calculating the B-matrix                .... done
Calculating the G-matrix                .... done
Diagonalizing the G-matrix              .... done
Small eigenvalue found = 1.630e-02
The first mode is                       ....   72
The number of degrees of freedom        ....   69

    -----------------------------------------------------------------
                    Redundant Internal Coordinates


    -----------------------------------------------------------------
         Definition                    Initial Value    Approx d2E/dq
    -----------------------------------------------------------------
      1. B(S   1,C   0)                  1.7171         0.506619   
      2. B(C   2,S   1)                  1.7415         0.463160   
      3. B(C   3,C   2)                  1.3766         0.656379   
      4. B(C   4,C   3)                  1.4191         0.561443   
      5. B(C   4,C   0)                  1.3600         0.697653   
      6. B(C   5,C   4)                  1.4961         0.423083   
      7. B(C   6,C   5)                  1.5259         0.379211   
      8. B(C   7,C   6)                  1.5256         0.379611   
      9. B(C   8,C   7)                  1.5354         0.366254   
     10. B(C   8,C   3)                  1.5053         0.409109   
     11. B(C   9,C   8)                  1.5101         0.401907   
     12. B(O  10,C   9)                  1.1985         1.130829   
     13. B(C  11,C   2)                  1.4388         0.522319   
     14. B(C  12,C  11)                  1.3299         0.779163   
     15. B(H  13,C   0)                  1.0721         0.384639   
     16. B(H  14,C   5)                  1.0918         0.357731   
     17. B(H  15,C   5)                  1.0951         0.353384   
     18. B(H  16,C   6)                  1.0911         0.358588   
     19. B(H  17,C   6)                  1.0915         0.358130   
     20. B(H  18,C   7)                  1.0922         0.357144   
     21. B(H  19,C   7)                  1.0926         0.356712   
     22. B(H  20,C   8)                  1.0952         0.353293   
     23. B(H  21,C   9)                  1.1062         0.339329   
     24. B(H  22,C  11)                  1.0810         0.372143   
     25. B(H  23,C  12)                  1.0779         0.376516   
     26. B(H  24,C  12)                  1.0752         0.380279   
     27. A(S   1,C   0,H  13)          119.3923         0.362872   
     28. A(C   4,C   0,H  13)          127.8589         0.364127   
     29. A(S   1,C   0,C   4)          112.7477         0.451340   
     30. A(C   0,S   1,C   2)           91.2979         0.442439   
     31. A(S   1,C   2,C  11)          121.2783         0.421543   
     32. A(S   1,C   2,C   3)          110.6477         0.439191   
     33. A(C   3,C   2,C  11)          128.0724         0.425244   
     34. A(C   2,C   3,C   8)          124.3540         0.407157   
     35. A(C   2,C   3,C   4)          113.1740         0.430787   
     36. A(C   4,C   3,C   8)          122.4388         0.396103   
     37. A(C   0,C   4,C   3)          112.1306         0.435537   
     38. A(C   3,C   4,C   5)          122.7113         0.398447   
     39. A(C   0,C   4,C   5)          125.1257         0.414040   
     40. A(H  14,C   5,H  15)          107.4311         0.289681   
     41. A(C   6,C   5,H  15)          109.2980         0.324114   
     42. A(C   4,C   5,H  15)          108.8226         0.330012   
     43. A(C   6,C   5,H  14)          110.8116         0.324765   
     44. A(C   4,C   5,H  14)          110.0623         0.330680   
     45. A(C   4,C   5,C   6)          110.3435         0.372147   
     46. A(C   7,C   6,H  17)          109.5245         0.324881   
     47. A(C   5,C   6,H  17)          109.7094         0.324825   
     48. A(C   7,C   6,H  16)          110.2757         0.324949   
     49. A(C   5,C   6,H  16)          109.5937         0.324893   
     50. A(C   5,C   6,C   7)          110.0202         0.365284   
     51. A(H  16,C   6,H  17)          107.6811         0.290397   
     52. A(C   6,C   7,C   8)          112.4300         0.363118   
     53. A(H  18,C   7,H  19)          107.7783         0.290033   
     54. A(C   8,C   7,H  19)          108.4753         0.322766   
     55. A(C   6,C   7,H  19)          108.8318         0.324669   
     56. A(C   8,C   7,H  18)          108.9409         0.322830   
     57. A(C   6,C   7,H  18)          110.2604         0.324734   
     58. A(C   7,C   8,C   9)          111.1836         0.366682   
     59. A(C   3,C   8,C   9)          106.2471         0.373724   
     60. A(C   3,C   8,C   7)          111.5458         0.367800   
     61. A(C   9,C   8,H  20)          108.0246         0.327214   
     62. A(C   7,C   8,H  20)          109.6921         0.322257   
     63. A(C   3,C   8,H  20)          110.0411         0.328173   
     64. A(O  10,C   9,H  21)          120.9906         0.384870   
     65. A(C   8,C   9,H  21)          113.9223         0.325049   
     66. A(C   8,C   9,O  10)          125.0638         0.444449   
     67. A(C  12,C  11,H  22)          120.0159         0.368994   
     68. A(C   2,C  11,H  22)          115.4641         0.344762   
     69. A(C   2,C  11,C  12)          124.5156         0.438551   
     70. A(H  23,C  12,H  24)          116.9309         0.295418   
     71. A(C  11,C  12,H  24)          121.5465         0.370368   
     72. A(C  11,C  12,H  23)          121.5221         0.369735   
     73. D(C   2,S   1,C   0,H  13)    179.7714         0.005309   
     74. D(C   2,S   1,C   0,C   4)      0.1285         0.005309   
     75. D(C  11,C   2,S   1,C   0)   -179.9387         0.004656   
     76. D(C   3,C   2,S   1,C   0)     -0.3636         0.004656   
     77. D(C   4,C   3,C   2,C  11)   -179.9519         0.030039   
     78. D(C   8,C   3,C   2,C  11)     -2.0099         0.030039   
     79. D(C   8,C   3,C   2,S   1)    178.4513         0.030039   
     80. D(C   4,C   3,C   2,S   1)      0.5093         0.030039   
     81. D(C   0,C   4,C   3,C   2)     -0.4229         0.021596   
     82. D(C   0,C   4,C   3,C   8)   -178.4097         0.021596   
     83. D(C   5,C   4,C   3,C   2)   -178.4497         0.021596   
     84. D(C   5,C   4,C   0,S   1)    178.1059         0.034260   
     85. D(C   3,C   4,C   0,S   1)      0.1359         0.034260   
     86. D(C   3,C   4,C   0,H  13)   -179.4701         0.034260   
     87. D(C   5,C   4,C   3,C   8)      3.5635         0.021596   
     88. D(C   5,C   4,C   0,H  13)     -1.5001         0.034260   
     89. D(H  15,C   5,C   4,C   3)     96.4493         0.013231   
     90. D(H  15,C   5,C   4,C   0)    -81.3157         0.013231   
     91. D(H  14,C   5,C   4,C   3)   -146.0724         0.013231   
     92. D(H  14,C   5,C   4,C   0)     36.1626         0.013231   
     93. D(C   6,C   5,C   4,C   3)    -23.4691         0.013231   
     94. D(C   6,C   5,C   4,C   0)    158.7659         0.013231   
     95. D(H  17,C   6,C   5,H  14)    -65.2895         0.011463   
     96. D(H  17,C   6,C   5,C   4)    172.5475         0.011463   
     97. D(H  16,C   6,C   5,H  15)    170.9484         0.011463   
     98. D(C   7,C   6,C   5,C   4)     51.9921         0.011463   
     99. D(C   7,C   6,C   5,H  14)    174.1551         0.011463   
    100. D(H  16,C   6,C   5,C   4)    -69.4204         0.011463   
    101. D(H  16,C   6,C   5,H  14)     52.7426         0.011463   
    102. D(H  17,C   6,C   5,H  15)     52.9162         0.011463   
    103. D(C   7,C   6,C   5,H  15)    -67.6391         0.011463   
    104. D(H  19,C   7,C   6,H  17)    -64.3855         0.011486   
    105. D(H  19,C   7,C   6,C   5)     56.2812         0.011486   
    106. D(H  18,C   7,C   6,H  17)     53.6338         0.011486   
    107. D(H  18,C   7,C   6,H  16)    -64.6952         0.011486   
    108. D(H  18,C   7,C   6,C   5)    174.3006         0.011486   
    109. D(C   8,C   7,C   6,H  17)    175.4158         0.011486   
    110. D(H  19,C   7,C   6,H  16)    177.2854         0.011486   
    111. D(C   8,C   7,C   6,H  16)     57.0867         0.011486   
    112. D(C   8,C   7,C   6,C   5)    -63.9175         0.011486   
    113. D(H  20,C   8,C   7,H  18)    -73.3428         0.010737   
    114. D(H  20,C   8,C   7,C   6)    164.1279         0.010737   
    115. D(C   9,C   8,C   7,H  19)    163.1403         0.010737   
    116. D(C   9,C   8,C   7,H  18)     46.0743         0.010737   
    117. D(C   9,C   8,C   7,C   6)    -76.4550         0.010737   
    118. D(C   3,C   8,C   7,H  19)    -78.4604         0.010737   
    119. D(C   3,C   8,C   7,H  18)    164.4736         0.010737   
    120. D(C   3,C   8,C   7,C   6)     41.9442         0.010737   
    121. D(H  20,C   8,C   3,C   4)   -134.2985         0.012398   
    122. D(H  20,C   8,C   3,C   2)     47.9434         0.012398   
    123. D(C   9,C   8,C   3,C   4)    108.9979         0.012398   
    124. D(C   9,C   8,C   3,C   2)    -68.7602         0.012398   
    125. D(C   7,C   8,C   3,C   4)    -12.3160         0.012398   
    126. D(H  20,C   8,C   7,H  19)     43.7232         0.010737   
    127. D(C   7,C   8,C   3,C   2)    169.9259         0.012398   
    128. D(H  21,C   9,C   8,H  20)    172.7396         0.011983   
    129. D(H  21,C   9,C   8,C   7)     52.3324         0.011983   
    130. D(H  21,C   9,C   8,C   3)    -69.2133         0.011983   
    131. D(O  10,C   9,C   8,H  20)     -9.0095         0.011983   
    132. D(O  10,C   9,C   8,C   7)   -129.4167         0.011983   
    133. D(O  10,C   9,C   8,C   3)    109.0376         0.011983   
    134. D(C  12,C  11,C   2,C   3)    179.2561         0.018609   
    135. D(C  12,C  11,C   2,S   1)     -1.2488         0.018609   
    136. D(H  22,C  11,C   2,C   3)      0.0128         0.018609   
    137. D(H  22,C  11,C   2,S   1)    179.5078         0.018609   
    138. D(H  24,C  12,C  11,H  22)     -0.5968         0.043626   
    139. D(H  24,C  12,C  11,C   2)   -179.8078         0.043626   
    140. D(H  23,C  12,C  11,H  22)    179.1699         0.043626   
    141. D(H  23,C  12,C  11,C   2)     -0.0411         0.043626   
    -----------------------------------------------------------------

Number of atoms                         .... 25
Number of degrees of freedom            .... 141

         *************************************************************
         *                GEOMETRY OPTIMIZATION CYCLE   1            *
         *************************************************************
---------------------------------
CARTESIAN COORDINATES (ANGSTROEM)
---------------------------------
  C      1.494620   -1.288740    0.030400
  S      2.716790   -0.088400    0.147980
  C      1.526380    1.182470    0.123660
  C      0.258020    0.657590    0.020090
  C      0.242730   -0.760620   -0.027880
  C     -1.019090   -1.551100   -0.173950
  C     -2.214570   -0.736550    0.311620
  C     -2.225950    0.629770   -0.367060
  C     -1.002920    1.479580    0.006350
  C     -1.144340    2.059520    1.393460
  O     -0.991400    3.214190    1.675870
  C      1.910340    2.567140    0.196530
  C      3.163860    2.996570    0.310130
  H      1.774050   -2.323430    0.005150
  H     -0.939150   -2.489600    0.378180
  H     -1.157930   -1.802950   -1.230640
  H     -2.162110   -0.620060    1.395260
  H     -3.139960   -1.266820    0.079620
  H     -3.132760    1.177060   -0.100290
  H     -2.229760    0.485580   -1.450070
  H     -0.901510    2.310640   -0.699700
  H     -1.380390    1.309340    2.171360
  H      1.096040    3.277510    0.165730
  H      3.992960    2.309370    0.356420
  H      3.396670    4.044850    0.363740

----------------------------
CARTESIAN COORDINATES (A.U.)
----------------------------
  NO LB      ZA    FRAG     MASS         X           Y           Z
   0 C     6.0000    0    12.011    2.824422   -2.435366    0.057448
   1 S    16.0000    0    32.060    5.133989   -0.167052    0.279642
   2 C     6.0000    0    12.011    2.884440    2.234544    0.233684
   3 C     6.0000    0    12.011    0.487587    1.242665    0.037965
   4 C     6.0000    0    12.011    0.458693   -1.437363   -0.052686
   5 C     6.0000    0    12.011   -1.925801   -2.931154   -0.328718
   6 C     6.0000    0    12.011   -4.184931   -1.391878    0.588876
   7 C     6.0000    0    12.011   -4.206436    1.190093   -0.693643
   8 C     6.0000    0    12.011   -1.895244    2.796001    0.012000
   9 C     6.0000    0    12.011   -2.162489    3.891929    2.633258
  10 O     8.0000    0    15.999   -1.873474    6.073939    3.166935
  11 C     6.0000    0    12.011    3.610019    4.851192    0.371388
  12 C     6.0000    0    12.011    5.978829    5.662697    0.586061
  13 H     1.0000    0     1.008    3.352469   -4.390646    0.009732
  14 H     1.0000    0     1.008   -1.774736   -4.704662    0.714657
  15 H     1.0000    0     1.008   -2.188171   -3.407082   -2.325573
  16 H     1.0000    0     1.008   -4.085796   -1.171744    2.636659
  17 H     1.0000    0     1.008   -5.933664   -2.393943    0.150460
  18 H     1.0000    0     1.008   -5.920058    2.224321   -0.189521
  19 H     1.0000    0     1.008   -4.213636    0.917613   -2.740235
  20 H     1.0000    0     1.008   -1.703607    4.366477   -1.322241
  21 H     1.0000    0     1.008   -2.608559    2.474294    4.103276
  22 H     1.0000    0     1.008    2.071215    6.193596    0.313184
  23 H     1.0000    0     1.008    7.545601    4.364077    0.673536
  24 H     1.0000    0     1.008    6.418776    7.643659    0.687369

--------------------------------
INTERNAL COORDINATES (ANGSTROEM)
--------------------------------
 C      0   0   0     0.000000000000     0.00000000     0.00000000
 S      1   0   0     1.717073289321     0.00000000     0.00000000
 C      2   1   0     1.741487291771    91.29793211     0.00000000
 C      3   2   1     1.376576495840   110.64766118   359.63642396
 C      1   2   3     1.359976420715   112.74765909     0.12846060
 C      5   1   2     1.496123252844   125.12567043   178.10586482
 C      6   5   1     1.525923444279   110.34347227   158.76590253
 C      7   6   5     1.525636388266   110.02015519    51.99211915
 C      4   3   2     1.505266099831   124.35399448   178.45127058
 C      9   4   3     1.510100715880   106.24705519   291.23976673
 O     10   9   4     1.198502757861   125.06384248   109.03760231
 C      3   2   1     1.438765556788   121.27834240   180.06125215
 C     12   3   2     1.329897543159   124.51564753   358.75115874
 H      1   2   3     1.072055074845   119.39226562   179.77140253
 H      6   5   1     1.091796771611   110.06230687    36.16261183
 H      6   5   1     1.095124981087   108.82255557   278.68428185
 H      7   6   5     1.091145096355   109.59367915   290.57960983
 H      7   6   5     1.091492979822   109.70941684   172.54748146
 H      8   7   6     1.092243998885   110.26037928   174.30058001
 H      8   7   6     1.092573078700   108.83181562    56.28124713
 H      9   4   3     1.095194646718   110.04112213    47.94338893
 H     10   9   4     1.106172701209   113.92229160   290.78669670
 H     12   3   2     1.081045173385   115.46411905   179.50784896
 H     13  12   3     1.077865211471   121.52212730   359.95888565
 H     13  12   3     1.075158354197   121.54654562   180.19221521

---------------------------
INTERNAL COORDINATES (A.U.)
---------------------------
 C      0   0   0     0.000000000000     0.00000000     0.00000000
 S      1   0   0     3.244798268688     0.00000000     0.00000000
 C      2   1   0     3.290934047151    91.29793211     0.00000000
 C      3   2   1     2.601352579531   110.64766118   359.63642396
 C      1   2   3     2.569982983741   112.74765909     0.12846060
 C      5   1   2     2.827263210466   125.12567043   178.10586482
 C      6   5   1     2.883577411017   110.34347227   158.76590253
 C      7   6   5     2.883034953767   110.02015519    51.99211915
 C      4   3   2     2.844540687356   124.35399448   178.45127058
 C      9   4   3     2.853676787651   106.24705519   291.23976673
 O     10   9   4     2.264841983106   125.06384248   109.03760231
 C      3   2   1     2.718872873248   121.27834240   180.06125215
 C     12   3   2     2.513142142745   124.51564753   358.75115874
 H      1   2   3     2.025890491937   119.39226562   179.77140253
 H      6   5   1     2.063196892244   110.06230687    36.16261183
 H      6   5   1     2.069486296669   108.82255557   278.68428185
 H      7   6   5     2.061965404482   109.59367915   290.57960983
 H      7   6   5     2.062622808961   109.70941684   172.54748146
 H      8   7   6     2.064042029311   110.26037928   174.30058001
 H      8   7   6     2.064663900038   108.83181562    56.28124713
 H      9   4   3     2.069617945634   110.04112213    47.94338893
 H     10   9   4     2.090363462105   113.92229160   290.78669670
 H     12   3   2     2.042879316096   115.46411905   179.50784896
 H     13  12   3     2.036870058962   121.52212730   359.95888565
 H     13  12   3     2.031754840030   121.54654562   180.19221521

---------------------
BASIS SET INFORMATION
---------------------
There are 4 groups of distinct atoms

 Group   1 Type C   : 7s4p1d contracted to 3s2p1d pattern {511/31/1}
 Group   2 Type S   : 10s7p1d contracted to 4s3p1d pattern {5311/511/1}
 Group   3 Type O   : 7s4p1d contracted to 3s2p1d pattern {511/31/1}
 Group   4 Type H   : 4s1p contracted to 2s1p pattern {31/1}

Atom   0C    basis set group =>   1
Atom   1S    basis set group =>   2
Atom   2C    basis set group =>   1
Atom   3C    basis set group =>   1
Atom   4C    basis set group =>   1
Atom   5C    basis set group =>   1
Atom   6C    basis set group =>   1
Atom   7C    basis set group =>   1
Atom   8C    basis set group =>   1
Atom   9C    basis set group =>   1
Atom  10O    basis set group =>   3
Atom  11C    basis set group =>   1
Atom  12C    basis set group =>   1
Atom  13H    basis set group =>   4
Atom  14H    basis set group =>   4
Atom  15H    basis set group =>   4
Atom  16H    basis set group =>   4
Atom  17H    basis set group =>   4
Atom  18H    basis set group =>   4
Atom  19H    basis set group =>   4
Atom  20H    basis set group =>   4
Atom  21H    basis set group =>   4
Atom  22H    basis set group =>   4
Atom  23H    basis set group =>   4
Atom  24H    basis set group =>   4
---------------------------------
AUXILIARY/J BASIS SET INFORMATION
---------------------------------
There are 4 groups of distinct atoms

 Group   1 Type C   : 12s5p4d2f1g contracted to 6s4p3d1f1g pattern {711111/2111/211/2/1}
 Group   2 Type S   : 14s5p5d2f1g contracted to 8s4p3d1f1g pattern {71111111/2111/311/2/1}
 Group   3 Type O   : 12s5p4d2f1g contracted to 6s4p3d1f1g pattern {711111/2111/211/2/1}
 Group   4 Type H   : 5s2p1d contracted to 3s1p1d pattern {311/2/1}

Atom   0C    basis set group =>   1
Atom   1S    basis set group =>   2
Atom   2C    basis set group =>   1
Atom   3C    basis set group =>   1
Atom   4C    basis set group =>   1
Atom   5C    basis set group =>   1
Atom   6C    basis set group =>   1
Atom   7C    basis set group =>   1
Atom   8C    basis set group =>   1
Atom   9C    basis set group =>   1
Atom  10O    basis set group =>   3
Atom  11C    basis set group =>   1
Atom  12C    basis set group =>   1
Atom  13H    basis set group =>   4
Atom  14H    basis set group =>   4
Atom  15H    basis set group =>   4
Atom  16H    basis set group =>   4
Atom  17H    basis set group =>   4
Atom  18H    basis set group =>   4
Atom  19H    basis set group =>   4
Atom  20H    basis set group =>   4
Atom  21H    basis set group =>   4
Atom  22H    basis set group =>   4
Atom  23H    basis set group =>   4
Atom  24H    basis set group =>   4
------------------------------------------------------------------------------
                           ORCA GTO INTEGRAL CALCULATION
                           -- RI-GTO INTEGRALS CHOSEN --
------------------------------------------------------------------------------

                         BASIS SET STATISTICS AND STARTUP INFO

Gaussian basis set:
 # of primitive gaussian shells          ...  222
 # of primitive gaussian functions       ...  408
 # of contracted shells                  ...  116
 # of contracted basis functions         ...  246
 Highest angular momentum                ...    2
 Maximum contraction depth               ...    5
Auxiliary gaussian basis set:
 # of primitive gaussian shells          ...  411
 # of primitive gaussian functions       ... 1109
 # of contracted shells                  ...  257
 # of contracted aux-basis functions     ...  771
 Highest angular momentum                ...    4
 Maximum contraction depth               ...    7
Ratio of auxiliary to basis functions    ...  3.13
Integral package used                  ... LIBINT
 One Electron integrals                  ... done
 Ordering auxiliary basis shells         ... done
 Integral threshhold             Thresh  ...  2.500e-11
 Primitive cut-off               TCut    ...  2.500e-12
 Pre-screening matrix                    ... done
 Shell pair data                         ... 
 Ordering of the shell pairs             ... done (   0.001 sec) 6038 of 6786 pairs
 Determination of significant pairs      ... done (   0.000 sec)
 Creation of shell pair data             ... done (   0.001 sec)
 Storage of shell pair data              ... done (   0.001 sec)
 Shell pair data done in (   0.003 sec)
 Computing two index integrals           ... done
 Cholesky decomposition of the V-matrix  ... done


Timings:
 Total evaluation time                   ...   0.161 sec (  0.003 min)
 One electron matrix time                ...   0.026 sec (  0.000 min) = 16.5%
 Schwartz matrix evaluation time         ...   0.067 sec (  0.001 min) = 41.7%
 Two index repulsion integral time       ...   0.010 sec (  0.000 min) =  6.5%
 Cholesky decomposition of V             ...   0.039 sec (  0.001 min) = 24.1%
 Three index repulsion integral time     ...   0.000 sec (  0.000 min) =  0.0%

-------------------------------------------------------------------------------
                                 ORCA SCF
-------------------------------------------------------------------------------

------------
SCF SETTINGS
------------
Hamiltonian:
 Density Functional     Method          .... DFT(GTOs)
 Exchange Functional    Exchange        .... B88
   X-Alpha parameter    XAlpha          ....  0.666667
   Becke's b parameter  XBeta           ....  0.004200
 Correlation Functional Correlation     .... LYP
 LDA part of GGA corr.  LDAOpt          .... VWN-3
 Gradients option       PostSCFGGA      .... off
 Hybrid DFT is turned on
   Fraction HF Exchange ScalHFX         ....  0.200000
   Scaling of DF-GGA-X  ScalDFX         ....  0.720000
   Scaling of DF-GGA-C  ScalDFC         ....  0.810000
   Scaling of DF-LDA-C  ScalLDAC        ....  1.000000
   Perturbative correction              ....  0.000000
   Density functional embedding theory  .... OFF
   NL short-range parameter             ....  4.800000
 RI-approximation to the Coulomb term is turned on
   Number of auxiliary basis functions  .... 771
   RIJ-COSX (HFX calculated with COS-X)).... on


General Settings:
 Integral files         IntName         .... 459
 Hartree-Fock type      HFTyp           .... RHF
 Total Charge           Charge          ....    0
 Multiplicity           Mult            ....    1
 Number of Electrons    NEL             ....  102
 Basis Dimension        Dim             ....  246
 Nuclear Repulsion      ENuc            ....    881.5367427059 Eh

Convergence Acceleration:
 DIIS                   CNVDIIS         .... on
   Start iteration      DIISMaxIt       ....    12
   Startup error        DIISStart       ....  0.200000
   # of expansion vecs  DIISMaxEq       ....     5
   Bias factor          DIISBfac        ....   1.050
   Max. coefficient     DIISMaxC        ....  10.000
 Newton-Raphson         CNVNR           .... off
 SOSCF                  CNVSOSCF        .... on
   Start iteration      SOSCFMaxIt      ....   150
   Startup grad/error   SOSCFStart      ....  0.003300
 Level Shifting         CNVShift        .... on
   Level shift para.    LevelShift      ....    0.2500
   Turn off err/grad.   ShiftErr        ....    0.0010
 Zerner damping         CNVZerner       .... off
 Static damping         CNVDamp         .... on
   Fraction old density DampFac         ....    0.7000
   Max. Damping (<1)    DampMax         ....    0.9800
   Min. Damping (>=0)   DampMin         ....    0.0000
   Turn off err/grad.   DampErr         ....    0.1000
 Fernandez-Rico         CNVRico         .... off

SCF Procedure:
 Maximum # iterations   MaxIter         ....   125
 SCF integral mode      SCFMode         .... Direct
   Integral package                     .... LIBINT
 Reset frequency        DirectResetFreq ....    20
 Integral Threshold     Thresh          ....  2.500e-11 Eh
 Primitive CutOff       TCut            ....  2.500e-12 Eh

Convergence Tolerance:
 Convergence Check Mode ConvCheckMode   .... Total+1el-Energy
 Convergence forced     ConvForced      .... 0
 Energy Change          TolE            ....  1.000e-08 Eh
 1-El. energy change                    ....  1.000e-05 Eh
 Orbital Gradient       TolG            ....  1.000e-05
 Orbital Rotation angle TolX            ....  1.000e-05
 DIIS Error             TolErr          ....  5.000e-07


Diagonalization of the overlap matrix:
Smallest eigenvalue                        ... 5.189e-04
Time for diagonalization                   ...    0.011 sec
Threshold for overlap eigenvalues          ... 1.000e-08
Number of eigenvalues below threshold      ... 0
Time for construction of square roots      ...    0.007 sec
Total time needed                          ...    0.018 sec

-------------------
DFT GRID GENERATION
-------------------

General Integration Accuracy     IntAcc      ...  4.340
Radial Grid Type                 RadialGrid  ... Gauss-Chebyshev
Angular Grid (max. acc.)         AngularGrid ... Lebedev-110
Angular grid pruning method      GridPruning ... 3 (G Style)
Weight generation scheme         WeightScheme... Becke
Basis function cutoff            BFCut       ...    1.0000e-11
Integration weight cutoff        WCut        ...    1.0000e-14
Grids for H and He will be reduced by one unit

# of grid points (after initial pruning)     ...  31266 (   0.0 sec)
# of grid points (after weights+screening)   ...  28205 (   0.1 sec)
nearest neighbour list constructed           ...    0.0 sec
Grid point re-assignment to atoms done       ...    0.0 sec
Grid point division into batches done        ...    0.0 sec
Reduced shell lists constructed in    0.2 sec

Total number of grid points                  ...    28205
Total number of batches                      ...      454
Average number of points per batch           ...       62
Average number of grid points per atom       ...     1128
Average number of shells per batch           ...    74.16 (63.93%)
Average number of basis functions per batch  ...   152.51 (61.99%)
Average number of large shells per batch     ...    54.52 (73.52%)
Average number of large basis fcns per batch ...   110.46 (72.43%)
Maximum spatial batch extension              ...  19.23, 19.26, 26.16 au
Average spatial batch extension              ...   3.52,  3.38,  3.84 au

Time for grid setup =    0.324 sec

------------------------------
INITIAL GUESS: MODEL POTENTIAL
------------------------------
Loading Hartree-Fock densities                     ... done
Calculating cut-offs                               ... done
Setting up the integral package                    ... done
Initializing the effective Hamiltonian             ... done
Starting the Coulomb interaction                   ... done (   0.2 sec)
Reading the grid                                   ... done
Mapping shells                                     ... done
Starting the XC term evaluation                    ... done (   0.3 sec)
  promolecular density results
     # of electrons  =    101.996604772
     EX              =    -93.404108197
     EC              =     -3.549195310
     EX+EC           =    -96.953303507
Transforming the Hamiltonian                       ... done (   0.0 sec)
Diagonalizing the Hamiltonian                      ... done (   0.0 sec)
Back transforming the eigenvectors                 ... done (   0.0 sec)
Now organizing SCF variables                       ... done
                      ------------------
                      INITIAL GUESS DONE (   1.0 sec)
                      ------------------
--------------------
COSX GRID GENERATION
--------------------

General Integration Accuracy     IntAcc      ...  3.340
Radial Grid Type                 RadialGrid  ... Gauss-Chebyshev
Angular Grid (max. acc.)         AngularGrid ... Lebedev-50
Angular grid pruning method      GridPruning ... 3 (G Style)
Weight generation scheme         WeightScheme... Becke
Basis function cutoff            BFCut       ...    1.0000e-11
Integration weight cutoff        WCut        ...    1.0000e-14
Grids for H and He will be reduced by one unit

# of grid points (after initial pruning)     ...  11506 (   0.0 sec)
# of grid points (after weights+screening)   ...  10487 (   0.0 sec)
nearest neighbour list constructed           ...    0.0 sec
Grid point re-assignment to atoms done       ...    0.0 sec
Grid point division into batches done        ...    0.0 sec
Reduced shell lists constructed in    0.1 sec

Total number of grid points                  ...    10487
Total number of batches                      ...      175
Average number of points per batch           ...       59
Average number of grid points per atom       ...      419
Average number of shells per batch           ...    79.18 (68.26%)
Average number of basis functions per batch  ...   164.14 (66.72%)
Average number of large shells per batch     ...    58.95 (74.45%)
Average number of large basis fcns per batch ...   120.52 (73.42%)
Maximum spatial batch extension              ...  16.92, 15.77, 21.96 au
Average spatial batch extension              ...   4.35,  4.20,  4.92 au

Overlap Fitting                  UseSFitting ... on
Constructing numerical overlap ... done (      0.1 sec)
Inverting numerical overlap    ... done (      0.0 sec)
Obtaining analytic overlap     ... done (      0.0 sec)
Final contraction and storage  ... done (      0.0 sec)


General Integration Accuracy     IntAcc      ...  3.670
Radial Grid Type                 RadialGrid  ... Gauss-Chebyshev
Angular Grid (max. acc.)         AngularGrid ... Lebedev-50
Angular grid pruning method      GridPruning ... 3 (G Style)
Weight generation scheme         WeightScheme... Becke
Basis function cutoff            BFCut       ...    1.0000e-11
Integration weight cutoff        WCut        ...    1.0000e-14
Grids for H and He will be reduced by one unit

# of grid points (after initial pruning)     ...  14598 (   0.0 sec)
# of grid points (after weights+screening)   ...  13253 (   0.0 sec)
nearest neighbour list constructed           ...    0.0 sec
Grid point re-assignment to atoms done       ...    0.0 sec
Grid point division into batches done        ...    0.0 sec
Reduced shell lists constructed in    0.1 sec

Total number of grid points                  ...    13253
Total number of batches                      ...      221
Average number of points per batch           ...       59
Average number of grid points per atom       ...      530
Average number of shells per batch           ...    78.09 (67.32%)
Average number of basis functions per batch  ...   161.36 (65.59%)
Average number of large shells per batch     ...    57.87 (74.11%)
Average number of large basis fcns per batch ...   118.18 (73.24%)
Maximum spatial batch extension              ...  17.88, 17.82, 23.91 au
Average spatial batch extension              ...   4.17,  3.93,  4.77 au

Overlap Fitting                  UseSFitting ... on
Constructing numerical overlap ... done (      0.1 sec)
Inverting numerical overlap    ... done (      0.0 sec)
Obtaining analytic overlap     ... done (      0.0 sec)
Final contraction and storage  ... done (      0.0 sec)


General Integration Accuracy     IntAcc      ...  4.010
Radial Grid Type                 RadialGrid  ... Gauss-Chebyshev
Angular Grid (max. acc.)         AngularGrid ... Lebedev-110
Angular grid pruning method      GridPruning ... 3 (G Style)
Weight generation scheme         WeightScheme... Becke
Basis function cutoff            BFCut       ...    1.0000e-11
Integration weight cutoff        WCut        ...    1.0000e-14
Grids for H and He will be reduced by one unit

# of grid points (after initial pruning)     ...  27218 (   0.0 sec)
# of grid points (after weights+screening)   ...  24621 (   0.1 sec)
nearest neighbour list constructed           ...    0.0 sec
Grid point re-assignment to atoms done       ...    0.0 sec
Grid point division into batches done        ...    0.0 sec
Reduced shell lists constructed in    0.2 sec

Total number of grid points                  ...    24621
Total number of batches                      ...      398
Average number of points per batch           ...       61
Average number of grid points per atom       ...      985
Average number of shells per batch           ...    75.02 (64.67%)
Average number of basis functions per batch  ...   154.50 (62.81%)
Average number of large shells per batch     ...    55.25 (73.64%)
Average number of large basis fcns per batch ...   112.06 (72.53%)
Maximum spatial batch extension              ...  17.63, 17.67, 24.80 au
Average spatial batch extension              ...   3.59,  3.53,  4.02 au

Overlap Fitting                  UseSFitting ... on
Constructing numerical overlap ... done (      0.2 sec)
Inverting numerical overlap    ... done (      0.0 sec)
Obtaining analytic overlap     ... done (      0.0 sec)
Final contraction and storage  ... done (      0.0 sec)

Time for X-Grid setup             =    1.059 sec
--------------
SCF ITERATIONS
--------------
ITER       Energy         Delta-E        Max-DP      RMS-DP      [F,P]     Damp
               ***  Starting incremental Fock matrix formation  ***
  0   -898.9475099324   0.000000000000 0.12398603  0.00239018  0.2420331 0.7000
  1   -899.1166735182  -0.169163585784 0.08379499  0.00162750  0.0969745 0.7000
                               ***Turning on DIIS***
  2   -899.1801779302  -0.063504412073 0.11381198  0.00265048  0.0349095 0.0000
  3   -899.2745636139  -0.094385683684 0.06984499  0.00126953  0.0508070 0.0000
  4   -899.3013313259  -0.026767712006 0.01421989  0.00034272  0.0149019 0.0000
  5   -899.3028358287  -0.001504502742 0.01022097  0.00014266  0.0093745 0.0000
                      *** Initiating the SOSCF procedure ***
                           *** Shutting down DIIS ***
                      *** Re-Reading the Fockian *** 
                      *** Removing any level shift *** 
ITER      Energy       Delta-E        Grad      Rot      Max-DP    RMS-DP
  6   -899.30299951  -0.0001636825  0.000508  0.000508  0.001458  0.000046
               *** Restarting incremental Fock matrix formation ***
  7   -899.30299693   0.0000025791  0.000322  0.001285  0.001475  0.000036
  8   -899.30299392   0.0000030091  0.000522  0.000790  0.000904  0.000020
  9   -899.30299988  -0.0000059586  0.000080  0.000301  0.000373  0.000011
 10   -899.30299954   0.0000003390  0.000099  0.000130  0.000263  0.000006
 11   -899.30300011  -0.0000005649  0.000019  0.000047  0.000131  0.000002
 12   -899.30300010   0.0000000085  0.000035  0.000032  0.000084  0.000001
                  ***Gradient check signals convergence***
              ***Rediagonalizing the Fockian in SOSCF/NRSCF***

               *****************************************************
               *                     SUCCESS                       *
               *           SCF CONVERGED AFTER  13 CYCLES          *
               *****************************************************

Setting up the final grid:

General Integration Accuracy     IntAcc      ...  4.670
Radial Grid Type                 RadialGrid  ... Gauss-Chebyshev
Angular Grid (max. acc.)         AngularGrid ... Lebedev-302
Angular grid pruning method      GridPruning ... 3 (G Style)
Weight generation scheme         WeightScheme... Becke
Basis function cutoff            BFCut       ...    1.0000e-11
Integration weight cutoff        WCut        ...    1.0000e-14
Grids for H and He will be reduced by one unit

# of grid points (after initial pruning)     ... 122118 (   0.0 sec)
# of grid points (after weights+screening)   ... 108057 (   0.4 sec)
nearest neighbour list constructed           ...    0.0 sec
Grid point re-assignment to atoms done       ...    0.0 sec
Grid point division into batches done        ...    0.4 sec
Reduced shell lists constructed in    1.1 sec

Total number of grid points                  ...   108057
Total number of batches                      ...     1703
Average number of points per batch           ...       63
Average number of grid points per atom       ...     4322
Average number of shells per batch           ...    67.84 (58.49%)
Average number of basis functions per batch  ...   138.28 (56.21%)
Average number of large shells per batch     ...    48.93 (72.13%)
Average number of large basis fcns per batch ...    98.38 (71.14%)
Maximum spatial batch extension              ...  20.73, 17.69, 20.77 au
Average spatial batch extension              ...   2.29,  2.23,  2.36 au

Final grid set up in    1.5 sec
Final integration                            ... done (   1.5 sec)
Change in XC energy                          ...    -0.000424581
Integrated number of electrons               ...   101.999703042
Previous integrated no of electrons          ...   102.000311029
Old exchange energy                            =    -18.911649990 Eh
New exchange energy                            =    -18.911620220 Eh
Exchange energy change after final integration =      0.000029770 Eh
Total energy after final integration           =   -899.303394933 Eh
Final COS-X integration done in                =    11.253 sec

----------------
TOTAL SCF ENERGY
----------------

Total Energy       :         -899.30339493 Eh          -24471.28947 eV

Components:
Nuclear Repulsion  :          881.53674271 Eh           23987.83429 eV
Electronic Energy  :        -1780.84013764 Eh          -48459.12376 eV
One Electron Energy:        -2978.02050133 Eh          -81036.05763 eV
Two Electron Energy:         1197.18036369 Eh           32576.93388 eV

Virial components:
Potential Energy   :        -1792.73162826 Eh          -48782.70767 eV
Kinetic Energy     :          893.42823333 Eh           24311.41820 eV
Virial Ratio       :            2.00657597


DFT components:
N(Alpha)           :       50.999851520959 electrons
N(Beta)            :       50.999851520959 electrons
N(Total)           :      101.999703041918 electrons
E(X)               :      -75.065875680073 Eh       
E(C)               :       -4.555096984439 Eh       
E(XC)              :      -79.620972664512 Eh       
DFET-embed. en.    :        0.000000000000 Eh       

---------------
SCF CONVERGENCE
---------------

  Last Energy change         ...   -2.2982e-08  Tolerance :   1.0000e-08
  Last MAX-Density change    ...    4.8850e-15  Tolerance :   1.0000e-07
  Last RMS-Density change    ...    4.7251e-17  Tolerance :   5.0000e-09
  Last Orbital Gradient      ...    1.3349e-06  Tolerance :   1.0000e-05
  Last Orbital Rotation      ...    3.8009e-06  Tolerance :   1.0000e-05

             **** THE GBW FILE WAS UPDATED (459.gbw) ****
             **** DENSITY FILE WAS UPDATED (459.scfp) ****
             **** ENERGY FILE WAS UPDATED (459.en.tmp) ****
             **** THE GBW FILE WAS UPDATED (459.gbw) ****
             **** DENSITY FILE WAS UPDATED (459.scfp) ****
----------------
ORBITAL ENERGIES
----------------

  NO   OCC          E(Eh)            E(eV) 
   0   2.0000     -88.871199     -2418.3083 
   1   2.0000     -19.135878      -520.7137 
   2   2.0000     -10.274584      -279.5856 
   3   2.0000     -10.214562      -277.9524 
   4   2.0000     -10.207387      -277.7571 
   5   2.0000     -10.205514      -277.7062 
   6   2.0000     -10.200410      -277.5673 
   7   2.0000     -10.199091      -277.5314 
   8   2.0000     -10.196867      -277.4709 
   9   2.0000     -10.195347      -277.4295 
  10   2.0000     -10.195338      -277.4292 
  11   2.0000     -10.194801      -277.4147 
  12   2.0000     -10.183446      -277.1057 
  13   2.0000      -7.966616      -216.7826 
  14   2.0000      -5.934585      -161.4883 
  15   2.0000      -5.930641      -161.3809 
  16   2.0000      -5.928059      -161.3107 
  17   2.0000      -1.043984       -28.4083 
  18   2.0000      -0.896470       -24.3942 
  19   2.0000      -0.834442       -22.7063 
  20   2.0000      -0.796709       -21.6796 
  21   2.0000      -0.766779       -20.8651 
  22   2.0000      -0.738413       -20.0932 
  23   2.0000      -0.697272       -18.9737 
  24   2.0000      -0.655010       -17.8237 
  25   2.0000      -0.612861       -16.6768 
  26   2.0000      -0.608164       -16.5490 
  27   2.0000      -0.579481       -15.7685 
  28   2.0000      -0.541185       -14.7264 
  29   2.0000      -0.523870       -14.2552 
  30   2.0000      -0.509149       -13.8546 
  31   2.0000      -0.476292       -12.9606 
  32   2.0000      -0.462257       -12.5787 
  33   2.0000      -0.450062       -12.2468 
  34   2.0000      -0.443305       -12.0630 
  35   2.0000      -0.440648       -11.9906 
  36   2.0000      -0.429037       -11.6747 
  37   2.0000      -0.423045       -11.5116 
  38   2.0000      -0.408672       -11.1205 
  39   2.0000      -0.397417       -10.8143 
  40   2.0000      -0.383356       -10.4316 
  41   2.0000      -0.378728       -10.3057 
  42   2.0000      -0.371159       -10.0998 
  43   2.0000      -0.357069        -9.7164 
  44   2.0000      -0.342148        -9.3103 
  45   2.0000      -0.337505        -9.1840 
  46   2.0000      -0.329844        -8.9755 
  47   2.0000      -0.303086        -8.2474 
  48   2.0000      -0.265689        -7.2298 
  49   2.0000      -0.243922        -6.6375 
  50   2.0000      -0.216186        -5.8827 
  51   0.0000      -0.052137        -1.4187 
  52   0.0000      -0.024741        -0.6732 
  53   0.0000       0.032999         0.8980 
  54   0.0000       0.039992         1.0882 
  55   0.0000       0.052708         1.4343 
  56   0.0000       0.066580         1.8117 
  57   0.0000       0.080335         2.1860 
  58   0.0000       0.084232         2.2921 
  59   0.0000       0.095678         2.6035 
  60   0.0000       0.102653         2.7933 
  61   0.0000       0.114298         3.1102 
  62   0.0000       0.117163         3.1882 
  63   0.0000       0.126239         3.4351 
  64   0.0000       0.132265         3.5991 
  65   0.0000       0.144869         3.9421 
  66   0.0000       0.152676         4.1545 
  67   0.0000       0.169017         4.5992 
  68   0.0000       0.184110         5.0099 
  69   0.0000       0.201896         5.4939 
  70   0.0000       0.211792         5.7632 
  71   0.0000       0.225990         6.1495 
  72   0.0000       0.233759         6.3609 
  73   0.0000       0.244400         6.6505 
  74   0.0000       0.265262         7.2181 
  75   0.0000       0.293857         7.9963 
  76   0.0000       0.308560         8.3963 
  77   0.0000       0.321822         8.7572 
  78   0.0000       0.334396         9.0994 
  79   0.0000       0.343701         9.3526 
  80   0.0000       0.354690         9.6516 
  81   0.0000       0.371555        10.1105 
  82   0.0000       0.392760        10.6876 
  83   0.0000       0.408344        11.1116 
  84   0.0000       0.416838        11.3427 
  85   0.0000       0.430679        11.7194 
  86   0.0000       0.433356        11.7922 
  87   0.0000       0.450797        12.2668 
  88   0.0000       0.457447        12.4478 
  89   0.0000       0.468917        12.7599 
  90   0.0000       0.486510        13.2386 
  91   0.0000       0.498595        13.5675 
  92   0.0000       0.516401        14.0520 
  93   0.0000       0.518732        14.1154 
  94   0.0000       0.536294        14.5933 
  95   0.0000       0.537405        14.6235 
  96   0.0000       0.552484        15.0338 
  97   0.0000       0.561388        15.2761 
  98   0.0000       0.594769        16.1845 
  99   0.0000       0.601583        16.3699 
 100   0.0000       0.608577        16.5602 
 101   0.0000       0.614658        16.7257 
 102   0.0000       0.629713        17.1354 
 103   0.0000       0.633738        17.2449 
 104   0.0000       0.639711        17.4074 
 105   0.0000       0.641672        17.4608 
 106   0.0000       0.647936        17.6312 
 107   0.0000       0.651290        17.7225 
 108   0.0000       0.657385        17.8884 
 109   0.0000       0.659477        17.9453 
 110   0.0000       0.669145        18.2084 
 111   0.0000       0.673489        18.3266 
 112   0.0000       0.679127        18.4800 
 113   0.0000       0.683580        18.6012 
 114   0.0000       0.687632        18.7114 
 115   0.0000       0.691207        18.8087 
 116   0.0000       0.700987        19.0748 
 117   0.0000       0.708066        19.2674 
 118   0.0000       0.714140        19.4327 
 119   0.0000       0.720486        19.6054 
 120   0.0000       0.724921        19.7261 
 121   0.0000       0.736910        20.0523 
 122   0.0000       0.750224        20.4146 
 123   0.0000       0.773749        21.0548 
 124   0.0000       0.783005        21.3067 
 125   0.0000       0.810702        22.0603 
 126   0.0000       0.817802        22.2535 
 127   0.0000       0.837360        22.7857 
 128   0.0000       0.857995        23.3472 
 129   0.0000       0.865253        23.5447 
 130   0.0000       0.876263        23.8443 
 131   0.0000       0.904134        24.6027 
 132   0.0000       0.923747        25.1364 
 133   0.0000       0.943287        25.6681 
 134   0.0000       0.956522        26.0283 
 135   0.0000       1.014622        27.6093 
 136   0.0000       1.023341        27.8465 
 137   0.0000       1.069093        29.0915 
 138   0.0000       1.085137        29.5281 
 139   0.0000       1.095803        29.8183 
 140   0.0000       1.152158        31.3518 
 141   0.0000       1.163819        31.6691 
 142   0.0000       1.173298        31.9271 
 143   0.0000       1.174756        31.9667 
 144   0.0000       1.188751        32.3476 
 145   0.0000       1.200647        32.6713 
 146   0.0000       1.216588        33.1051 
 147   0.0000       1.223999        33.3067 
 148   0.0000       1.244900        33.8755 
 149   0.0000       1.261368        34.3236 
 150   0.0000       1.288747        35.0686 
 151   0.0000       1.291399        35.1407 
 152   0.0000       1.309630        35.6368 
 153   0.0000       1.334110        36.3030 
 154   0.0000       1.359827        37.0028 
 155   0.0000       1.402800        38.1721 
 156   0.0000       1.421510        38.6812 
 157   0.0000       1.442829        39.2614 
 158   0.0000       1.497344        40.7448 
 159   0.0000       1.526991        41.5515 
 160   0.0000       1.556039        42.3420 
 161   0.0000       1.605910        43.6990 
 162   0.0000       1.611497        43.8511 
 163   0.0000       1.620940        44.1080 
 164   0.0000       1.638560        44.5875 
 165   0.0000       1.652717        44.9727 
 166   0.0000       1.674280        45.5595 
 167   0.0000       1.703439        46.3529 
 168   0.0000       1.716497        46.7083 
 169   0.0000       1.725016        46.9401 
 170   0.0000       1.739979        47.3472 
 171   0.0000       1.741349        47.3845 
 172   0.0000       1.759658        47.8827 
 173   0.0000       1.765211        48.0338 
 174   0.0000       1.780183        48.4412 
 175   0.0000       1.800841        49.0034 
 176   0.0000       1.810588        49.2686 
 177   0.0000       1.821651        49.5696 
 178   0.0000       1.828648        49.7600 
 179   0.0000       1.832904        49.8759 
 180   0.0000       1.852980        50.4221 
 181   0.0000       1.861794        50.6620 
 182   0.0000       1.863513        50.7088 
 183   0.0000       1.878160        51.1073 
 184   0.0000       1.883850        51.2622 
 185   0.0000       1.900182        51.7066 
 186   0.0000       1.909671        51.9648 
 187   0.0000       1.941919        52.8423 
 188   0.0000       1.948740        53.0279 
 189   0.0000       1.958773        53.3009 
 190   0.0000       1.967758        53.5454 
 191   0.0000       1.984586        54.0033 
 192   0.0000       2.004310        54.5401 
 193   0.0000       2.039777        55.5051 
 194   0.0000       2.043909        55.6176 
 195   0.0000       2.061346        56.0921 
 196   0.0000       2.084704        56.7277 
 197   0.0000       2.101210        57.1768 
 198   0.0000       2.123334        57.7788 
 199   0.0000       2.133585        58.0578 
 200   0.0000       2.152794        58.5805 
 201   0.0000       2.167822        58.9894 
 202   0.0000       2.188247        59.5452 
 203   0.0000       2.192356        59.6570 
 204   0.0000       2.229632        60.6714 
 205   0.0000       2.257795        61.4377 
 206   0.0000       2.276223        61.9392 
 207   0.0000       2.283665        62.1417 
 208   0.0000       2.349037        63.9205 
 209   0.0000       2.376008        64.6545 
 210   0.0000       2.388116        64.9839 
 211   0.0000       2.414397        65.6991 
 212   0.0000       2.439281        66.3762 
 213   0.0000       2.469167        67.1895 
 214   0.0000       2.473487        67.3070 
 215   0.0000       2.507309        68.2273 
 216   0.0000       2.522222        68.6331 
 217   0.0000       2.541375        69.1543 
 218   0.0000       2.558627        69.6238 
 219   0.0000       2.576265        70.1037 
 220   0.0000       2.595524        70.6278 
 221   0.0000       2.611692        71.0677 
 222   0.0000       2.639908        71.8355 
 223   0.0000       2.660711        72.4016 
 224   0.0000       2.677388        72.8554 
 225   0.0000       2.714204        73.8573 
 226   0.0000       2.736204        74.4559 
 227   0.0000       2.745460        74.7078 
 228   0.0000       2.804661        76.3187 
 229   0.0000       2.813027        76.5463 
 230   0.0000       2.861965        77.8780 
 231   0.0000       2.870415        78.1080 
 232   0.0000       2.899824        78.9082 
 233   0.0000       2.929074        79.7042 
 234   0.0000       2.952956        80.3540 
 235   0.0000       2.967835        80.7589 
 236   0.0000       3.013242        81.9945 
 237   0.0000       3.018200        82.1294 
 238   0.0000       3.052617        83.0659 
 239   0.0000       3.114212        84.7420 
 240   0.0000       3.162860        86.0658 
 241   0.0000       3.185595        86.6844 
 242   0.0000       3.293405        89.6181 
 243   0.0000       3.360286        91.4380 
 244   0.0000       3.431776        93.3834 
 245   0.0000       3.625979        98.6679 

                    ********************************
                    * MULLIKEN POPULATION ANALYSIS *
                    ********************************

-----------------------
MULLIKEN ATOMIC CHARGES
-----------------------
   0 C :   -0.123955
   1 S :    0.100725
   2 C :   -0.140794
   3 C :   -0.027677
   4 C :   -0.049214
   5 C :    0.161546
   6 C :    0.007209
   7 C :    0.066618
   8 C :    0.015816
   9 C :    0.157335
  10 O :   -0.188661
  11 C :    0.006743
  12 C :   -0.015893
  13 H :   -0.001296
  14 H :   -0.006483
  15 H :    0.007255
  16 H :    0.008537
  17 H :   -0.004232
  18 H :   -0.000780
  19 H :    0.006052
  20 H :    0.006508
  21 H :   -0.015762
  22 H :   -0.001475
  23 H :    0.013244
  24 H :    0.018634
Sum of atomic charges:   -0.0000000

--------------------------------
MULLIKEN REDUCED ORBITAL CHARGES
--------------------------------
  0 C s       :     3.217350  s :     3.217350
      pz      :     1.113651  p :     2.870134
      px      :     0.934036
      py      :     0.822447
      dz2     :     0.003117  d :     0.036470
      dxz     :     0.007435
      dyz     :     0.002941
      dx2y2   :     0.009329
      dxy     :     0.013647
  1 S s       :     5.842417  s :     5.842417
      pz      :     3.651987  p :     9.945706
      px      :     3.315842
      py      :     2.977877
      dz2     :     0.012217  d :     0.111152
      dxz     :     0.011352
      dyz     :     0.022468
      dx2y2   :     0.015737
      dxy     :     0.049378
  2 C s       :     3.084337  s :     3.084337
      pz      :     1.087547  p :     3.011387
      px      :     1.000373
      py      :     0.923467
      dz2     :     0.003590  d :     0.045070
      dxz     :     0.007706
      dyz     :     0.006559
      dx2y2   :     0.010583
      dxy     :     0.016632
  3 C s       :     3.102624  s :     3.102624
      pz      :     1.041650  p :     2.881806
      px      :     0.868110
      py      :     0.972046
      dz2     :     0.003283  d :     0.043247
      dxz     :     0.006707
      dyz     :     0.007068
      dx2y2   :     0.013924
      dxy     :     0.012265
  4 C s       :     3.080336  s :     3.080336
      pz      :     1.010001  p :     2.923789
      px      :     0.887126
      py      :     1.026662
      dz2     :     0.003392  d :     0.045089
      dxz     :     0.007715
      dyz     :     0.006955
      dx2y2   :     0.014670
      dxy     :     0.012357
  5 C s       :     2.886943  s :     2.886943
      pz      :     0.987791  p :     2.914228
      px      :     0.938014
      py      :     0.988423
      dz2     :     0.008959  d :     0.037282
      dxz     :     0.005234
      dyz     :     0.006386
      dx2y2   :     0.008050
      dxy     :     0.008654
  6 C s       :     3.000832  s :     3.000832
      pz      :     0.996963  p :     2.954453
      px      :     0.990160
      py      :     0.967331
      dz2     :     0.011212  d :     0.037505
      dxz     :     0.003341
      dyz     :     0.006078
      dx2y2   :     0.007323
      dxy     :     0.009550
  7 C s       :     2.975596  s :     2.975596
      pz      :     0.995083  p :     2.921184
      px      :     0.968896
      py      :     0.957205
      dz2     :     0.010613  d :     0.036603
      dxz     :     0.002981
      dyz     :     0.005922
      dx2y2   :     0.006822
      dxy     :     0.010265
  8 C s       :     3.014292  s :     3.014292
      pz      :     0.976990  p :     2.927728
      px      :     0.965878
      py      :     0.984860
      dz2     :     0.009201  d :     0.042164
      dxz     :     0.006617
      dyz     :     0.009886
      dx2y2   :     0.007557
      dxy     :     0.008903
  9 C s       :     3.161297  s :     3.161297
      pz      :     0.956604  p :     2.592680
      px      :     0.753910
      py      :     0.882166
      dz2     :     0.014950  d :     0.088688
      dxz     :     0.004244
      dyz     :     0.039145
      dx2y2   :     0.013020
      dxy     :     0.017329
 10 O s       :     3.751928  s :     3.751928
      pz      :     1.768380  p :     4.417833
      px      :     1.299241
      py      :     1.350212
      dz2     :     0.002226  d :     0.018900
      dxz     :     0.000479
      dyz     :     0.004763
      dx2y2   :     0.005731
      dxy     :     0.005702
 11 C s       :     3.154622  s :     3.154622
      pz      :     0.973058  p :     2.801417
      px      :     0.876814
      py      :     0.951546
      dz2     :     0.002690  d :     0.037217
      dxz     :     0.005895
      dyz     :     0.004671
      dx2y2   :     0.010999
      dxy     :     0.012963
 12 C s       :     3.098248  s :     3.098248
      pz      :     1.007204  p :     2.890249
      px      :     0.964994
      py      :     0.918050
      dz2     :     0.001810  d :     0.027396
      dxz     :     0.004752
      dyz     :     0.000756
      dx2y2   :     0.009313
      dxy     :     0.010766
 13 H s       :     0.977045  s :     0.977045
      pz      :     0.005782  p :     0.024252
      px      :     0.004029
      py      :     0.014441
 14 H s       :     0.983747  s :     0.983747
      pz      :     0.007296  p :     0.022736
      px      :     0.004115
      py      :     0.011324
 15 H s       :     0.969486  s :     0.969486
      pz      :     0.013431  p :     0.023260
      px      :     0.004478
      py      :     0.005351
 16 H s       :     0.968528  s :     0.968528
      pz      :     0.013862  p :     0.022935
      px      :     0.004627
      py      :     0.004446
 17 H s       :     0.981760  s :     0.981760
      pz      :     0.004999  p :     0.022472
      px      :     0.011169
      py      :     0.006304
 18 H s       :     0.978147  s :     0.978147
      pz      :     0.005164  p :     0.022633
      px      :     0.011066
      py      :     0.006403
 19 H s       :     0.971117  s :     0.971117
      pz      :     0.013926  p :     0.022831
      px      :     0.004533
      py      :     0.004372
 20 H s       :     0.971813  s :     0.971813
      pz      :     0.008178  p :     0.021678
      px      :     0.003726
      py      :     0.009774
 21 H s       :     0.996564  s :     0.996564
      pz      :     0.009467  p :     0.019198
      px      :     0.002641
      py      :     0.007090
 22 H s       :     0.976922  s :     0.976922
      pz      :     0.004735  p :     0.024553
      px      :     0.010518
      py      :     0.009301
 23 H s       :     0.961999  s :     0.961999
      pz      :     0.005038  p :     0.024758
      px      :     0.010954
      py      :     0.008765
 24 H s       :     0.956798  s :     0.956798
      pz      :     0.005245  p :     0.024568
      px      :     0.004663
      py      :     0.014660


                     *******************************
                     * LOEWDIN POPULATION ANALYSIS *
                     *******************************

----------------------
LOEWDIN ATOMIC CHARGES
----------------------
   0 C :   -0.190349
   1 S :    0.437466
   2 C :   -0.172941
   3 C :   -0.061478
   4 C :   -0.067997
   5 C :   -0.017702
   6 C :   -0.027951
   7 C :   -0.014326
   8 C :   -0.057811
   9 C :    0.119710
  10 O :   -0.127521
  11 C :   -0.037805
  12 C :   -0.043694
  13 H :    0.017439
  14 H :    0.028220
  15 H :    0.030121
  16 H :    0.018152
  17 H :    0.023578
  18 H :    0.023572
  19 H :    0.026568
  20 H :    0.035891
  21 H :   -0.010514
  22 H :    0.032075
  23 H :    0.013041
  24 H :    0.024257

-------------------------------
LOEWDIN REDUCED ORBITAL CHARGES
-------------------------------
  0 C s       :     2.916547  s :     2.916547
      pz      :     1.105497  p :     3.185315
      px      :     1.049140
      py      :     1.030678
      dz2     :     0.006554  d :     0.088487
      dxz     :     0.015770
      dyz     :     0.004846
      dx2y2   :     0.025394
      dxy     :     0.035924
  1 S s       :     5.494656  s :     5.494656
      pz      :     3.607010  p :     9.930795
      px      :     3.353367
      py      :     2.970418
      dz2     :     0.015645  d :     0.137083
      dxz     :     0.010932
      dyz     :     0.027775
      dx2y2   :     0.017540
      dxy     :     0.065191
  2 C s       :     2.899917  s :     2.899917
      pz      :     1.075790  p :     3.163986
      px      :     1.049121
      py      :     1.039074
      dz2     :     0.007828  d :     0.109039
      dxz     :     0.015975
      dyz     :     0.012726
      dx2y2   :     0.029671
      dxy     :     0.042839
  3 C s       :     2.847600  s :     2.847600
      pz      :     1.017255  p :     3.101228
      px      :     1.038945
      py      :     1.045028
      dz2     :     0.007989  d :     0.112650
      dxz     :     0.013899
      dyz     :     0.014125
      dx2y2   :     0.041648
      dxy     :     0.034988
  4 C s       :     2.848145  s :     2.848145
      pz      :     0.995521  p :     3.103924
      px      :     1.058594
      py      :     1.049809
      dz2     :     0.008253  d :     0.115927
      dxz     :     0.014958
      dyz     :     0.014524
      dx2y2   :     0.043283
      dxy     :     0.034909
  5 C s       :     2.823043  s :     2.823043
      pz      :     1.056557  p :     3.101647
      px      :     1.011094
      py      :     1.033996
      dz2     :     0.022310  d :     0.093012
      dxz     :     0.011654
      dyz     :     0.016201
      dx2y2   :     0.019269
      dxy     :     0.023578
  6 C s       :     2.830648  s :     2.830648
      pz      :     1.051992  p :     3.106412
      px      :     1.032565
      py      :     1.021855
      dz2     :     0.027344  d :     0.090892
      dxz     :     0.007375
      dyz     :     0.014597
      dx2y2   :     0.018102
      dxy     :     0.023474
  7 C s       :     2.831639  s :     2.831639
      pz      :     1.051397  p :     3.092420
      px      :     1.021894
      py      :     1.019129
      dz2     :     0.026438  d :     0.090266
      dxz     :     0.006992
      dyz     :     0.014287
      dx2y2   :     0.017069
      dxy     :     0.025480
  8 C s       :     2.841664  s :     2.841664
      pz      :     1.048949  p :     3.110766
      px      :     1.018458
      py      :     1.043360
      dz2     :     0.024035  d :     0.105381
      dxz     :     0.013454
      dyz     :     0.026385
      dx2y2   :     0.017225
      dxy     :     0.024283
  9 C s       :     2.892495  s :     2.892495
      pz      :     1.028960  p :     2.781370
      px      :     0.746593
      py      :     1.005817
      dz2     :     0.035915  d :     0.206425
      dxz     :     0.008505
      dyz     :     0.096340
      dx2y2   :     0.033136
      dxy     :     0.032529
 10 O s       :     3.543533  s :     3.543533
      pz      :     1.765361  p :     4.551825
      px      :     1.296876
      py      :     1.489588
      dz2     :     0.004181  d :     0.032163
      dxz     :     0.000595
      dyz     :     0.008574
      dx2y2   :     0.011635
      dxy     :     0.007179
 11 C s       :     2.855743  s :     2.855743
      pz      :     0.958994  p :     3.084343
      px      :     1.086640
      py      :     1.038709
      dz2     :     0.006736  d :     0.097720
      dxz     :     0.012013
      dyz     :     0.010233
      dx2y2   :     0.032192
      dxy     :     0.036545
 12 C s       :     2.871653  s :     2.871653
      pz      :     0.984252  p :     3.100798
      px      :     1.066781
      py      :     1.049765
      dz2     :     0.005103  d :     0.071243
      dxz     :     0.009295
      dyz     :     0.001431
      dx2y2   :     0.025838
      dxy     :     0.029575
 13 H s       :     0.906264  s :     0.906264
      pz      :     0.018981  p :     0.076298
      px      :     0.013256
      py      :     0.044061
 14 H s       :     0.905407  s :     0.905407
      pz      :     0.019820  p :     0.066374
      px      :     0.013274
      py      :     0.033280
 15 H s       :     0.903269  s :     0.903269
      pz      :     0.038651  p :     0.066610
      px      :     0.013805
      py      :     0.014154
 16 H s       :     0.914127  s :     0.914127
      pz      :     0.040539  p :     0.067721
      px      :     0.013036
      py      :     0.014146
 17 H s       :     0.910063  s :     0.910063
      pz      :     0.013891  p :     0.066359
      px      :     0.032610
      py      :     0.019858
 18 H s       :     0.909760  s :     0.909760
      pz      :     0.014323  p :     0.066668
      px      :     0.032185
      py      :     0.020160
 19 H s       :     0.906533  s :     0.906533
      pz      :     0.040523  p :     0.066899
      px      :     0.012859
      py      :     0.013517
 20 H s       :     0.895844  s :     0.895844
      pz      :     0.025264  p :     0.068266
      px      :     0.013445
      py      :     0.029557
 21 H s       :     0.943853  s :     0.943853
      pz      :     0.030390  p :     0.066661
      px      :     0.009670
      py      :     0.026601
 22 H s       :     0.896963  s :     0.896963
      pz      :     0.014293  p :     0.070962
      px      :     0.030153
      py      :     0.026516
 23 H s       :     0.915908  s :     0.915908
      pz      :     0.015880  p :     0.071051
      px      :     0.029638
      py      :     0.025533
 24 H s       :     0.904908  s :     0.904908
      pz      :     0.016527  p :     0.070835
      px      :     0.012557
      py      :     0.041751


                      *****************************
                      * MAYER POPULATION ANALYSIS *
                      *****************************

  NA   - Mulliken gross atomic population
  ZA   - Total nuclear charge
  QA   - Mulliken gross atomic charge
  VA   - Mayer's total valence
  BVA  - Mayer's bonded valence
  FA   - Mayer's free valence

  ATOM       NA         ZA         QA         VA         BVA        FA
  0 C      6.1240     6.0000    -0.1240     3.8086     3.8086     0.0000
  1 S     15.8993    16.0000     0.1007     2.5003     2.5003    -0.0000
  2 C      6.1408     6.0000    -0.1408     3.8709     3.8709     0.0000
  3 C      6.0277     6.0000    -0.0277     3.9747     3.9747     0.0000
  4 C      6.0492     6.0000    -0.0492     4.0660     4.0660    -0.0000
  5 C      5.8385     6.0000     0.1615     3.9667     3.9667    -0.0000
  6 C      5.9928     6.0000     0.0072     4.1010     4.1010     0.0000
  7 C      5.9334     6.0000     0.0666     4.0461     4.0461    -0.0000
  8 C      5.9842     6.0000     0.0158     3.8209     3.8209    -0.0000
  9 C      5.8427     6.0000     0.1573     4.0862     4.0862    -0.0000
 10 O      8.1887     8.0000    -0.1887     2.2684     2.2684    -0.0000
 11 C      5.9933     6.0000     0.0067     4.0592     4.0592     0.0000
 12 C      6.0159     6.0000    -0.0159     3.9261     3.9261     0.0000
 13 H      1.0013     1.0000    -0.0013     1.0007     1.0007     0.0000
 14 H      1.0065     1.0000    -0.0065     0.9833     0.9833    -0.0000
 15 H      0.9927     1.0000     0.0073     0.9829     0.9829    -0.0000
 16 H      0.9915     1.0000     0.0085     0.9890     0.9890    -0.0000
 17 H      1.0042     1.0000    -0.0042     0.9748     0.9748    -0.0000
 18 H      1.0008     1.0000    -0.0008     0.9789     0.9789     0.0000
 19 H      0.9939     1.0000     0.0061     0.9823     0.9823     0.0000
 20 H      0.9935     1.0000     0.0065     0.9963     0.9963    -0.0000
 21 H      1.0158     1.0000    -0.0158     0.9879     0.9879    -0.0000
 22 H      1.0015     1.0000    -0.0015     1.0186     1.0186     0.0000
 23 H      0.9868     1.0000     0.0132     0.9860     0.9860     0.0000
 24 H      0.9814     1.0000     0.0186     0.9771     0.9771    -0.0000

  Mayer bond orders larger than 0.100000
B(  0-C ,  1-S ) :   1.1492 B(  0-C ,  4-C ) :   1.5550 B(  0-C , 13-H ) :   0.9690 
B(  1-S ,  2-C ) :   1.1242 B(  2-C ,  3-C ) :   1.4806 B(  2-C , 11-C ) :   1.1447 
B(  3-C ,  4-C ) :   1.2949 B(  3-C ,  8-C ) :   0.9944 B(  4-C ,  5-C ) :   1.0398 
B(  5-C ,  6-C ) :   1.0936 B(  5-C , 14-H ) :   0.9127 B(  5-C , 15-H ) :   0.9099 
B(  6-C ,  7-C ) :   1.0673 B(  6-C , 16-H ) :   0.9464 B(  6-C , 17-H ) :   0.9263 
B(  7-C ,  8-C ) :   1.0538 B(  7-C , 18-H ) :   0.9329 B(  7-C , 19-H ) :   0.9309 
B(  8-C ,  9-C ) :   0.9212 B(  8-C , 20-H ) :   0.8836 B(  9-C , 10-O ) :   2.1484 
B(  9-C , 21-H ) :   0.9362 B( 11-C , 12-C ) :   1.8965 B( 11-C , 22-H ) :   0.9473 
B( 12-C , 23-H ) :   0.9528 B( 12-C , 24-H ) :   0.9455 

-------
TIMINGS
-------

Total SCF time: 0 days 0 hours 1 min 38 sec 

Total time                  ....      98.630 sec
Sum of individual times     ....      98.485 sec  ( 99.9%)

Fock matrix formation       ....      94.625 sec  ( 95.9%)
  Split-RI-J                ....       9.176 sec  (  9.7% of F)
  Chain of spheres X        ....      78.716 sec  ( 83.2% of F)
  COS-X 1 center corr.      ....       0.000 sec  (  0.0% of F)
  XC integration            ....       6.692 sec  (  7.1% of F)
    Basis function eval.    ....       1.865 sec  ( 27.9% of XC)
    Density eval.           ....       2.433 sec  ( 36.4% of XC)
    XC-Functional eval.     ....       0.303 sec  (  4.5% of XC)
    XC-Potential eval.      ....       1.971 sec  ( 29.5% of XC)
Diagonalization             ....       0.138 sec  (  0.1%)
Density matrix formation    ....       0.011 sec  (  0.0%)
Population analysis         ....       0.015 sec  (  0.0%)
Initial guess               ....       0.643 sec  (  0.7%)
Orbital Transformation      ....       0.000 sec  (  0.0%)
Orbital Orthonormalization  ....       0.000 sec  (  0.0%)
DIIS solution               ....       0.050 sec  (  0.1%)
SOSCF solution              ....       0.131 sec  (  0.1%)
Grid generation             ....       2.871 sec  (  2.9%)


-------------------------------------------------------------------------------
                          DFT DISPERSION CORRECTION                            
                                                                               
                              DFTD3 V3.1  Rev 1                                
                          USING Becke-Johnson damping                          
-------------------------------------------------------------------------------
Gaussians B3LYP functional is recognized, using regular B3LYP params
Active option DFTDOPT                   ...         4   

molecular C6(AA) [au] = 7635.835898 


            DFT-D V3
 parameters
 s6 scaling factor         :     1.0000 
 a1 scaling factor         :     0.3981 
 s8 scaling factor         :     1.9889 
 a2 scaling factor         :     4.4211 
 ad hoc parameters k1-k3   :    16.0000     1.3333    -4.0000 

 Edisp/kcal,au: -34.926821930321  -0.055659427703 
 E6   /kcal   : -16.053445621 
 E8   /kcal   : -18.873376309 
 % E8         :  54.036912796 

-------------------------   ----------------
Dispersion correction           -0.055659428
-------------------------   ----------------


-------------------------   --------------------
FINAL SINGLE POINT ENERGY      -899.359054360288
-------------------------   --------------------

[...]
      dyz     :     0.006308
      dx2y2   :     0.010234
      dxy     :     0.016142
  3 C s       :     3.105886  s :     3.105886
      pz      :     1.039927  p :     2.870725
      px      :     0.863520
      py      :     0.967278
      dz2     :     0.003222  d :     0.041441
      dxz     :     0.006407
      dyz     :     0.006581
      dx2y2   :     0.013484
      dxy     :     0.011746
  4 C s       :     3.087534  s :     3.087534
      pz      :     1.008484  p :     2.917165
      px      :     0.888475
      py      :     1.020207
      dz2     :     0.003476  d :     0.043280
      dxz     :     0.007382
      dyz     :     0.006651
      dx2y2   :     0.014018
      dxy     :     0.011753
  5 C s       :     2.910197  s :     2.910197
      pz      :     0.991856  p :     2.909464
      px      :     0.935126
      py      :     0.982483
      dz2     :     0.008965  d :     0.036295
      dxz     :     0.004975
      dyz     :     0.005888
      dx2y2   :     0.008156
      dxy     :     0.008312
  6 C s       :     3.011261  s :     3.011261
      pz      :     0.997027  p :     2.948852
      px      :     0.988139
      py      :     0.963687
      dz2     :     0.010668  d :     0.036563
      dxz     :     0.003786
      dyz     :     0.005469
      dx2y2   :     0.007458
      dxy     :     0.009183
  7 C s       :     3.000024  s :     3.000024
      pz      :     0.999527  p :     2.922315
      px      :     0.963234
      py      :     0.959554
      dz2     :     0.010496  d :     0.035669
      dxz     :     0.003043
      dyz     :     0.005338
      dx2y2   :     0.006952
      dxy     :     0.009839
  8 C s       :     3.025466  s :     3.025466
      pz      :     0.973897  p :     2.921017
      px      :     0.968717
      py      :     0.978403
      dz2     :     0.009015  d :     0.041025
      dxz     :     0.006638
      dyz     :     0.009258
      dx2y2   :     0.007483
      dxy     :     0.008631
  9 C s       :     3.176138  s :     3.176138
      pz      :     0.950900  p :     2.581720
      px      :     0.751743
      py      :     0.879078
      dz2     :     0.014670  d :     0.086588
      dxz     :     0.003923
      dyz     :     0.037748
      dx2y2   :     0.012970
      dxy     :     0.017277
 10 O s       :     3.760118  s :     3.760118
      pz      :     1.759821  p :     4.415487
      px      :     1.308076
      py      :     1.347590
      dz2     :     0.002181  d :     0.018489
      dxz     :     0.000439
      dyz     :     0.004724
      dx2y2   :     0.005603
      dxy     :     0.005541
 11 C s       :     3.151700  s :     3.151700
      pz      :     0.975331  p :     2.814116
      px      :     0.887236
      py      :     0.951548
      dz2     :     0.002591  d :     0.035739
      dxz     :     0.005588
      dyz     :     0.004631
      dx2y2   :     0.010538
      dxy     :     0.012391
 12 C s       :     3.119136  s :     3.119136
      pz      :     1.006132  p :     2.890195
      px      :     0.959850
      py      :     0.924213
      dz2     :     0.001783  d :     0.026264
      dxz     :     0.004602
      dyz     :     0.000851
      dx2y2   :     0.009170
      dxy     :     0.009857
 13 H s       :     0.965023  s :     0.965023
      pz      :     0.005509  p :     0.023508
      px      :     0.003769
      py      :     0.014229
 14 H s       :     0.981142  s :     0.981142
      pz      :     0.007108  p :     0.022332
      px      :     0.003862
      py      :     0.011362
 15 H s       :     0.963694  s :     0.963694
      pz      :     0.013366  p :     0.022781
      px      :     0.004164
      py      :     0.005252
 16 H s       :     0.965761  s :     0.965761
      pz      :     0.013678  p :     0.022276
      px      :     0.004486
      py      :     0.004111
 17 H s       :     0.978632  s :     0.978632
      pz      :     0.005488  p :     0.022031
      px      :     0.010552
      py      :     0.005991
 18 H s       :     0.973369  s :     0.973369
      pz      :     0.005121  p :     0.022139
      px      :     0.010833
      py      :     0.006185
 19 H s       :     0.963714  s :     0.963714
      pz      :     0.013820  p :     0.022379
      px      :     0.004456
      py      :     0.004103
 20 H s       :     0.971696  s :     0.971696
      pz      :     0.007563  p :     0.021462
      px      :     0.003594
      py      :     0.010305
 21 H s       :     0.990005  s :     0.990005
      pz      :     0.009004  p :     0.018588
      px      :     0.002640
      py      :     0.006943
 22 H s       :     0.965820  s :     0.965820
      pz      :     0.004789  p :     0.023837
      px      :     0.010203
      py      :     0.008846
 23 H s       :     0.957154  s :     0.957154
      pz      :     0.004937  p :     0.023777
      px      :     0.010806
      py      :     0.008034
 24 H s       :     0.948851  s :     0.948851
      pz      :     0.004982  p :     0.023635
      px      :     0.004266
      py      :     0.014387


                     *******************************
                     * LOEWDIN POPULATION ANALYSIS *
                     *******************************

----------------------
LOEWDIN ATOMIC CHARGES
----------------------
   0 C :   -0.194601
   1 S :    0.433931
   2 C :   -0.175683
   3 C :   -0.060806
   4 C :   -0.066718
   5 C :   -0.021495
   6 C :   -0.031574
   7 C :   -0.018208
   8 C :   -0.059236
   9 C :    0.123909
  10 O :   -0.132786
  11 C :   -0.041420
  12 C :   -0.049760
  13 H :    0.022854
  14 H :    0.029594
  15 H :    0.032361
  16 H :    0.019918
  17 H :    0.025953
  18 H :    0.025668
  19 H :    0.028493
  20 H :    0.036601
  21 H :   -0.008262
  22 H :    0.035462
  23 H :    0.017526
  24 H :    0.028276

-------------------------------
LOEWDIN REDUCED ORBITAL CHARGES
-------------------------------
  0 C s       :     2.928238  s :     2.928238
      pz      :     1.108168  p :     3.181763
      px      :     1.045238
      py      :     1.028356
      dz2     :     0.006412  d :     0.084601
      dxz     :     0.014865
      dyz     :     0.004783
      dx2y2   :     0.024196
      dxy     :     0.034344
  1 S s       :     5.501976  s :     5.501976
      pz      :     3.605706  p :     9.928819
      px      :     3.355278
      py      :     2.967836
      dz2     :     0.015478  d :     0.135273
      dxz     :     0.010727
      dyz     :     0.027922
      dx2y2   :     0.017166
      dxy     :     0.063981
  2 C s       :     2.909661  s :     2.909661
      pz      :     1.077909  p :     3.161417
      px      :     1.047926
      py      :     1.035581
      dz2     :     0.007568  d :     0.104606
      dxz     :     0.015253
      dyz     :     0.012118
      dx2y2   :     0.028578
      dxy     :     0.041089
  3 C s       :     2.857460  s :     2.857460
      pz      :     1.019263  p :     3.095950
      px      :     1.035786
      py      :     1.040901
      dz2     :     0.007697  d :     0.107396
      dxz     :     0.013281
      dyz     :     0.013077
      dx2y2   :     0.040082
      dxy     :     0.033260
  4 C s       :     2.858258  s :     2.858258
      pz      :     0.996898  p :     3.098076
      px      :     1.054895
      py      :     1.046283
      dz2     :     0.008193  d :     0.110384
      dxz     :     0.014336
      dyz     :     0.013805
      dx2y2   :     0.041246
      dxy     :     0.032805
  5 C s       :     2.831428  s :     2.831428
      pz      :     1.057780  p :     3.099791
      px      :     1.008868
      py      :     1.033144
      dz2     :     0.022483  d :     0.090275
      dxz     :     0.010612
      dyz     :     0.014926
      dx2y2   :     0.019624
      dxy     :     0.022630
  6 C s       :     2.838927  s :     2.838927
      pz      :     1.054184  p :     3.104136
      px      :     1.029663
      py      :     1.020289
      dz2     :     0.026333  d :     0.088511
      dxz     :     0.008419
      dyz     :     0.012590
      dx2y2   :     0.018711
      dxy     :     0.022458
  7 C s       :     2.840704  s :     2.840704
      pz      :     1.051493  p :     3.089940
      px      :     1.020140
      py      :     1.018306
      dz2     :     0.026175  d :     0.087564
      dxz     :     0.007294
      dyz     :     0.012310
      dx2y2   :     0.017600
      dxy     :     0.024185
  8 C s       :     2.849931  s :     2.849931
      pz      :     1.046826  p :     3.107290
      px      :     1.017990
      py      :     1.042473
      dz2     :     0.023129  d :     0.102015
      dxz     :     0.013896
      dyz     :     0.024578
      dx2y2   :     0.017054
      dxy     :     0.023360
  9 C s       :     2.904331  s :     2.904331
      pz      :     1.021279  p :     2.772040
      px      :     0.746824
      py      :     1.003937
      dz2     :     0.035019  d :     0.199719
      dxz     :     0.007711
      dyz     :     0.091747
      dx2y2   :     0.033013
      dxy     :     0.032230
 10 O s       :     3.550439  s :     3.550439
      pz      :     1.757441  p :     4.550876
      px      :     1.304851
      py      :     1.488585
      dz2     :     0.004087  d :     0.031470
      dxz     :     0.000527
      dyz     :     0.008414
      dx2y2   :     0.011616
      dxy     :     0.006827
 11 C s       :     2.866163  s :     2.866163
      pz      :     0.962528  p :     3.082043
      px      :     1.084073
      py      :     1.035442
      dz2     :     0.006349  d :     0.093213
      dxz     :     0.011311
      dyz     :     0.010048
      dx2y2   :     0.030608
      dxy     :     0.034897
 12 C s       :     2.885444  s :     2.885444
      pz      :     0.986046  p :     3.096414
      px      :     1.062539
      py      :     1.047828
      dz2     :     0.004759  d :     0.067902
      dxz     :     0.008928
      dyz     :     0.001622
      dx2y2   :     0.025454
      dxy     :     0.027138
 13 H s       :     0.903757  s :     0.903757
      pz      :     0.017781  p :     0.073389
      px      :     0.012219
      py      :     0.043389
 14 H s       :     0.905485  s :     0.905485
      pz      :     0.019028  p :     0.064921
      px      :     0.012425
      py      :     0.033468
 15 H s       :     0.902784  s :     0.902784
      pz      :     0.038424  p :     0.064855
      px      :     0.012734
      py      :     0.013696
 16 H s       :     0.914817  s :     0.914817
      pz      :     0.039822  p :     0.065265
      px      :     0.012482
      py      :     0.012961
 17 H s       :     0.909472  s :     0.909472
      pz      :     0.014909  p :     0.064575
      px      :     0.030927
      py      :     0.018739
 18 H s       :     0.909375  s :     0.909375
      pz      :     0.013900  p :     0.064957
      px      :     0.031644
      py      :     0.019413
 19 H s       :     0.906292  s :     0.906292
      pz      :     0.040330  p :     0.065215
      px      :     0.012340
      py      :     0.012546
 20 H s       :     0.895804  s :     0.895804
      pz      :     0.023368  p :     0.067595
      px      :     0.013055
      py      :     0.031172
 21 H s       :     0.943783  s :     0.943783
      pz      :     0.029141  p :     0.064479
      px      :     0.009545
      py      :     0.025793
 22 H s       :     0.895620  s :     0.895620
      pz      :     0.014194  p :     0.068918
      px      :     0.029428
      py      :     0.025296
 23 H s       :     0.914152  s :     0.914152
      pz      :     0.015271  p :     0.068322
      px      :     0.029688
      py      :     0.023364
 24 H s       :     0.903606  s :     0.903606
      pz      :     0.015440  p :     0.068118
      px      :     0.011233
      py      :     0.041444


                      *****************************
                      * MAYER POPULATION ANALYSIS *
                      *****************************

  NA   - Mulliken gross atomic population
  ZA   - Total nuclear charge
  QA   - Mulliken gross atomic charge
  VA   - Mayer's total valence
  BVA  - Mayer's bonded valence
  FA   - Mayer's free valence

  ATOM       NA         ZA         QA         VA         BVA        FA
  0 C      6.1303     6.0000    -0.1303     3.8082     3.8082    -0.0000
  1 S     15.8940    16.0000     0.1060     2.5021     2.5021     0.0000
  2 C      6.1422     6.0000    -0.1422     3.8655     3.8655     0.0000
  3 C      6.0181     6.0000    -0.0181     3.9667     3.9667     0.0000
  4 C      6.0480     6.0000    -0.0480     4.0552     4.0552    -0.0000
  5 C      5.8560     6.0000     0.1440     3.9677     3.9677    -0.0000
  6 C      5.9967     6.0000     0.0033     4.0894     4.0894    -0.0000
  7 C      5.9580     6.0000     0.0420     4.0411     4.0411     0.0000
  8 C      5.9875     6.0000     0.0125     3.8209     3.8209    -0.0000
  9 C      5.8444     6.0000     0.1556     4.0628     4.0628    -0.0000
 10 O      8.1941     8.0000    -0.1941     2.2598     2.2598    -0.0000
 11 C      6.0016     6.0000    -0.0016     4.0512     4.0512     0.0000
 12 C      6.0356     6.0000    -0.0356     3.9332     3.9332    -0.0000
 13 H      0.9885     1.0000     0.0115     0.9997     0.9997     0.0000
 14 H      1.0035     1.0000    -0.0035     0.9829     0.9829     0.0000
 15 H      0.9865     1.0000     0.0135     0.9809     0.9809     0.0000
 16 H      0.9880     1.0000     0.0120     0.9856     0.9856     0.0000
 17 H      1.0007     1.0000    -0.0007     0.9751     0.9751     0.0000
 18 H      0.9955     1.0000     0.0045     0.9793     0.9793    -0.0000
 19 H      0.9861     1.0000     0.0139     0.9805     0.9805     0.0000
 20 H      0.9932     1.0000     0.0068     0.9996     0.9996    -0.0000
 21 H      1.0086     1.0000    -0.0086     0.9853     0.9853     0.0000
 22 H      0.9897     1.0000     0.0103     1.0171     1.0171     0.0000
 23 H      0.9809     1.0000     0.0191     0.9856     0.9856     0.0000
 24 H      0.9725     1.0000     0.0275     0.9772     0.9772     0.0000

  Mayer bond orders larger than 0.100000
B(  0-C ,  1-S ) :   1.1503 B(  0-C ,  4-C ) :   1.5510 B(  0-C , 13-H ) :   0.9657 
B(  1-S ,  2-C ) :   1.1273 B(  2-C ,  3-C ) :   1.4764 B(  2-C , 11-C ) :   1.1366 
B(  3-C ,  4-C ) :   1.2869 B(  3-C ,  8-C ) :   1.0017 B(  4-C ,  5-C ) :   1.0416 
B(  5-C ,  6-C ) :   1.0877 B(  5-C , 14-H ) :   0.9153 B(  5-C , 15-H ) :   0.9155 
B(  6-C ,  7-C ) :   1.0690 B(  6-C , 16-H ) :   0.9471 B(  6-C , 17-H ) :   0.9278 
B(  7-C ,  8-C ) :   1.0440 B(  7-C , 18-H ) :   0.9347 B(  7-C , 19-H ) :   0.9361 
B(  8-C ,  9-C ) :   0.9219 B(  8-C , 20-H ) :   0.8843 B(  9-C , 10-O ) :   2.1387 
B(  9-C , 21-H ) :   0.9319 B( 11-C , 12-C ) :   1.9038 B( 11-C , 22-H ) :   0.9417 
B( 12-C , 23-H ) :   0.9539 B( 12-C , 24-H ) :   0.9457 

-------
TIMINGS
-------

Total SCF time: 0 days 0 hours 0 min 55 sec 

Total time                  ....      55.324 sec
Sum of individual times     ....      55.183 sec  ( 99.7%)

Fock matrix formation       ....      52.116 sec  ( 94.2%)
  Split-RI-J                ....       4.426 sec  (  8.5% of F)
  Chain of spheres X        ....      43.889 sec  ( 84.2% of F)
  COS-X 1 center corr.      ....       0.000 sec  (  0.0% of F)
  XC integration            ....       3.760 sec  (  7.2% of F)
    Basis function eval.    ....       1.106 sec  ( 29.4% of XC)
    Density eval.           ....       1.408 sec  ( 37.4% of XC)
    XC-Functional eval.     ....       0.183 sec  (  4.9% of XC)
    XC-Potential eval.      ....       0.986 sec  ( 26.2% of XC)
Diagonalization             ....       0.020 sec  (  0.0%)
Density matrix formation    ....       0.006 sec  (  0.0%)
Population analysis         ....       0.015 sec  (  0.0%)
Initial guess               ....       0.016 sec  (  0.0%)
Orbital Transformation      ....       0.000 sec  (  0.0%)
Orbital Orthonormalization  ....       0.014 sec  (  0.0%)
DIIS solution               ....       0.007 sec  (  0.0%)
SOSCF solution              ....       0.107 sec  (  0.2%)
Grid generation             ....       2.897 sec  (  5.2%)


-------------------------------------------------------------------------------
                          DFT DISPERSION CORRECTION                            
                                                                               
                              DFTD3 V3.1  Rev 1                                
                          USING Becke-Johnson damping                          
-------------------------------------------------------------------------------
Gaussians B3LYP functional is recognized, using regular B3LYP params
Active option DFTDOPT                   ...         4   

molecular C6(AA) [au] = 7669.758098 


            DFT-D V3
 parameters
 s6 scaling factor         :     1.0000 
 a1 scaling factor         :     0.3981 
 s8 scaling factor         :     1.9889 
 a2 scaling factor         :     4.4211 
 ad hoc parameters k1-k3   :    16.0000     1.3333    -4.0000 

 Edisp/kcal,au: -34.383396649309  -0.054793424486 
 E6   /kcal   : -15.804276157 
 E8   /kcal   : -18.579120492 
 % E8         :  54.035151563 

-------------------------   ----------------
Dispersion correction           -0.054793424
-------------------------   ----------------


-------------------------   --------------------
FINAL SINGLE POINT ENERGY      -899.362582391535
-------------------------   --------------------

                                *** OPTIMIZATION RUN DONE ***

                            ***************************************
                            *     ORCA property calculations      *
                            ***************************************

                                    ---------------------
                                    Active property flags
                                    ---------------------
   (+) Dipole Moment


------------------------------------------------------------------------------
                       ORCA ELECTRIC PROPERTIES CALCULATION
------------------------------------------------------------------------------

Dipole Moment Calculation                       ... on
Quadrupole Moment Calculation                   ... off
Polarizability Calculation                      ... off
GBWName                                         ... 459.gbw
Electron density file                           ... 459.scfp
The origin for moment calculation is the CENTER OF MASS  = ( 0.775496,  1.379017  0.616405)

-------------
DIPOLE MOMENT
-------------
                                X             Y             Z
Electronic contribution:      8.85455       1.00569       2.20934
Nuclear contribution   :     -9.24072      -2.05115      -2.70846
                        -----------------------------------------
Total Dipole Moment    :     -0.38618      -1.04546      -0.49912
                        -----------------------------------------
Magnitude (a.u.)       :      1.22117
Magnitude (Debye)      :      3.10396



--------------------
Rotational spectrum 
--------------------
 
Rotational constants in cm-1:     0.031023     0.022531     0.014144 
Rotational constants in MHz :   930.048263   675.453706   424.039893 

 Dipole components along the rotational axes: 
x,y,z [a.u.] :    -0.604465    -1.024168    -0.277392 
x,y,z [Debye]:    -1.536428    -2.603229    -0.705073 

 

Timings for individual modules:

Sum of individual times         ...     1005.209 sec (=  16.753 min)
GTO integral calculation        ...        1.763 sec (=   0.029 min)   0.2 %
SCF iterations                  ...      768.742 sec (=  12.812 min)  76.5 %
SCF Gradient evaluation         ...      233.597 sec (=   3.893 min)  23.2 %
Geometry relaxation             ...        1.106 sec (=   0.018 min)   0.1 %
                             ****ORCA TERMINATED NORMALLY****
TOTAL RUN TIME: 0 days 0 hours 16 minutes 46 seconds 600 msec
