
                                 *****************
                                 * O   R   C   A *
                                 *****************

           --- An Ab Initio, DFT and Semiempirical electronic structure package ---

                  #######################################################
                  #                        -***-                        #
                  #          Department of theory and spectroscopy      #
                  #               Directorship: Frank Neese             #
                  #        Max Planck Institute fuer Kohlenforschung    #
                  #                Kaiser Wilhelm Platz 1               #
                  #                 D-45470 Muelheim/Ruhr               #
                  #                      Germany                        #
                  #                                                     #
                  #                  All rights reserved                #
                  #                        -***-                        #
                  #######################################################


                         Program Version 4.2.0 -  RELEASE  -


 With contributions from (in alphabetic order):
   Daniel Aravena         : Magnetic Suceptibility
   Michael Atanasov       : Ab Initio Ligand Field Theory (pilot matlab implementation)
   Alexander A. Auer      : GIAO ZORA, VPT2
   Ute Becker             : Parallelization
   Giovanni Bistoni       : ED, misc. LED, open-shell LED, HFLED
   Martin Brehm           : Molecular dynamics
   Dmytro Bykov           : SCF Hessian
   Vijay G. Chilkuri      : MRCI spin determinant printing, contributions to CSF-ICE
   Dipayan Datta          : RHF DLPNO-CCSD density
   Achintya Kumar Dutta   : EOM-CC, STEOM-CC
   Dmitry Ganyushin       : Spin-Orbit,Spin-Spin,Magnetic field MRCI
   Miquel Garcia          : C-PCM Hessian, Gaussian charge scheme
   Yang Guo               : DLPNO-NEVPT2, CIM, IAO-localization
   Andreas Hansen         : Spin unrestricted coupled pair/coupled cluster methods
   Benjamin Helmich-Paris : CASSCF linear response (MC-RPA)
   Lee Huntington         : MR-EOM, pCC
   Robert Izsak           : Overlap fitted RIJCOSX, COSX-SCS-MP3, EOM
   Christian Kollmar      : KDIIS, OOCD, Brueckner-CCSD(T), CCSD density
   Simone Kossmann        : Meta GGA functionals, TD-DFT gradient, OOMP2, MP2 Hessian
   Martin Krupicka        : AUTO-CI
   Lucas Lang             : DCDCAS
   Dagmar Lenk            : GEPOL surface, SMD
   Dimitrios Liakos       : Extrapolation schemes; Compound Job, initial MDCI parallelization
   Dimitrios Manganas     : Further ROCIS development; embedding schemes
   Dimitrios Pantazis     : SARC Basis sets
   Taras Petrenko         : DFT Hessian,TD-DFT gradient, ASA, ECA, R-Raman, ABS, FL, XAS/XES, NRVS
   Peter Pinski           : DLPNO-MP2, DLPNO-MP2 Gradient
   Christoph Reimann      : Effective Core Potentials
   Marius Retegan         : Local ZFS, SOC
   Christoph Riplinger    : Optimizer, TS searches, QM/MM, DLPNO-CCSD(T), (RO)-DLPNO pert. Triples
   Tobias Risthaus        : Range-separated hybrids, TD-DFT gradient, RPA, STAB
   Michael Roemelt        : Original ROCIS implementation
   Masaaki Saitow         : Open-shell DLPNO-CCSD energy and density
   Barbara Sandhoefer     : DKH picture change effects
   Avijit Sen             : IP-ROCIS
   Kantharuban Sivalingam : CASSCF convergence, NEVPT2, FIC-MRCI
   Bernardo de Souza      : ESD, SOC TD-DFT
   Georgi Stoychev        : AutoAux, RI-MP2 NMR
   Willem Van den Heuvel  : Paramagnetic NMR
   Boris Wezisla          : Elementary symmetry handling
   Frank Wennmohs         : Technical directorship


 We gratefully acknowledge several colleagues who have allowed us to
 interface, adapt or use parts of their codes:
   Stefan Grimme, W. Hujo, H. Kruse,             : VdW corrections, initial TS optimization,
                  C. Bannwarth                     DFT functionals, gCP, sTDA/sTD-DF
   Ed Valeev, F. Pavosevic, A. Kumar             : LibInt (2-el integral package), F12 methods
   Garnet Chan, S. Sharma, J. Yang, R. Olivares  : DMRG
   Ulf Ekstrom                                   : XCFun DFT Library
   Mihaly Kallay                                 : mrcc  (arbitrary order and MRCC methods)
   Andreas Klamt, Michael Diedenhofen            : otool_cosmo (COSMO solvation model)
   Jiri Pittner, Ondrej Demel                    : Mk-CCSD
   Frank Weinhold                                : gennbo (NPA and NBO analysis)
   Christopher J. Cramer and Donald G. Truhlar   : smd solvation model
   Lars Goerigk                                  : TD-DFT with DH, B97 family of functionals
   V. Asgeirsson, H. Jonsson                     : NEB implementation
   FAccTs GmbH                                   : IRC, NEB, NEB-TS, Multilevel, MM, QM/MM, CI optimization
   S Lehtola, MJT Oliveira, MAL Marques          : LibXC Library


 Your calculation uses the libint2 library for the computation of 2-el integrals
 For citations please refer to: http://libint.valeyev.net

 Your ORCA version has been built with support for libXC version: 4.2.3
 For citations please refer to: https://tddft.org/programs/libxc/

 This ORCA versions uses:
   CBLAS   interface :  Fast vector & matrix operations
   LAPACKE interface :  Fast linear algebra routines
   SCALAPACK package :  Parallel linear algebra routines


Your calculation utilizes the atom-pairwise dispersion correction
with the Becke-Johnson damping scheme (D3BJ)
Cite in your paper:
S.Grimme, S.Ehrlich, L.Goerigk, J Comput Chem, (2011), 32, 1456–1465 
S.Grimme, J.Antony, S.Ehrlich and H.Krieg, J.Chem.Phys., 132, (2010), 154104 
   

----- Orbital basis set information -----
Your calculation utilizes the basis: def2-SVP
   F. Weigend and R. Ahlrichs, Phys. Chem. Chem. Phys. 7, 3297 (2005).

----- AuxJ basis set information -----
Your calculation utilizes the auxiliary basis: def2/J
   F. Weigend, Phys. Chem. Chem. Phys. 8, 1057 (2006).

================================================================================
                                        WARNINGS
                       Please study these warnings very carefully!
================================================================================


WARNING: Geometry Optimization
  ===> : Switching off AutoStart
         For restart on a previous wavefunction, please use MOREAD

INFO   : the flag for use of LIBINT has been found!

================================================================================
                                       INPUT FILE
================================================================================
NAME = 518.inp
|  1> # ORCA input file
|  2> # SCF done        -23.583963038087          0.000408649620
|  3> ! B3LYP/G D3BJ Opt RIJCOSX def2-SVP def2/J
|  4> * xyz 0 1
|  5>    C       -0.07351         1.17044        -0.19357
|  6>    S       -1.21428        -0.11923        -0.06851
|  7>    C        0.04673        -1.25063         0.21398
|  8>    C        1.26820        -0.66816         0.20295
|  9>    C        1.21175         0.73681        -0.03789
| 10>    N        2.35317         1.50567        -0.15214
| 11>    C        2.25517         2.94756        -0.09562
| 12>    C        3.64144         3.56919        -0.16728
| 13>    H       -0.43292         2.15913        -0.38928
| 14>    H       -0.19671        -2.28238         0.37062
| 15>    H        2.19018        -1.20149         0.35476
| 16>    H        3.14178         1.13149         0.35724
| 17>    H        1.74119         3.28322         0.82041
| 18>    H        1.65799         3.27450        -0.95295
| 19>    H        4.23877         3.27376         0.69338
| 20>    H        3.56550         4.65293        -0.17670
| 21>    H        4.15070         3.24595        -1.07159
| 22> *
| 23> 
| 24>                          ****END OF INPUT****
================================================================================

                       *****************************
                       * Geometry Optimization Run *
                       *****************************

Geometry optimization settings:
Update method            Update   .... BFGS
Choice of coordinates    CoordSys .... Z-matrix Internals
Initial Hessian          InHess   .... Almoef's Model

Convergence Tolerances:
Energy Change            TolE     ....  5.0000e-06 Eh
Max. Gradient            TolMAXG  ....  3.0000e-04 Eh/bohr
RMS Gradient             TolRMSG  ....  1.0000e-04 Eh/bohr
Max. Displacement        TolMAXD  ....  4.0000e-03 bohr
RMS Displacement         TolRMSD  ....  2.0000e-03 bohr
Strict Convergence                ....  False
------------------------------------------------------------------------------
                        ORCA OPTIMIZATION COORDINATE SETUP
------------------------------------------------------------------------------

The optimization will be done in new redundant internal coordinates
Making redundant internal coordinates   ...  (new redundants) done
Evaluating the initial hessian          ...  (Almloef) done
Evaluating the coordinates              ...  done
Calculating the B-matrix                .... done
Calculating the G-matrix                .... done
Diagonalizing the G-matrix              .... done
Small eigenvalue found = 1.697e-02
The first mode is                       ....   35
The number of degrees of freedom        ....   45

    -----------------------------------------------------------------
                    Redundant Internal Coordinates


    -----------------------------------------------------------------
         Definition                    Initial Value    Approx d2E/dq
    -----------------------------------------------------------------
      1. B(S   1,C   0)                  1.7263         0.489666   
      2. B(C   2,S   1)                  1.7176         0.505714   
      3. B(C   3,C   2)                  1.3533         0.715013   
      4. B(C   4,C   0)                  1.3653         0.684031   
      5. B(C   4,C   3)                  1.4266         0.546232   
      6. B(N   5,C   4)                  1.3810         0.578502   
      7. B(C   6,N   5)                  1.4463         0.455007   
      8. B(C   7,C   6)                  1.5210         0.386197   
      9. B(H   8,C   0)                  1.0700         0.387497   
     10. B(H   9,C   2)                  1.0716         0.385295   
     11. B(H  10,C   3)                  1.0759         0.379261   
     12. B(H  11,N   5)                  1.0106         0.431699   
     13. B(H  12,C   6)                  1.1027         0.343682   
     14. B(H  13,C   6)                  1.0948         0.353841   
     15. B(H  14,C   7)                  1.0885         0.362099   
     16. B(H  15,C   7)                  1.0864         0.364843   
     17. B(H  16,C   7)                  1.0870         0.364068   
     18. A(C   4,C   0,H   8)          129.0863         0.363361   
     19. A(S   1,C   0,C   4)          112.1183         0.446958   
     20. A(S   1,C   0,H   8)          118.7871         0.361226   
     21. A(C   0,S   1,C   2)           91.0810         0.446774   
     22. A(C   3,C   2,H   9)          128.3635         0.365769   
     23. A(S   1,C   2,H   9)          119.4383         0.362867   
     24. A(S   1,C   2,C   3)          112.1981         0.453213   
     25. A(C   2,C   3,H  10)          123.9844         0.364782   
     26. A(C   2,C   3,C   4)          112.9266         0.435311   
     27. A(C   4,C   3,H  10)          123.0885         0.348477   
     28. A(C   3,C   4,N   5)          121.9775         0.416380   
     29. A(C   0,C   4,N   5)          126.2851         0.433481   
     30. A(C   0,C   4,C   3)          111.6716         0.431856   
     31. A(C   6,N   5,H  11)          113.7210         0.340297   
     32. A(C   4,N   5,H  11)          113.3987         0.354333   
     33. A(C   4,N   5,C   6)          119.7235         0.400532   
     34. A(H  12,C   6,H  13)          107.7812         0.287928   
     35. A(C   7,C   6,H  13)          109.7688         0.325156   
     36. A(N   5,C   6,H  13)          107.7028         0.332068   
     37. A(C   7,C   6,H  12)          109.8502         0.323604   
     38. A(N   5,C   6,H  12)          111.5622         0.330471   
     39. A(N   5,C   6,C   7)          110.1122         0.375661   
     40. A(H  15,C   7,H  16)          108.7936         0.291941   
     41. A(H  14,C   7,H  16)          108.6622         0.291594   
     42. A(C   6,C   7,H  16)          110.1615         0.326684   
     43. A(H  14,C   7,H  15)          108.4183         0.291692   
     44. A(C   6,C   7,H  15)          110.1449         0.326798   
     45. A(C   6,C   7,H  14)          110.6091         0.326393   
     46. D(C   2,S   1,C   0,H   8)    179.6649         0.005047   
     47. D(C   2,S   1,C   0,C   4)      0.6173         0.005047   
     48. D(C   3,C   2,S   1,C   0)     -0.3824         0.005295   
     49. D(H   9,C   2,S   1,C   0)    179.6695         0.005295   
     50. D(H  10,C   3,C   2,S   1)   -179.6914         0.036139   
     51. D(H  10,C   3,C   2,H   9)      0.2511         0.036139   
     52. D(C   4,C   3,C   2,S   1)      0.0645         0.036139   
     53. D(C   4,C   3,C   2,H   9)   -179.9931         0.036139   
     54. D(C   0,C   4,C   3,H  10)   -179.8370         0.020402   
     55. D(N   5,C   4,C   0,H   8)     -2.5342         0.032829   
     56. D(N   5,C   4,C   0,S   1)    176.3903         0.032829   
     57. D(C   0,C   4,C   3,C   2)      0.4046         0.020402   
     58. D(C   3,C   4,C   0,H   8)   -179.6119         0.032829   
     59. D(N   5,C   4,C   3,C   2)   -176.8185         0.020402   
     60. D(C   3,C   4,C   0,S   1)     -0.6874         0.032829   
     61. D(N   5,C   4,C   3,H  10)      2.9399         0.020402   
     62. D(H  11,N   5,C   4,C   3)    -27.4399         0.026833   
     63. D(H  11,N   5,C   4,C   0)    155.7620         0.026833   
     64. D(C   6,N   5,C   4,C   3)   -166.1856         0.026833   
     65. D(C   6,N   5,C   4,C   0)     17.0163         0.026833   
     66. D(H  13,C   6,N   5,H  11)    157.9889         0.017667   
     67. D(H  13,C   6,N   5,C   4)    -63.3890         0.017667   
     68. D(H  12,C   6,N   5,H  11)    -83.9237         0.017667   
     69. D(H  12,C   6,N   5,C   4)     54.6984         0.017667   
     70. D(C   7,C   6,N   5,H  11)     38.3205         0.017667   
     71. D(C   7,C   6,N   5,C   4)    176.9426         0.017667   
     72. D(H  15,C   7,C   6,N   5)    177.0830         0.011868   
     73. D(H  14,C   7,C   6,H  13)    178.5116         0.011868   
     74. D(H  14,C   7,C   6,H  12)     60.1681         0.011868   
     75. D(H  15,C   7,C   6,H  12)    -59.6667         0.011868   
     76. D(H  14,C   7,C   6,N   5)    -63.0823         0.011868   
     77. D(H  16,C   7,C   6,H  13)    -61.3390         0.011868   
     78. D(H  16,C   7,C   6,H  12)   -179.6826         0.011868   
     79. D(H  16,C   7,C   6,N   5)     57.0671         0.011868   
     80. D(H  15,C   7,C   6,H  13)     58.6769         0.011868   
    -----------------------------------------------------------------

Number of atoms                         .... 17
Number of degrees of freedom            .... 80

         *************************************************************
         *                GEOMETRY OPTIMIZATION CYCLE   1            *
         *************************************************************
---------------------------------
CARTESIAN COORDINATES (ANGSTROEM)
---------------------------------
  C     -0.073510    1.170440   -0.193570
  S     -1.214280   -0.119230   -0.068510
  C      0.046730   -1.250630    0.213980
  C      1.268200   -0.668160    0.202950
  C      1.211750    0.736810   -0.037890
  N      2.353170    1.505670   -0.152140
  C      2.255170    2.947560   -0.095620
  C      3.641440    3.569190   -0.167280
  H     -0.432920    2.159130   -0.389280
  H     -0.196710   -2.282380    0.370620
  H      2.190180   -1.201490    0.354760
  H      3.141780    1.131490    0.357240
  H      1.741190    3.283220    0.820410
  H      1.657990    3.274500   -0.952950
  H      4.238770    3.273760    0.693380
  H      3.565500    4.652930   -0.176700
  H      4.150700    3.245950   -1.071590

----------------------------
CARTESIAN COORDINATES (A.U.)
----------------------------
  NO LB      ZA    FRAG     MASS         X           Y           Z
   0 C     6.0000    0    12.011   -0.138914    2.211811   -0.365794
   1 S    16.0000    0    32.060   -2.294657   -0.225312   -0.129465
   2 C     6.0000    0    12.011    0.088307   -2.363348    0.404364
   3 C     6.0000    0    12.011    2.396551   -1.262639    0.383520
   4 C     6.0000    0    12.011    2.289876    1.392369   -0.071602
   5 N     7.0000    0    14.007    4.446847    2.845304   -0.287503
   6 C     6.0000    0    12.011    4.261654    5.570081   -0.180696
   7 C     6.0000    0    12.011    6.881324    6.744792   -0.316113
   8 H     1.0000    0     1.008   -0.818100    4.080164   -0.735633
   9 H     1.0000    0     1.008   -0.371728   -4.313073    0.700370
  10 H     1.0000    0     1.008    4.138840   -2.270487    0.670399
  11 H     1.0000    0     1.008    5.937104    2.138206    0.675086
  12 H     1.0000    0     1.008    3.290372    6.204387    1.550350
  13 H     1.0000    0     1.008    3.133147    6.187908   -1.800815
  14 H     1.0000    0     1.008    8.010114    6.186510    1.310298
  15 H     1.0000    0     1.008    6.737819    8.792763   -0.333915
  16 H     1.0000    0     1.008    7.843686    6.133957   -2.025012

--------------------------------
INTERNAL COORDINATES (ANGSTROEM)
--------------------------------
 C      0   0   0     0.000000000000     0.00000000     0.00000000
 S      1   0   0     1.726338583650     0.00000000     0.00000000
 C      2   1   0     1.717560124188    91.08098826     0.00000000
 C      3   2   1     1.353285602783   112.19812198   359.61764814
 C      1   2   3     1.365344098350   112.11834371     0.61734847
 N      5   1   2     1.380955603378   126.28512683   176.39029546
 C      6   5   1     1.446321292971   119.72353817    17.01631038
 C      7   6   5     1.520954807152   110.11216157   176.94255859
 H      1   2   3     1.070040124622   118.78708013   179.66486939
 H      3   2   1     1.071590960068   119.43830469   179.66947835
 H      4   3   2     1.075887673226   123.98444141   180.30864893
 H      6   5   1     1.010635636073   113.39865244   155.76196200
 H      7   6   5     1.102703059259   111.56216452    54.69840421
 H      7   6   5     1.094773239032   107.70284070   296.61099318
 H      8   7   6     1.088493293227   110.60911343   296.91774768
 H      8   7   6     1.086438220793   110.14489163   177.08297288
 H      8   7   6     1.087017212973   110.16145790    57.06707248

---------------------------
INTERNAL COORDINATES (A.U.)
---------------------------
 C      0   0   0     0.000000000000     0.00000000     0.00000000
 S      1   0   0     3.262307137521     0.00000000     0.00000000
 C      2   1   0     3.245718253259    91.08098826     0.00000000
 C      3   2   1     2.557339170239   112.19812198   359.61764814
 C      1   2   3     2.580126424448   112.11834371     0.61734847
 N      5   1   2     2.609627893488   126.28512683   176.39029546
 C      6   5   1     2.733151145373   119.72353817    17.01631038
 C      7   6   5     2.874188047589   110.11216157   176.94255859
 H      1   2   3     2.022082787842   118.78708013   179.66486939
 H      3   2   1     2.025013442115   119.43830469   179.66947835
 H      4   3   2     2.033133053259   123.98444141   180.30864893
 H      6   5   1     1.909824573359   113.39865244   155.76196200
 H      7   6   5     2.083806789037   111.56216452    54.69840421
 H      7   6   5     2.068821600516   107.70284070   296.61099318
 H      8   7   6     2.056954222809   110.60911343   296.91774768
 H      8   7   6     2.053070698724   110.14489163   177.08297288
 H      8   7   6     2.054164835378   110.16145790    57.06707248

---------------------
BASIS SET INFORMATION
---------------------
There are 4 groups of distinct atoms

 Group   1 Type C   : 7s4p1d contracted to 3s2p1d pattern {511/31/1}
 Group   2 Type S   : 10s7p1d contracted to 4s3p1d pattern {5311/511/1}
 Group   3 Type N   : 7s4p1d contracted to 3s2p1d pattern {511/31/1}
 Group   4 Type H   : 4s1p contracted to 2s1p pattern {31/1}

Atom   0C    basis set group =>   1
Atom   1S    basis set group =>   2
Atom   2C    basis set group =>   1
Atom   3C    basis set group =>   1
Atom   4C    basis set group =>   1
Atom   5N    basis set group =>   3
Atom   6C    basis set group =>   1
Atom   7C    basis set group =>   1
Atom   8H    basis set group =>   4
Atom   9H    basis set group =>   4
Atom  10H    basis set group =>   4
Atom  11H    basis set group =>   4
Atom  12H    basis set group =>   4
Atom  13H    basis set group =>   4
Atom  14H    basis set group =>   4
Atom  15H    basis set group =>   4
Atom  16H    basis set group =>   4
---------------------------------
AUXILIARY/J BASIS SET INFORMATION
---------------------------------
There are 4 groups of distinct atoms

 Group   1 Type C   : 12s5p4d2f1g contracted to 6s4p3d1f1g pattern {711111/2111/211/2/1}
 Group   2 Type S   : 14s5p5d2f1g contracted to 8s4p3d1f1g pattern {71111111/2111/311/2/1}
 Group   3 Type N   : 12s5p4d2f1g contracted to 6s4p3d1f1g pattern {711111/2111/211/2/1}
 Group   4 Type H   : 5s2p1d contracted to 3s1p1d pattern {311/2/1}

Atom   0C    basis set group =>   1
Atom   1S    basis set group =>   2
Atom   2C    basis set group =>   1
Atom   3C    basis set group =>   1
Atom   4C    basis set group =>   1
Atom   5N    basis set group =>   3
Atom   6C    basis set group =>   1
Atom   7C    basis set group =>   1
Atom   8H    basis set group =>   4
Atom   9H    basis set group =>   4
Atom  10H    basis set group =>   4
Atom  11H    basis set group =>   4
Atom  12H    basis set group =>   4
Atom  13H    basis set group =>   4
Atom  14H    basis set group =>   4
Atom  15H    basis set group =>   4
Atom  16H    basis set group =>   4
------------------------------------------------------------------------------
                           ORCA GTO INTEGRAL CALCULATION
                           -- RI-GTO INTEGRALS CHOSEN --
------------------------------------------------------------------------------

                         BASIS SET STATISTICS AND STARTUP INFO

Gaussian basis set:
 # of primitive gaussian shells          ...  147
 # of primitive gaussian functions       ...  267
 # of contracted shells                  ...   77
 # of contracted basis functions         ...  161
 Highest angular momentum                ...    2
 Maximum contraction depth               ...    5
Auxiliary gaussian basis set:
 # of primitive gaussian shells          ...  267
 # of primitive gaussian functions       ...  711
 # of contracted shells                  ...  167
 # of contracted aux-basis functions     ...  493
 Highest angular momentum                ...    4
 Maximum contraction depth               ...    7
Ratio of auxiliary to basis functions    ...  3.06
Integral package used                  ... LIBINT
 One Electron integrals                  ... done
 Ordering auxiliary basis shells         ... done
 Integral threshhold             Thresh  ...  2.500e-11
 Primitive cut-off               TCut    ...  2.500e-12
 Pre-screening matrix                    ... done
 Shell pair data                         ... 
 Ordering of the shell pairs             ... done (   0.000 sec) 2731 of 3003 pairs
 Determination of significant pairs      ... done (   0.000 sec)
 Creation of shell pair data             ... done (   0.000 sec)
 Storage of shell pair data              ... done (   0.001 sec)
 Shell pair data done in (   0.002 sec)
 Computing two index integrals           ... done
 Cholesky decomposition of the V-matrix  ... done


Timings:
 Total evaluation time                   ...   0.181 sec (  0.003 min)
 One electron matrix time                ...   0.014 sec (  0.000 min) =  7.5%
 Schwartz matrix evaluation time         ...   0.101 sec (  0.002 min) = 56.0%
 Two index repulsion integral time       ...   0.006 sec (  0.000 min) =  3.3%
 Cholesky decomposition of V             ...   0.042 sec (  0.001 min) = 23.2%
 Three index repulsion integral time     ...   0.000 sec (  0.000 min) =  0.0%

-------------------------------------------------------------------------------
                                 ORCA SCF
-------------------------------------------------------------------------------

------------
SCF SETTINGS
------------
Hamiltonian:
 Density Functional     Method          .... DFT(GTOs)
 Exchange Functional    Exchange        .... B88
   X-Alpha parameter    XAlpha          ....  0.666667
   Becke's b parameter  XBeta           ....  0.004200
 Correlation Functional Correlation     .... LYP
 LDA part of GGA corr.  LDAOpt          .... VWN-3
 Gradients option       PostSCFGGA      .... off
 Hybrid DFT is turned on
   Fraction HF Exchange ScalHFX         ....  0.200000
   Scaling of DF-GGA-X  ScalDFX         ....  0.720000
   Scaling of DF-GGA-C  ScalDFC         ....  0.810000
   Scaling of DF-LDA-C  ScalLDAC        ....  1.000000
   Perturbative correction              ....  0.000000
   Density functional embedding theory  .... OFF
   NL short-range parameter             ....  4.800000
 RI-approximation to the Coulomb term is turned on
   Number of auxiliary basis functions  .... 493
   RIJ-COSX (HFX calculated with COS-X)).... on


General Settings:
 Integral files         IntName         .... 518
 Hartree-Fock type      HFTyp           .... RHF
 Total Charge           Charge          ....    0
 Multiplicity           Mult            ....    1
 Number of Electrons    NEL             ....   68
 Basis Dimension        Dim             ....  161
 Nuclear Repulsion      ENuc            ....    422.8299386367 Eh

Convergence Acceleration:
 DIIS                   CNVDIIS         .... on
   Start iteration      DIISMaxIt       ....    12
   Startup error        DIISStart       ....  0.200000
   # of expansion vecs  DIISMaxEq       ....     5
   Bias factor          DIISBfac        ....   1.050
   Max. coefficient     DIISMaxC        ....  10.000
 Newton-Raphson         CNVNR           .... off
 SOSCF                  CNVSOSCF        .... on
   Start iteration      SOSCFMaxIt      ....   150
   Startup grad/error   SOSCFStart      ....  0.003300
 Level Shifting         CNVShift        .... on
   Level shift para.    LevelShift      ....    0.2500
   Turn off err/grad.   ShiftErr        ....    0.0010
 Zerner damping         CNVZerner       .... off
 Static damping         CNVDamp         .... on
   Fraction old density DampFac         ....    0.7000
   Max. Damping (<1)    DampMax         ....    0.9800
   Min. Damping (>=0)   DampMin         ....    0.0000
   Turn off err/grad.   DampErr         ....    0.1000
 Fernandez-Rico         CNVRico         .... off

SCF Procedure:
 Maximum # iterations   MaxIter         ....   125
 SCF integral mode      SCFMode         .... Direct
   Integral package                     .... LIBINT
 Reset frequency        DirectResetFreq ....    20
 Integral Threshold     Thresh          ....  2.500e-11 Eh
 Primitive CutOff       TCut            ....  2.500e-12 Eh

Convergence Tolerance:
 Convergence Check Mode ConvCheckMode   .... Total+1el-Energy
 Convergence forced     ConvForced      .... 0
 Energy Change          TolE            ....  1.000e-08 Eh
 1-El. energy change                    ....  1.000e-05 Eh
 Orbital Gradient       TolG            ....  1.000e-05
 Orbital Rotation angle TolX            ....  1.000e-05
 DIIS Error             TolErr          ....  5.000e-07


Diagonalization of the overlap matrix:
Smallest eigenvalue                        ... 7.694e-04
Time for diagonalization                   ...    0.047 sec
Threshold for overlap eigenvalues          ... 1.000e-08
Number of eigenvalues below threshold      ... 0
Time for construction of square roots      ...    0.001 sec
Total time needed                          ...    0.048 sec

-------------------
DFT GRID GENERATION
-------------------

General Integration Accuracy     IntAcc      ...  4.340
Radial Grid Type                 RadialGrid  ... Gauss-Chebyshev
Angular Grid (max. acc.)         AngularGrid ... Lebedev-110
Angular grid pruning method      GridPruning ... 3 (G Style)
Weight generation scheme         WeightScheme... Becke
Basis function cutoff            BFCut       ...    1.0000e-11
Integration weight cutoff        WCut        ...    1.0000e-14
Grids for H and He will be reduced by one unit

# of grid points (after initial pruning)     ...  20590 (   0.0 sec)
# of grid points (after weights+screening)   ...  19114 (   0.0 sec)
nearest neighbour list constructed           ...    0.0 sec
Grid point re-assignment to atoms done       ...    0.0 sec
Grid point division into batches done        ...    0.0 sec
Reduced shell lists constructed in    0.1 sec

Total number of grid points                  ...    19114
Total number of batches                      ...      309
Average number of points per batch           ...       61
Average number of grid points per atom       ...     1124
Average number of shells per batch           ...    53.15 (69.03%)
Average number of basis functions per batch  ...   108.88 (67.63%)
Average number of large shells per batch     ...    41.50 (78.07%)
Average number of large basis fcns per batch ...    84.07 (77.21%)
Maximum spatial batch extension              ...  20.85, 18.26, 25.60 au
Average spatial batch extension              ...   3.92,  3.80,  4.12 au

Time for grid setup =    0.162 sec

------------------------------
INITIAL GUESS: MODEL POTENTIAL
------------------------------
Loading Hartree-Fock densities                     ... done
Calculating cut-offs                               ... done
Setting up the integral package                    ... done
Initializing the effective Hamiltonian             ... done
Starting the Coulomb interaction                   ... done (   0.1 sec)
Reading the grid                                   ... done
Mapping shells                                     ... done
Starting the XC term evaluation                    ... done (   0.2 sec)
  promolecular density results
     # of electrons  =     68.002760705
     EX              =    -65.179788766
     EC              =     -2.380627601
     EX+EC           =    -67.560416367
Transforming the Hamiltonian                       ... done (   0.0 sec)
Diagonalizing the Hamiltonian                      ... done (   0.0 sec)
Back transforming the eigenvectors                 ... done (   0.0 sec)
Now organizing SCF variables                       ... done
                      ------------------
                      INITIAL GUESS DONE (   0.5 sec)
                      ------------------
--------------------
COSX GRID GENERATION
--------------------

General Integration Accuracy     IntAcc      ...  3.340
Radial Grid Type                 RadialGrid  ... Gauss-Chebyshev
Angular Grid (max. acc.)         AngularGrid ... Lebedev-50
Angular grid pruning method      GridPruning ... 3 (G Style)
Weight generation scheme         WeightScheme... Becke
Basis function cutoff            BFCut       ...    1.0000e-11
Integration weight cutoff        WCut        ...    1.0000e-14
Grids for H and He will be reduced by one unit

# of grid points (after initial pruning)     ...   7632 (   0.0 sec)
# of grid points (after weights+screening)   ...   7133 (   0.0 sec)
nearest neighbour list constructed           ...    0.0 sec
Grid point re-assignment to atoms done       ...    0.0 sec
Grid point division into batches done        ...    0.0 sec
Reduced shell lists constructed in    0.0 sec

Total number of grid points                  ...     7133
Total number of batches                      ...      120
Average number of points per batch           ...       59
Average number of grid points per atom       ...      420
Average number of shells per batch           ...    56.56 (73.46%)
Average number of basis functions per batch  ...   116.51 (72.37%)
Average number of large shells per batch     ...    44.63 (78.90%)
Average number of large basis fcns per batch ...    91.19 (78.27%)
Maximum spatial batch extension              ...  16.71, 16.14, 27.60 au
Average spatial batch extension              ...   4.78,  4.78,  5.92 au

Overlap Fitting                  UseSFitting ... on
Constructing numerical overlap ... done (      0.0 sec)
Inverting numerical overlap    ... done (      0.0 sec)
Obtaining analytic overlap     ... done (      0.0 sec)
Final contraction and storage  ... done (      0.0 sec)


General Integration Accuracy     IntAcc      ...  3.670
Radial Grid Type                 RadialGrid  ... Gauss-Chebyshev
Angular Grid (max. acc.)         AngularGrid ... Lebedev-50
Angular grid pruning method      GridPruning ... 3 (G Style)
Weight generation scheme         WeightScheme... Becke
Basis function cutoff            BFCut       ...    1.0000e-11
Integration weight cutoff        WCut        ...    1.0000e-14
Grids for H and He will be reduced by one unit

# of grid points (after initial pruning)     ...   9736 (   0.0 sec)
# of grid points (after weights+screening)   ...   9085 (   0.0 sec)
nearest neighbour list constructed           ...    0.0 sec
Grid point re-assignment to atoms done       ...    0.0 sec
Grid point division into batches done        ...    0.0 sec
Reduced shell lists constructed in    0.1 sec

Total number of grid points                  ...     9085
Total number of batches                      ...      152
Average number of points per batch           ...       59
Average number of grid points per atom       ...      534
Average number of shells per batch           ...    55.80 (72.47%)
Average number of basis functions per batch  ...   114.72 (71.25%)
Average number of large shells per batch     ...    43.72 (78.34%)
Average number of large basis fcns per batch ...    88.83 (77.43%)
Maximum spatial batch extension              ...  18.42, 17.33, 26.98 au
Average spatial batch extension              ...   4.59,  4.44,  5.48 au

Overlap Fitting                  UseSFitting ... on
Constructing numerical overlap ... done (      0.0 sec)
Inverting numerical overlap    ... done (      0.0 sec)
Obtaining analytic overlap     ... done (      0.0 sec)
Final contraction and storage  ... done (      0.0 sec)


General Integration Accuracy     IntAcc      ...  4.010
Radial Grid Type                 RadialGrid  ... Gauss-Chebyshev
Angular Grid (max. acc.)         AngularGrid ... Lebedev-110
Angular grid pruning method      GridPruning ... 3 (G Style)
Weight generation scheme         WeightScheme... Becke
Basis function cutoff            BFCut       ...    1.0000e-11
Integration weight cutoff        WCut        ...    1.0000e-14
Grids for H and He will be reduced by one unit

# of grid points (after initial pruning)     ...  17920 (   0.0 sec)
# of grid points (after weights+screening)   ...  16677 (   0.0 sec)
nearest neighbour list constructed           ...    0.0 sec
Grid point re-assignment to atoms done       ...    0.0 sec
Grid point division into batches done        ...    0.0 sec
Reduced shell lists constructed in    0.1 sec

Total number of grid points                  ...    16677
Total number of batches                      ...      270
Average number of points per batch           ...       61
Average number of grid points per atom       ...      981
Average number of shells per batch           ...    53.73 (69.78%)
Average number of basis functions per batch  ...   110.32 (68.52%)
Average number of large shells per batch     ...    42.06 (78.29%)
Average number of large basis fcns per batch ...    85.33 (77.35%)
Maximum spatial batch extension              ...  20.48, 17.23, 24.23 au
Average spatial batch extension              ...   3.97,  3.90,  4.29 au

Overlap Fitting                  UseSFitting ... on
Constructing numerical overlap ... done (      0.1 sec)
Inverting numerical overlap    ... done (      0.0 sec)
Obtaining analytic overlap     ... done (      0.0 sec)
Final contraction and storage  ... done (      0.0 sec)

Time for X-Grid setup             =    0.489 sec
--------------
SCF ITERATIONS
--------------
ITER       Energy         Delta-E        Max-DP      RMS-DP      [F,P]     Damp
               ***  Starting incremental Fock matrix formation  ***
  0   -686.4019724331   0.000000000000 0.07799631  0.00266935  0.1976024 0.7000
  1   -686.5288408185  -0.126868385343 0.05077803  0.00184794  0.0920429 0.7000
                               ***Turning on DIIS***
  2   -686.5758624223  -0.047021603802 0.10878732  0.00289980  0.0357560 0.0000
  3   -686.6408087305  -0.064946308186 0.03121116  0.00146810  0.0494538 0.0000
  4   -686.6633563718  -0.022547641379 0.01707693  0.00039189  0.0142048 0.0000
  5   -686.6644764814  -0.001120109567 0.00402262  0.00014607  0.0049962 0.0000
                      *** Initiating the SOSCF procedure ***
                           *** Shutting down DIIS ***
                      *** Re-Reading the Fockian *** 
                      *** Removing any level shift *** 
ITER      Energy       Delta-E        Grad      Rot      Max-DP    RMS-DP
  6   -686.66460389  -0.0001274121  0.000414  0.000414  0.002538  0.000077
               *** Restarting incremental Fock matrix formation ***
  7   -686.66459874   0.0000051536  0.000331  0.001391  0.002151  0.000056
  8   -686.66459381   0.0000049322  0.000637  0.000962  0.001216  0.000034
  9   -686.66460131  -0.0000074980  0.000040  0.000108  0.000261  0.000007
 10   -686.66460121   0.0000000964  0.000062  0.000078  0.000186  0.000004
 11   -686.66460138  -0.0000001732  0.000006  0.000026  0.000048  0.000001
 12   -686.66460139  -0.0000000081  0.000009  0.000018  0.000023  0.000001
                  ***Gradient check signals convergence***
              ***Rediagonalizing the Fockian in SOSCF/NRSCF***

               *****************************************************
               *                     SUCCESS                       *
               *           SCF CONVERGED AFTER  13 CYCLES          *
               *****************************************************

Setting up the final grid:

General Integration Accuracy     IntAcc      ...  4.670
Radial Grid Type                 RadialGrid  ... Gauss-Chebyshev
Angular Grid (max. acc.)         AngularGrid ... Lebedev-302
Angular grid pruning method      GridPruning ... 3 (G Style)
Weight generation scheme         WeightScheme... Becke
Basis function cutoff            BFCut       ...    1.0000e-11
Integration weight cutoff        WCut        ...    1.0000e-14
Grids for H and He will be reduced by one unit

# of grid points (after initial pruning)     ...  80876 (   0.0 sec)
# of grid points (after weights+screening)   ...  74029 (   0.2 sec)
nearest neighbour list constructed           ...    0.0 sec
Grid point re-assignment to atoms done       ...    0.0 sec
Grid point division into batches done        ...    0.2 sec
Reduced shell lists constructed in    0.6 sec

Total number of grid points                  ...    74029
Total number of batches                      ...     1166
Average number of points per batch           ...       63
Average number of grid points per atom       ...     4355
Average number of shells per batch           ...    48.53 (63.03%)
Average number of basis functions per batch  ...    98.72 (61.32%)
Average number of large shells per batch     ...    37.38 (77.03%)
Average number of large basis fcns per batch ...    74.92 (75.89%)
Maximum spatial batch extension              ...  21.48, 19.20, 21.49 au
Average spatial batch extension              ...   2.56,  2.46,  2.67 au

Final grid set up in    0.8 sec
Final integration                            ... done (   0.8 sec)
Change in XC energy                          ...     0.000439978
Integrated number of electrons               ...    68.000032979
Previous integrated no of electrons          ...    68.003578674
Old exchange energy                            =    -13.191552326 Eh
New exchange energy                            =    -13.191648953 Eh
Exchange energy change after final integration =     -0.000096627 Eh
Total energy after final integration           =   -686.664258033 Eh
Final COS-X integration done in                =     4.317 sec

----------------
TOTAL SCF ENERGY
----------------

Total Energy       :         -686.66425803 Eh          -18685.08439 eV

Components:
Nuclear Repulsion  :          422.82993864 Eh           11505.78757 eV
Electronic Energy  :        -1109.49419667 Eh          -30190.87197 eV
One Electron Energy:        -1777.32625583 Eh          -48363.50617 eV
Two Electron Energy:          667.83205916 Eh           18172.63421 eV

Virial components:
Potential Energy   :        -1369.43908918 Eh          -37264.33210 eV
Kinetic Energy     :          682.77483115 Eh           18579.24771 eV
Virial Ratio       :            2.00569650


DFT components:
N(Alpha)           :       34.000016489693 electrons
N(Beta)            :       34.000016489693 electrons
N(Total)           :       68.000032979385 electrons
E(X)               :      -52.348116112192 Eh       
E(C)               :       -3.057739646796 Eh       
E(XC)              :      -55.405855758988 Eh       
DFET-embed. en.    :        0.000000000000 Eh       

---------------
SCF CONVERGENCE
---------------

  Last Energy change         ...    7.4401e-09  Tolerance :   1.0000e-08
  Last MAX-Density change    ...    2.6645e-15  Tolerance :   1.0000e-07
  Last RMS-Density change    ...    4.6794e-17  Tolerance :   5.0000e-09
  Last Orbital Gradient      ...    2.3548e-06  Tolerance :   1.0000e-05
  Last Orbital Rotation      ...    8.2145e-06  Tolerance :   1.0000e-05

             **** THE GBW FILE WAS UPDATED (518.gbw) ****
             **** DENSITY FILE WAS UPDATED (518.scfp) ****
             **** ENERGY FILE WAS UPDATED (518.en.tmp) ****
             **** THE GBW FILE WAS UPDATED (518.gbw) ****
             **** DENSITY FILE WAS UPDATED (518.scfp) ****
----------------
ORBITAL ENERGIES
----------------

  NO   OCC          E(Eh)            E(eV) 
   0   2.0000     -88.856509     -2417.9085 
   1   2.0000     -14.329201      -389.9174 
   2   2.0000     -10.217365      -278.0286 
   3   2.0000     -10.213992      -277.9369 
   4   2.0000     -10.199568      -277.5444 
   5   2.0000     -10.186378      -277.1854 
   6   2.0000     -10.182919      -277.0913 
   7   2.0000     -10.179481      -276.9978 
   8   2.0000      -7.952061      -216.3866 
   9   2.0000      -5.920284      -161.0991 
  10   2.0000      -5.916185      -160.9876 
  11   2.0000      -5.913195      -160.9062 
  12   2.0000      -0.928107       -25.2551 
  13   2.0000      -0.860060       -23.4034 
  14   2.0000      -0.758499       -20.6398 
  15   2.0000      -0.716215       -19.4892 
  16   2.0000      -0.692455       -18.8427 
  17   2.0000      -0.625928       -17.0324 
  18   2.0000      -0.561132       -15.2692 
  19   2.0000      -0.546675       -14.8758 
  20   2.0000      -0.521039       -14.1782 
  21   2.0000      -0.481617       -13.1055 
  22   2.0000      -0.456542       -12.4232 
  23   2.0000      -0.439003       -11.9459 
  24   2.0000      -0.401479       -10.9248 
  25   2.0000      -0.395125       -10.7519 
  26   2.0000      -0.383459       -10.4344 
  27   2.0000      -0.372070       -10.1245 
  28   2.0000      -0.370239       -10.0747 
  29   2.0000      -0.362246        -9.8572 
  30   2.0000      -0.338673        -9.2158 
  31   2.0000      -0.292686        -7.9644 
  32   2.0000      -0.237034        -6.4500 
  33   2.0000      -0.192927        -5.2498 
  34   0.0000       0.001014         0.0276 
  35   0.0000       0.047430         1.2906 
  36   0.0000       0.063372         1.7244 
  37   0.0000       0.074477         2.0266 
  38   0.0000       0.085050         2.3143 
  39   0.0000       0.089411         2.4330 
  40   0.0000       0.109712         2.9854 
  41   0.0000       0.123944         3.3727 
  42   0.0000       0.126521         3.4428 
  43   0.0000       0.130849         3.5606 
  44   0.0000       0.148462         4.0399 
  45   0.0000       0.162071         4.4102 
  46   0.0000       0.162767         4.4291 
  47   0.0000       0.206085         5.6079 
  48   0.0000       0.231685         6.3045 
  49   0.0000       0.271801         7.3961 
  50   0.0000       0.299262         8.1433 
  51   0.0000       0.333712         9.0808 
  52   0.0000       0.370171        10.0729 
  53   0.0000       0.385310        10.4848 
  54   0.0000       0.408958        11.1283 
  55   0.0000       0.418293        11.3823 
  56   0.0000       0.424930        11.5629 
  57   0.0000       0.434402        11.8207 
  58   0.0000       0.451502        12.2860 
  59   0.0000       0.489603        13.3228 
  60   0.0000       0.494989        13.4693 
  61   0.0000       0.510036        13.8788 
  62   0.0000       0.517972        14.0947 
  63   0.0000       0.528529        14.3820 
  64   0.0000       0.551411        15.0047 
  65   0.0000       0.565247        15.3812 
  66   0.0000       0.585004        15.9188 
  67   0.0000       0.621684        16.9169 
  68   0.0000       0.630741        17.1633 
  69   0.0000       0.636418        17.3178 
  70   0.0000       0.645447        17.5635 
  71   0.0000       0.654235        17.8026 
  72   0.0000       0.654964        17.8225 
  73   0.0000       0.666572        18.1384 
  74   0.0000       0.674688        18.3592 
  75   0.0000       0.682942        18.5838 
  76   0.0000       0.688129        18.7249 
  77   0.0000       0.701596        19.0914 
  78   0.0000       0.709870        19.3166 
  79   0.0000       0.723902        19.6984 
  80   0.0000       0.727897        19.8071 
  81   0.0000       0.735479        20.0134 
  82   0.0000       0.749729        20.4012 
  83   0.0000       0.793320        21.5873 
  84   0.0000       0.796634        21.6775 
  85   0.0000       0.810722        22.0609 
  86   0.0000       0.845482        23.0067 
  87   0.0000       0.857166        23.3247 
  88   0.0000       0.885159        24.0864 
  89   0.0000       0.911239        24.7961 
  90   0.0000       0.961695        26.1690 
  91   0.0000       1.019068        27.7303 
  92   0.0000       1.062985        28.9253 
  93   0.0000       1.079920        29.3861 
  94   0.0000       1.136764        30.9329 
  95   0.0000       1.160237        31.5717 
  96   0.0000       1.189176        32.3591 
  97   0.0000       1.203205        32.7409 
  98   0.0000       1.213731        33.0273 
  99   0.0000       1.269985        34.5580 
 100   0.0000       1.280218        34.8365 
 101   0.0000       1.292602        35.1735 
 102   0.0000       1.349010        36.7084 
 103   0.0000       1.353886        36.8411 
 104   0.0000       1.483647        40.3721 
 105   0.0000       1.527073        41.5538 
 106   0.0000       1.535953        41.7954 
 107   0.0000       1.553293        42.2673 
 108   0.0000       1.589484        43.2521 
 109   0.0000       1.673827        45.5471 
 110   0.0000       1.698398        46.2158 
 111   0.0000       1.734252        47.1914 
 112   0.0000       1.747570        47.5538 
 113   0.0000       1.756992        47.8102 
 114   0.0000       1.769410        48.1481 
 115   0.0000       1.783025        48.5186 
 116   0.0000       1.800542        48.9952 
 117   0.0000       1.810448        49.2648 
 118   0.0000       1.827663        49.7332 
 119   0.0000       1.835875        49.9567 
 120   0.0000       1.848882        50.3106 
 121   0.0000       1.887073        51.3499 
 122   0.0000       1.891017        51.4572 
 123   0.0000       1.927381        52.4467 
 124   0.0000       1.965423        53.4819 
 125   0.0000       1.985557        54.0298 
 126   0.0000       2.011346        54.7315 
 127   0.0000       2.015710        54.8503 
 128   0.0000       2.056427        55.9582 
 129   0.0000       2.060421        56.0669 
 130   0.0000       2.101630        57.1883 
 131   0.0000       2.131924        58.0126 
 132   0.0000       2.153995        58.6132 
 133   0.0000       2.182602        59.3916 
 134   0.0000       2.197035        59.7844 
 135   0.0000       2.260309        61.5061 
 136   0.0000       2.304977        62.7216 
 137   0.0000       2.345020        63.8112 
 138   0.0000       2.383199        64.8501 
 139   0.0000       2.406840        65.4934 
 140   0.0000       2.414508        65.7021 
 141   0.0000       2.437465        66.3268 
 142   0.0000       2.479099        67.4597 
 143   0.0000       2.530690        68.8636 
 144   0.0000       2.543589        69.2146 
 145   0.0000       2.606038        70.9139 
 146   0.0000       2.646225        72.0074 
 147   0.0000       2.704146        73.5836 
 148   0.0000       2.741468        74.5991 
 149   0.0000       2.769917        75.3733 
 150   0.0000       2.815886        76.6242 
 151   0.0000       2.860918        77.8495 
 152   0.0000       2.866517        78.0019 
 153   0.0000       2.921352        79.4940 
 154   0.0000       2.989974        81.3613 
 155   0.0000       3.015219        82.0483 
 156   0.0000       3.052130        83.0527 
 157   0.0000       3.111491        84.6680 
 158   0.0000       3.177165        86.4551 
 159   0.0000       3.404409        92.6387 
 160   0.0000       3.505793        95.3975 

                    ********************************
                    * MULLIKEN POPULATION ANALYSIS *
                    ********************************

-----------------------
MULLIKEN ATOMIC CHARGES
-----------------------
   0 C :   -0.200539
   1 S :    0.080048
   2 C :   -0.079861
   3 C :    0.023041
   4 C :    0.121539
   5 N :   -0.162362
   6 C :    0.105249
   7 C :   -0.007743
   8 H :   -0.008500
   9 H :    0.014352
  10 H :   -0.040250
  11 H :    0.101168
  12 H :   -0.004496
  13 H :    0.010029
  14 H :    0.010088
  15 H :    0.020139
  16 H :    0.018099
Sum of atomic charges:   -0.0000000

--------------------------------
MULLIKEN REDUCED ORBITAL CHARGES
--------------------------------
  0 C s       :     3.223331  s :     3.223331
      pz      :     1.213254  p :     2.943279
      px      :     0.927172
      py      :     0.802854
      dz2     :     0.003197  d :     0.033929
      dxz     :     0.006822
      dyz     :     0.003038
      dx2y2   :     0.008323
      dxy     :     0.012550
  1 S s       :     5.838472  s :     5.838472
      pz      :     3.650656  p :     9.964725
      px      :     3.328072
      py      :     2.985997
      dz2     :     0.013453  d :     0.116755
      dxz     :     0.013297
      dyz     :     0.024838
      dx2y2   :     0.017466
      dxy     :     0.047701
  2 C s       :     3.154112  s :     3.154112
      pz      :     1.089639  p :     2.888179
      px      :     0.921158
      py      :     0.877381
      dz2     :     0.003125  d :     0.037570
      dxz     :     0.008513
      dyz     :     0.003114
      dx2y2   :     0.009607
      dxy     :     0.013210
  3 C s       :     3.188037  s :     3.188037
      pz      :     1.059072  p :     2.753738
      px      :     0.778892
      py      :     0.915774
      dz2     :     0.002897  d :     0.035184
      dxz     :     0.004845
      dyz     :     0.005479
      dx2y2   :     0.011706
      dxy     :     0.010257
  4 C s       :     2.955582  s :     2.955582
      pz      :     0.994065  p :     2.859317
      px      :     0.926754
      py      :     0.938499
      dz2     :     0.004912  d :     0.063562
      dxz     :     0.015866
      dyz     :     0.008294
      dx2y2   :     0.017586
      dxy     :     0.016904
  5 N s       :     3.363850  s :     3.363850
      pz      :     1.608414  p :     3.775250
      px      :     1.100852
      py      :     1.065985
      dz2     :     0.002068  d :     0.023261
      dxz     :     0.004747
      dyz     :     0.004055
      dx2y2   :     0.005863
      dxy     :     0.006529
  6 C s       :     2.986146  s :     2.986146
      pz      :     1.008672  p :     2.856190
      px      :     1.018818
      py      :     0.828700
      dz2     :     0.007639  d :     0.052415
      dxz     :     0.009973
      dyz     :     0.011567
      dx2y2   :     0.014418
      dxy     :     0.008817
  7 C s       :     2.979818  s :     2.979818
      pz      :     1.011074  p :     2.998917
      px      :     0.979011
      py      :     1.008832
      dz2     :     0.005676  d :     0.029008
      dxz     :     0.009377
      dyz     :     0.002252
      dx2y2   :     0.007687
      dxy     :     0.004016
  8 H s       :     0.983878  s :     0.983878
      pz      :     0.006981  p :     0.024622
      px      :     0.004565
      py      :     0.013075
  9 H s       :     0.961487  s :     0.961487
      pz      :     0.005805  p :     0.024162
      px      :     0.003843
      py      :     0.014514
 10 H s       :     1.016068  s :     1.016068
      pz      :     0.005880  p :     0.024183
      px      :     0.011777
      py      :     0.006525
 11 H s       :     0.853994  s :     0.853994
      pz      :     0.016207  p :     0.044838
      px      :     0.018950
      py      :     0.009681
 12 H s       :     0.983454  s :     0.983454
      pz      :     0.011383  p :     0.021042
      px      :     0.006196
      py      :     0.003464
 13 H s       :     0.968505  s :     0.968505
      pz      :     0.010895  p :     0.021466
      px      :     0.007028
      py      :     0.003543
 14 H s       :     0.966135  s :     0.966135
      pz      :     0.010795  p :     0.023778
      px      :     0.007351
      py      :     0.005632
 15 H s       :     0.956190  s :     0.956190
      pz      :     0.005191  p :     0.023671
      px      :     0.004356
      py      :     0.014124
 16 H s       :     0.958301  s :     0.958301
      pz      :     0.011556  p :     0.023599
      px      :     0.006330
      py      :     0.005713


                     *******************************
                     * LOEWDIN POPULATION ANALYSIS *
                     *******************************

----------------------
LOEWDIN ATOMIC CHARGES
----------------------
   0 C :   -0.261892
   1 S :    0.411134
   2 C :   -0.184581
   3 C :   -0.086509
   4 C :   -0.021180
   5 N :   -0.048161
   6 C :    0.034687
   7 C :   -0.055864
   8 H :    0.011307
   9 H :    0.018222
  10 H :    0.020827
  11 H :    0.065876
  12 H :    0.004179
  13 H :    0.018895
  14 H :    0.019669
  15 H :    0.029233
  16 H :    0.024158

-------------------------------
LOEWDIN REDUCED ORBITAL CHARGES
-------------------------------
  0 C s       :     2.911684  s :     2.911684
      pz      :     1.204157  p :     3.266963
      px      :     1.038725
      py      :     1.024081
      dz2     :     0.006453  d :     0.083245
      dxz     :     0.014501
      dyz     :     0.005384
      dx2y2   :     0.022970
      dxy     :     0.033937
  1 S s       :     5.496436  s :     5.496436
      pz      :     3.605199  p :     9.949474
      px      :     3.357586
      py      :     2.986689
      dz2     :     0.016837  d :     0.142955
      dxz     :     0.013649
      dyz     :     0.030980
      dx2y2   :     0.018706
      dxy     :     0.062783
  2 C s       :     2.916615  s :     2.916615
      pz      :     1.084250  p :     3.178195
      px      :     1.056509
      py      :     1.037436
      dz2     :     0.006473  d :     0.089771
      dxz     :     0.018357
      dyz     :     0.005178
      dx2y2   :     0.025170
      dxy     :     0.034593
  3 C s       :     2.859073  s :     2.859073
      pz      :     1.048895  p :     3.133898
      px      :     1.057554
      py      :     1.027449
      dz2     :     0.007091  d :     0.093539
      dxz     :     0.009716
      dyz     :     0.011777
      dx2y2   :     0.035610
      dxy     :     0.029344
  4 C s       :     2.830305  s :     2.830305
      pz      :     0.988737  p :     3.037073
      px      :     1.022090
      py      :     1.026246
      dz2     :     0.010880  d :     0.153801
      dxz     :     0.033321
      dyz     :     0.017184
      dx2y2   :     0.048268
      dxy     :     0.044148
  5 N s       :     3.065851  s :     3.065851
      pz      :     1.598653  p :     3.926324
      px      :     1.178782
      py      :     1.148889
      dz2     :     0.003845  d :     0.055987
      dxz     :     0.009976
      dyz     :     0.007399
      dx2y2   :     0.016929
      dxy     :     0.017837
  6 C s       :     2.828322  s :     2.828322
      pz      :     1.068232  p :     3.015367
      px      :     1.048661
      py      :     0.898473
      dz2     :     0.018643  d :     0.121624
      dxz     :     0.023669
      dyz     :     0.026612
      dx2y2   :     0.033347
      dxy     :     0.019353
  7 C s       :     2.832251  s :     2.832251
      pz      :     1.066285  p :     3.150510
      px      :     1.026266
      py      :     1.057958
      dz2     :     0.014985  d :     0.073103
      dxz     :     0.021973
      dyz     :     0.005349
      dx2y2   :     0.019920
      dxy     :     0.010876
  8 H s       :     0.909178  s :     0.909178
      pz      :     0.023531  p :     0.079514
      px      :     0.014831
      py      :     0.041153
  9 H s       :     0.906414  s :     0.906414
      pz      :     0.018717  p :     0.075364
      px      :     0.012875
      py      :     0.043773
 10 H s       :     0.907950  s :     0.907950
      pz      :     0.017858  p :     0.071223
      px      :     0.033287
      py      :     0.020078
 11 H s       :     0.809243  s :     0.809243
      pz      :     0.051022  p :     0.124881
      px      :     0.048860
      py      :     0.024999
 12 H s       :     0.930789  s :     0.930789
      pz      :     0.032533  p :     0.065032
      px      :     0.019207
      py      :     0.013292
 13 H s       :     0.916814  s :     0.916814
      pz      :     0.030903  p :     0.064291
      px      :     0.021191
      py      :     0.012198
 14 H s       :     0.914220  s :     0.914220
      pz      :     0.029649  p :     0.066111
      px      :     0.021581
      py      :     0.014881
 15 H s       :     0.904366  s :     0.904366
      pz      :     0.012956  p :     0.066401
      px      :     0.013277
      py      :     0.040168
 16 H s       :     0.908955  s :     0.908955
      pz      :     0.032202  p :     0.066888
      px      :     0.019314
      py      :     0.015372


                      *****************************
                      * MAYER POPULATION ANALYSIS *
                      *****************************

  NA   - Mulliken gross atomic population
  ZA   - Total nuclear charge
  QA   - Mulliken gross atomic charge
  VA   - Mayer's total valence
  BVA  - Mayer's bonded valence
  FA   - Mayer's free valence

  ATOM       NA         ZA         QA         VA         BVA        FA
  0 C      6.2005     6.0000    -0.2005     3.7761     3.7761    -0.0000
  1 S     15.9200    16.0000     0.0800     2.4875     2.4875    -0.0000
  2 C      6.0799     6.0000    -0.0799     3.8176     3.8176    -0.0000
  3 C      5.9770     6.0000     0.0230     3.8803     3.8803     0.0000
  4 C      5.8785     6.0000     0.1215     4.0455     4.0455     0.0000
  5 N      7.1624     7.0000    -0.1624     3.1992     3.1992    -0.0000
  6 C      5.8948     6.0000     0.1052     4.0744     4.0744    -0.0000
  7 C      6.0077     6.0000    -0.0077     4.0259     4.0259     0.0000
  8 H      1.0085     1.0000    -0.0085     1.0040     1.0040    -0.0000
  9 H      0.9856     1.0000     0.0144     0.9922     0.9922    -0.0000
 10 H      1.0403     1.0000    -0.0403     0.9908     0.9908     0.0000
 11 H      0.8988     1.0000     0.1012     1.0000     1.0000    -0.0000
 12 H      1.0045     1.0000    -0.0045     0.9754     0.9754    -0.0000
 13 H      0.9900     1.0000     0.0100     0.9747     0.9747    -0.0000
 14 H      0.9899     1.0000     0.0101     0.9894     0.9894    -0.0000
 15 H      0.9799     1.0000     0.0201     0.9890     0.9890     0.0000
 16 H      0.9819     1.0000     0.0181     0.9947     0.9947     0.0000

  Mayer bond orders larger than 0.100000
B(  0-C ,  1-S ) :   1.0988 B(  0-C ,  4-C ) :   1.5126 B(  0-C ,  8-H ) :   0.9768 
B(  1-S ,  2-C ) :   1.1913 B(  2-C ,  3-C ) :   1.5590 B(  2-C ,  9-H ) :   0.9666 
B(  3-C ,  4-C ) :   1.2296 B(  3-C , 10-H ) :   0.9983 B(  4-C ,  5-N ) :   1.1594 
B(  5-N ,  6-C ) :   1.0217 B(  5-N , 11-H ) :   0.9288 B(  6-C ,  7-C ) :   1.1060 
B(  6-C , 12-H ) :   0.9389 B(  6-C , 13-H ) :   0.9406 B(  7-C , 14-H ) :   0.9676 
B(  7-C , 15-H ) :   0.9636 B(  7-C , 16-H ) :   0.9688 

-------
TIMINGS
-------

Total SCF time: 0 days 0 hours 0 min 41 sec 

Total time                  ....      41.217 sec
Sum of individual times     ....      40.962 sec  ( 99.4%)

Fock matrix formation       ....      39.101 sec  ( 94.9%)
  Split-RI-J                ....       4.102 sec  ( 10.5% of F)
  Chain of spheres X        ....      30.999 sec  ( 79.3% of F)
  COS-X 1 center corr.      ....       0.000 sec  (  0.0% of F)
  XC integration            ....       3.837 sec  (  9.8% of F)
    Basis function eval.    ....       1.501 sec  ( 39.1% of XC)
    Density eval.           ....       0.760 sec  ( 19.8% of XC)
    XC-Functional eval.     ....       0.308 sec  (  8.0% of XC)
    XC-Potential eval.      ....       1.132 sec  ( 29.5% of XC)
Diagonalization             ....       0.023 sec  (  0.1%)
Density matrix formation    ....       0.006 sec  (  0.0%)
Population analysis         ....       0.003 sec  (  0.0%)
Initial guess               ....       0.340 sec  (  0.8%)
Orbital Transformation      ....       0.000 sec  (  0.0%)
Orbital Orthonormalization  ....       0.000 sec  (  0.0%)
DIIS solution               ....       0.007 sec  (  0.0%)
SOSCF solution              ....       0.014 sec  (  0.0%)
Grid generation             ....       1.468 sec  (  3.6%)


-------------------------------------------------------------------------------
                          DFT DISPERSION CORRECTION                            
                                                                               
                              DFTD3 V3.1  Rev 1                                
                          USING Becke-Johnson damping                          
-------------------------------------------------------------------------------
Gaussians B3LYP functional is recognized, using regular B3LYP params
Active option DFTDOPT                   ...         4   

molecular C6(AA) [au] = 3498.101693 


            DFT-D V3
 parameters
 s6 scaling factor         :     1.0000 
 a1 scaling factor         :     0.3981 
 s8 scaling factor         :     1.9889 
 a2 scaling factor         :     4.4211 
 ad hoc parameters k1-k3   :    16.0000     1.3333    -4.0000 

 Edisp/kcal,au: -18.197787956026  -0.029000017955 
 E6   /kcal   :  -8.417146156 
 E8   /kcal   :  -9.780641800 
 % E8         :  53.746322486 

-------------------------   ----------------
Dispersion correction           -0.029000018
-------------------------   ----------------


-------------------------   --------------------
FINAL SINGLE POINT ENERGY      -686.693258050541
-------------------------   --------------------

------------------------------------------------------------------------------
                         ORCA SCF GRADIENT CALCULATION
------------------------------------------------------------------------------

Gradient of the Kohn-Sham DFT energy:
Kohn-Sham wavefunction type      ... RKS
Hartree-Fock exchange scaling    ...    0.200
Number of operators              ...    1
Number of atoms                  ...   17
Basis set dimensions             ...  161
Integral neglect threshold       ... 2.5e-11
Integral primitive cutoff        ... 2.5e-12

Nuclear repulsion gradient       ... done
One Electron Gradient            ... done
Pre-screening matrix             ... done
RI-J gradient                    ... done
COSX-gradient                    ... done
Exchange-correlation gradient    ... done
Dispersion correction            ... done

------------------
CARTESIAN GRADIENT
------------------

   1   C   :    0.010705186   -0.001456524   -0.000716609
   2   S   :    0.006587894    0.002161557   -0.000027960
   3   C   :    0.010507117    0.001114063    0.000987220
   4   C   :   -0.005252243   -0.000551979   -0.000183419
   5   C   :   -0.010494551   -0.001177620    0.002143449
   6   N   :   -0.002130111   -0.002892802   -0.000460451
   7   C   :   -0.008091792    0.004951313    0.000342059
   8   C   :    0.010176473    0.002161784    0.000993380
   9   H   :    0.002387593   -0.012111233    0.002163214
  10   H   :    0.001931228    0.012603902   -0.002152740
  11   H   :   -0.009458389    0.005961428   -0.001369759
  12   H   :   -0.003122437    0.001426632   -0.001741645
  13   H   :    0.004407071   -0.002377597   -0.002785952
  14   H   :    0.004338084   -0.003826708    0.003006332
  15   H   :   -0.006508326    0.001942638   -0.007064064
  16   H   :   -0.001324018   -0.009462066   -0.000452986
  17   H   :   -0.005664381    0.002880832    0.007426464

Difference to translation invariance:
           :   -0.0010056033    0.0013476195    0.0001065330

Norm of the cartesian gradient     ...    0.0381940929
RMS gradient                       ...    0.0053482428
MAX gradient                       ...    0.0126039018

-------
TIMINGS
-------

Total SCF gradient time            ...        9.317 sec

One electron gradient       ....       0.095 sec  (  1.0%)
Prescreening matrices       ....       0.073 sec  (  0.8%)
RI-J Coulomb gradient       ....       0.922 sec  (  9.9%)
COSX gradient               ....       4.411 sec  ( 47.3%)
XC gradient                 ....       3.455 sec  ( 37.1%)
------------------------------------------------------------------------------
                         ORCA GEOMETRY RELAXATION STEP
------------------------------------------------------------------------------

Reading the OPT-File                    .... done
Getting information on internals        .... done
Copying old internal coords+grads       .... done
Making the new internal coordinates     .... (new redundants).... done
Validating the new internal coordinates .... (new redundants).... done
Calculating the B-matrix                .... done
Calculating the G,G- and P matrices     .... done
Transforming gradient to internals      .... done
Projecting the internal gradient        .... done
Number of atoms                         ....  17
Number of internal coordinates          ....  80
Current Energy                          ....  -686.693258051 Eh
Current gradient norm                   ....     0.038194093 Eh/bohr
Maximum allowed component of the step   ....  0.300
Current trust radius                    ....  0.300
Evaluating the initial hessian          ....  (Almloef) done
Projecting the Hessian                  .... done
Forming the augmented Hessian           .... done
Diagonalizing the augmented Hessian     .... done
Last element of RFO vector              ....  0.993062634
Lowest eigenvalues of augmented Hessian:
 -0.004150328  0.011868908  0.016562201  0.017666707  0.022534653
Length of the computed step             ....  0.118408026
The final length of the internal step   ....  0.118408026
Converting the step to cartesian space:
 Initial RMS(Int)=    0.0132384198
Transforming coordinates:
 Iter   0:  RMS(Cart)=    0.0322441349 RMS(Int)=    0.0132768969
 Iter   1:  RMS(Cart)=    0.0003215272 RMS(Int)=    0.0001562787
 Iter   2:  RMS(Cart)=    0.0000063370 RMS(Int)=    0.0000036073
 Iter   3:  RMS(Cart)=    0.0000001610 RMS(Int)=    0.0000000855
 Iter   4:  RMS(Cart)=    0.0000000038 RMS(Int)=    0.0000000023
done
Storing new coordinates                 .... done

                                .--------------------.
          ----------------------|Geometry convergence|-------------------------
          Item                value                   Tolerance       Converged
          ---------------------------------------------------------------------
          RMS gradient        0.0048531332            0.0001000000      NO
          MAX gradient        0.0176225097            0.0003000000      NO
          RMS step            0.0132384198            0.0020000000      NO
          MAX step            0.0419324548            0.0040000000      NO
          ........................................................
          Max(Bonds)      0.0175      Max(Angles)    0.88
          Max(Dihed)        2.40      Max(Improp)    0.00
          ---------------------------------------------------------------------

The optimization has not yet converged - more geometry cycles are needed


    ---------------------------------------------------------------------------
                         Redundant Internal Coordinates
                            (Angstroem and degrees)

        Definition                    Value    dE/dq     Step     New-Value
    ----------------------------------------------------------------------------
     1. B(S   1,C   0)                1.7263 -0.008649  0.0089    1.7353   
     2. B(C   2,S   1)                1.7176 -0.006266  0.0062    1.7238   
     3. B(C   3,C   2)                1.3533 -0.017016  0.0126    1.3659   
     4. B(C   4,C   0)                1.3653 -0.017623  0.0137    1.3790   
     5. B(C   4,C   3)                1.4266 -0.013043  0.0129    1.4395   
     6. B(N   5,C   4)                1.3810 -0.009108  0.0083    1.3892   
     7. B(C   6,N   5)                1.4463 -0.004492  0.0052    1.4515   
     8. B(C   7,C   6)                1.5210 -0.003799  0.0052    1.5261   
     9. B(H   8,C   0)                1.0700 -0.012400  0.0168    1.0868   
    10. B(H   9,C   2)                1.0716 -0.012872  0.0175    1.0891   
    11. B(H  10,C   3)                1.0759 -0.011259  0.0155    1.0914   
    12. B(H  11,N   5)                1.0106 -0.003786  0.0046    1.0152   
    13. B(H  12,C   6)                1.1027 -0.005151  0.0078    1.1105   
    14. B(H  13,C   6)                1.0948 -0.005989  0.0089    1.1036   
    15. B(H  14,C   7)                1.0885 -0.009572  0.0138    1.1023   
    16. B(H  15,C   7)                1.0864 -0.009515  0.0136    1.1001   
    17. B(H  16,C   7)                1.0870 -0.009555  0.0137    1.1007   
    18. A(C   4,C   0,H   8)          129.09  0.001087   -0.18    128.91   
    19. A(S   1,C   0,C   4)          112.12  0.001498   -0.21    111.90   
    20. A(S   1,C   0,H   8)          118.79 -0.002585    0.39    119.18   
    21. A(C   0,S   1,C   2)           91.08 -0.004851    0.49     91.57   
    22. A(C   3,C   2,H   9)          128.36  0.000417   -0.08    128.28   
    23. A(S   1,C   2,H   9)          119.44 -0.001893    0.28    119.72   
    24. A(S   1,C   2,C   3)          112.20  0.001476   -0.20    112.00   
    25. A(C   2,C   3,H  10)          123.98  0.000196   -0.07    123.91   
    26. A(C   2,C   3,C   4)          112.93  0.000197    0.06    112.98   
    27. A(C   4,C   3,H  10)          123.09 -0.000392    0.02    123.11   
    28. A(C   3,C   4,N   5)          121.98 -0.001334    0.15    122.13   
    29. A(C   0,C   4,N   5)          126.29 -0.000365    0.02    126.30   
    30. A(C   0,C   4,C   3)          111.67  0.001681   -0.14    111.54   
    31. A(C   6,N   5,H  11)          113.72  0.000519    0.15    113.87   
    32. A(C   4,N   5,H  11)          113.40  0.000890    0.10    113.50   
    33. A(C   4,N   5,C   6)          119.72 -0.002320    0.50    120.23   
    34. A(H  12,C   6,H  13)          107.78  0.001425   -0.88    106.90   
    35. A(C   7,C   6,H  13)          109.77  0.000918   -0.19    109.58   
    36. A(N   5,C   6,H  13)          107.70 -0.000572    0.25    107.95   
    37. A(C   7,C   6,H  12)          109.85 -0.000506    0.19    110.04   
    38. A(N   5,C   6,H  12)          111.56  0.000536    0.07    111.64   
    39. A(N   5,C   6,C   7)          110.11 -0.001709    0.53    110.64   
    40. A(H  15,C   7,H  16)          108.79  0.001134   -0.10    108.69   
    41. A(H  14,C   7,H  16)          108.66  0.001429   -0.33    108.33   
    42. A(C   6,C   7,H  16)          110.16 -0.000919    0.19    110.35   
    43. A(H  14,C   7,H  15)          108.42  0.001861   -0.37    108.04   
    44. A(C   6,C   7,H  15)          110.14 -0.002085    0.41    110.55   
    45. A(C   6,C   7,H  14)          110.61 -0.001293    0.19    110.80   
    46. D(C   2,S   1,C   0,H   8)    179.66 -0.000051    0.17    179.84   
    47. D(C   2,S   1,C   0,C   4)      0.62 -0.000076    0.19      0.80   
    48. D(C   3,C   2,S   1,C   0)     -0.38 -0.000014   -0.03     -0.41   
    49. D(H   9,C   2,S   1,C   0)    179.67  0.000176   -0.35    179.32   
    50. D(H  10,C   3,C   2,S   1)   -179.69  0.000098   -0.13   -179.83   
    51. D(H  10,C   3,C   2,H   9)      0.25 -0.000115    0.22      0.47   
    52. D(C   4,C   3,C   2,S   1)      0.06  0.000118   -0.13     -0.06   
    53. D(C   4,C   3,C   2,H   9)   -179.99 -0.000095    0.23   -179.76   
    54. D(C   0,C   4,C   3,H  10)   -179.84 -0.000131    0.27   -179.56   
    55. D(N   5,C   4,C   0,H   8)     -2.53 -0.000300    0.50     -2.03   
    56. D(N   5,C   4,C   0,S   1)    176.39 -0.000315    0.49    176.88   
    57. D(C   0,C   4,C   3,C   2)      0.40 -0.000152    0.27      0.67   
    58. D(C   3,C   4,C   0,H   8)   -179.61  0.000134   -0.28   -179.89   
    59. D(N   5,C   4,C   3,C   2)   -176.82  0.000233   -0.47   -177.29   
    60. D(C   3,C   4,C   0,S   1)     -0.69  0.000119   -0.28     -0.97   
    61. D(N   5,C   4,C   3,H  10)      2.94  0.000254   -0.46      2.48   
    62. D(H  11,N   5,C   4,C   3)    -27.44  0.000133   -0.51    -27.95   
    63. D(H  11,N   5,C   4,C   0)    155.76  0.000525   -1.35    154.41   
    64. D(C   6,N   5,C   4,C   3)   -166.19  0.001052   -1.56   -167.75   
    65. D(C   6,N   5,C   4,C   0)     17.02  0.001443   -2.40     14.61   
    66. D(H  13,C   6,N   5,H  11)    157.99 -0.000228   -0.19    157.80   
    67. D(H  13,C   6,N   5,C   4)    -63.39 -0.001013    0.84    -62.55   
    68. D(H  12,C   6,N   5,H  11)    -83.92  0.001462   -1.07    -84.99   
    69. D(H  12,C   6,N   5,C   4)     54.70  0.000677   -0.04     54.66   
    70. D(C   7,C   6,N   5,H  11)     38.32 -0.000010   -0.41     37.91   
    71. D(C   7,C   6,N   5,C   4)    176.94 -0.000794    0.62    177.56   
    72. D(H  15,C   7,C   6,N   5)    177.08 -0.000298   -0.05    177.03   
    73. D(H  14,C   7,C   6,H  13)    178.51  0.001027   -0.64    177.87   
    74. D(H  14,C   7,C   6,H  12)     60.17 -0.000965    0.44     60.61   
    75. D(H  15,C   7,C   6,H  12)    -59.67 -0.001113    0.52    -59.15   
    76. D(H  14,C   7,C   6,N   5)    -63.08 -0.000150   -0.13    -63.22   
    77. D(H  16,C   7,C   6,H  13)    -61.34  0.001382   -0.81    -62.15   
    78. D(H  16,C   7,C   6,H  12)   -179.68 -0.000610    0.27   -179.42   
    79. D(H  16,C   7,C   6,N   5)     57.07  0.000205   -0.31     56.76   
    80. D(H  15,C   7,C   6,H  13)     58.68  0.000879   -0.56     58.12   
    ----------------------------------------------------------------------------

         *************************************************************
         *                GEOMETRY OPTIMIZATION CYCLE   2            *
         *************************************************************
---------------------------------
CARTESIAN COORDINATES (ANGSTROEM)
---------------------------------
  C     -0.089782    1.170834   -0.177681
  S     -1.230823   -0.131341   -0.061196
  C      0.030489   -1.275728    0.205017
  C      1.263996   -0.689100    0.195315
  C      1.209303    0.730879   -0.034617
  N      2.356656    1.507448   -0.136967
  C      2.264220    2.955590   -0.102502
  C      3.652812    3.584999   -0.170735
  H     -0.452828    2.178709   -0.360727
  H     -0.216368   -2.325225    0.359023
  H      2.198423   -1.233727    0.341749
  H      3.145779    1.133786    0.381068
  H      1.729861    3.310271    0.804119
  H      1.668366    3.279156   -0.973278
  H      4.253182    3.305084    0.710355
  H      3.578588    4.682240   -0.197857
  H      4.183277    3.244885   -1.073276

----------------------------
CARTESIAN COORDINATES (A.U.)
----------------------------
  NO LB      ZA    FRAG     MASS         X           Y           Z
   0 C     6.0000    0    12.011   -0.169663    2.212555   -0.335768
   1 S    16.0000    0    32.060   -2.325918   -0.248199   -0.115643
   2 C     6.0000    0    12.011    0.057615   -2.410777    0.387426
   3 C     6.0000    0    12.011    2.388607   -1.302211    0.369091
   4 C     6.0000    0    12.011    2.285252    1.381160   -0.065417
   5 N     7.0000    0    14.007    4.453434    2.848663   -0.258830
   6 C     6.0000    0    12.011    4.278756    5.585256   -0.193700
   7 C     6.0000    0    12.011    6.902813    6.774665   -0.322643
   8 H     1.0000    0     1.008   -0.855722    4.117164   -0.681676
   9 H     1.0000    0     1.008   -0.408876   -4.394038    0.678456
  10 H     1.0000    0     1.008    4.154417   -2.331406    0.645812
  11 H     1.0000    0     1.008    5.944660    2.142546    0.720114
  12 H     1.0000    0     1.008    3.268963    6.255506    1.519564
  13 H     1.0000    0     1.008    3.152755    6.196707   -1.839229
  14 H     1.0000    0     1.008    8.037349    6.245703    1.342376
  15 H     1.0000    0     1.008    6.762552    8.848152   -0.373895
  16 H     1.0000    0     1.008    7.905247    6.131945   -2.028197

--------------------------------
INTERNAL COORDINATES (ANGSTROEM)
--------------------------------
 C      0   0   0     0.000000000000     0.00000000     0.00000000
 S      1   0   0     1.735281695673     0.00000000     0.00000000
 C      2   1   0     1.723774113020    91.57077164     0.00000000
 C      3   2   1     1.365931043324   111.99716227   359.58556668
 C      1   2   3     1.379003305436   111.90517927     0.80362128
 N      5   1   2     1.389227387054   126.30228198   176.88248543
 C      6   5   1     1.451498739932   120.22231471    14.61287133
 C      7   6   5     1.526104999864   110.63836302   177.56384020
 H      1   2   3     1.086794273508   119.18085418   179.83892217
 H      3   2   1     1.089081516230   119.71847356   179.31674272
 H      4   3   2     1.091427405822   123.90987568   180.17389786
 H      6   5   1     1.015232610684   113.49187000   154.40794555
 H      7   6   5     1.110540164942   111.63334340    54.66173670
 H      7   6   5     1.103625376620   107.94805332   297.45498624
 H      8   7   6     1.102323348040   110.79946365   296.78290956
 H      8   7   6     1.100083879448   110.55302501   177.02960866
 H      8   7   6     1.100749521595   110.34764040    56.75798491

---------------------------
INTERNAL COORDINATES (A.U.)
---------------------------
 C      0   0   0     0.000000000000     0.00000000     0.00000000
 S      1   0   0     3.279207170028     0.00000000     0.00000000
 C      2   1   0     3.257460990351    91.57077164     0.00000000
 C      3   2   1     2.581235589703   111.99716227   359.58556668
 C      1   2   3     2.605938585046   111.90517927     0.80362128
 N      5   1   2     2.625259299275   126.30228198   176.88248543
 C      6   5   1     2.742935102203   120.22231471    14.61287133
 C      7   6   5     2.883920501352   110.63836302   177.56384020
[...]
  84   0.0000       0.794969        21.6322 
  85   0.0000       0.797990        21.7144 
  86   0.0000       0.843978        22.9658 
  87   0.0000       0.848362        23.0851 
  88   0.0000       0.884342        24.0642 
  89   0.0000       0.912804        24.8387 
  90   0.0000       0.962286        26.1851 
  91   0.0000       1.011225        27.5168 
  92   0.0000       1.061675        28.8896 
  93   0.0000       1.080304        29.3966 
  94   0.0000       1.141047        31.0495 
  95   0.0000       1.152972        31.3740 
  96   0.0000       1.180019        32.1100 
  97   0.0000       1.190388        32.3921 
  98   0.0000       1.212813        33.0023 
  99   0.0000       1.249587        34.0030 
 100   0.0000       1.278967        34.8024 
 101   0.0000       1.293442        35.1963 
 102   0.0000       1.340765        36.4841 
 103   0.0000       1.359474        36.9932 
 104   0.0000       1.474644        40.1271 
 105   0.0000       1.518955        41.3329 
 106   0.0000       1.529799        41.6279 
 107   0.0000       1.554765        42.3073 
 108   0.0000       1.584213        43.1086 
 109   0.0000       1.663847        45.2756 
 110   0.0000       1.687582        45.9214 
 111   0.0000       1.725276        46.9471 
 112   0.0000       1.742939        47.4278 
 113   0.0000       1.749791        47.6142 
 114   0.0000       1.763549        47.9886 
 115   0.0000       1.776155        48.3316 
 116   0.0000       1.791366        48.7455 
 117   0.0000       1.800045        48.9817 
 118   0.0000       1.814389        49.3720 
 119   0.0000       1.826431        49.6997 
 120   0.0000       1.839120        50.0450 
 121   0.0000       1.871831        50.9351 
 122   0.0000       1.880504        51.1711 
 123   0.0000       1.915800        52.1316 
 124   0.0000       1.949843        53.0579 
 125   0.0000       1.967829        53.5473 
 126   0.0000       2.003253        54.5113 
 127   0.0000       2.005175        54.5636 
 128   0.0000       2.039633        55.5012 
 129   0.0000       2.046204        55.6800 
 130   0.0000       2.083188        56.6864 
 131   0.0000       2.119087        57.6633 
 132   0.0000       2.152265        58.5661 
 133   0.0000       2.171574        59.0915 
 134   0.0000       2.180065        59.3226 
 135   0.0000       2.237865        60.8954 
 136   0.0000       2.289828        62.3094 
 137   0.0000       2.325702        63.2856 
 138   0.0000       2.369772        64.4848 
 139   0.0000       2.387471        64.9664 
 140   0.0000       2.393964        65.1431 
 141   0.0000       2.424123        65.9637 
 142   0.0000       2.453300        66.7577 
 143   0.0000       2.515048        68.4379 
 144   0.0000       2.518480        68.5313 
 145   0.0000       2.578625        70.1679 
 146   0.0000       2.622967        71.3746 
 147   0.0000       2.678199        72.8775 
 148   0.0000       2.708996        73.7155 
 149   0.0000       2.736362        74.4602 
 150   0.0000       2.787984        75.8649 
 151   0.0000       2.830397        77.0190 
 152   0.0000       2.854987        77.6881 
 153   0.0000       2.901197        78.9456 
 154   0.0000       2.966663        80.7270 
 155   0.0000       2.985843        81.2489 
 156   0.0000       3.042785        82.7984 
 157   0.0000       3.074472        83.6606 
 158   0.0000       3.152177        85.7751 
 159   0.0000       3.377784        91.9142 
 160   0.0000       3.466758        94.3353 

                    ********************************
                    * MULLIKEN POPULATION ANALYSIS *
                    ********************************

-----------------------
MULLIKEN ATOMIC CHARGES
-----------------------
   0 C :   -0.203631
   1 S :    0.079723
   2 C :   -0.093992
   3 C :    0.018456
   4 C :    0.115650
   5 N :   -0.175669
   6 C :    0.103205
   7 C :   -0.019391
   8 H :    0.003517
   9 H :    0.026382
  10 H :   -0.028881
  11 H :    0.106672
  12 H :   -0.001542
  13 H :    0.012641
  14 H :    0.014144
  15 H :    0.022280
  16 H :    0.020437
Sum of atomic charges:   -0.0000000

--------------------------------
MULLIKEN REDUCED ORBITAL CHARGES
--------------------------------
  0 C s       :     3.226288  s :     3.226288
      pz      :     1.221705  p :     2.944762
      px      :     0.922293
      py      :     0.800765
      dz2     :     0.003214  d :     0.032581
      dxz     :     0.006333
      dyz     :     0.002844
      dx2y2   :     0.008107
      dxy     :     0.012084
  1 S s       :     5.840991  s :     5.840991
      pz      :     3.661788  p :     9.965090
      px      :     3.329804
      py      :     2.973499
      dz2     :     0.012658  d :     0.114196
      dxz     :     0.012305
      dyz     :     0.025355
      dx2y2   :     0.016496
      dxy     :     0.047383
  2 C s       :     3.166955  s :     3.166955
      pz      :     1.092200  p :     2.890804
      px      :     0.920403
      py      :     0.878201
      dz2     :     0.003182  d :     0.036232
      dxz     :     0.008028
      dyz     :     0.002958
      dx2y2   :     0.009191
      dxy     :     0.012873
  3 C s       :     3.188960  s :     3.188960
      pz      :     1.061053  p :     2.758861
      px      :     0.787726
      py      :     0.910083
      dz2     :     0.002770  d :     0.033723
      dxz     :     0.004540
      dyz     :     0.005256
      dx2y2   :     0.011330
      dxy     :     0.009827
  4 C s       :     2.974949  s :     2.974949
      pz      :     0.999787  p :     2.847680
      px      :     0.915526
      py      :     0.932367
      dz2     :     0.004621  d :     0.061721
      dxz     :     0.014913
      dyz     :     0.008189
      dx2y2   :     0.017517
      dxy     :     0.016481
  5 N s       :     3.363235  s :     3.363235
      pz      :     1.583258  p :     3.790155
      px      :     1.130395
      py      :     1.076502
      dz2     :     0.002129  d :     0.022279
      dxz     :     0.004448
      dyz     :     0.003699
      dx2y2   :     0.005792
      dxy     :     0.006211
  6 C s       :     2.993921  s :     2.993921
      pz      :     1.014016  p :     2.850905
      px      :     1.012399
      py      :     0.824491
      dz2     :     0.007003  d :     0.051968
      dxz     :     0.009753
      dyz     :     0.011800
      dx2y2   :     0.014414
      dxy     :     0.008998
  7 C s       :     3.001598  s :     3.001598
      pz      :     1.008862  p :     2.989603
      px      :     0.976581
      py      :     1.004160
      dz2     :     0.005008  d :     0.028190
      dxz     :     0.009308
      dyz     :     0.002517
      dx2y2   :     0.007427
      dxy     :     0.003930
  8 H s       :     0.972516  s :     0.972516
      pz      :     0.006603  p :     0.023967
      px      :     0.004257
      py      :     0.013107
  9 H s       :     0.950218  s :     0.950218
      pz      :     0.005399  p :     0.023400
      px      :     0.003585
      py      :     0.014416
 10 H s       :     1.005460  s :     1.005460
      pz      :     0.005628  p :     0.023421
      px      :     0.011448
      py      :     0.006345
 11 H s       :     0.848852  s :     0.848852
      pz      :     0.016760  p :     0.044476
      px      :     0.018389
      py      :     0.009327
 12 H s       :     0.980846  s :     0.980846
      pz      :     0.010663  p :     0.020697
      px      :     0.006010
      py      :     0.004023
 13 H s       :     0.966142  s :     0.966142
      pz      :     0.010930  p :     0.021216
      px      :     0.007186
      py      :     0.003100
 14 H s       :     0.962832  s :     0.962832
      pz      :     0.010552  p :     0.023024
      px      :     0.007352
      py      :     0.005120
 15 H s       :     0.954791  s :     0.954791
      pz      :     0.005168  p :     0.022929
      px      :     0.004076
      py      :     0.013684
 16 H s       :     0.956693  s :     0.956693
      pz      :     0.010698  p :     0.022871
      px      :     0.006041
      py      :     0.006132


                     *******************************
                     * LOEWDIN POPULATION ANALYSIS *
                     *******************************

----------------------
LOEWDIN ATOMIC CHARGES
----------------------
   0 C :   -0.266016
   1 S :    0.405118
   2 C :   -0.189176
   3 C :   -0.088930
   4 C :   -0.017345
   5 N :   -0.050562
   6 C :    0.031480
   7 C :   -0.060921
   8 H :    0.016322
   9 H :    0.023780
  10 H :    0.023992
  11 H :    0.069048
  12 H :    0.004603
  13 H :    0.021002
  14 H :    0.021381
  15 H :    0.030636
  16 H :    0.025586

-------------------------------
LOEWDIN REDUCED ORBITAL CHARGES
-------------------------------
  0 C s       :     2.924553  s :     2.924553
      pz      :     1.210723  p :     3.262358
      px      :     1.033815
      py      :     1.017820
      dz2     :     0.006338  d :     0.079105
      dxz     :     0.013239
      dyz     :     0.004970
      dx2y2   :     0.022391
      dxy     :     0.032167
  1 S s       :     5.505110  s :     5.505110
      pz      :     3.617073  p :     9.950141
      px      :     3.358217
      py      :     2.974851
      dz2     :     0.015777  d :     0.139630
      dxz     :     0.012416
      dyz     :     0.031513
      dx2y2   :     0.017713
      dxy     :     0.062213
  2 C s       :     2.928565  s :     2.928565
      pz      :     1.086484  p :     3.174760
      px      :     1.053862
      py      :     1.034414
      dz2     :     0.006464  d :     0.085850
      dxz     :     0.017095
      dyz     :     0.004839
      dx2y2   :     0.024175
      dxy     :     0.033277
  3 C s       :     2.870504  s :     2.870504
      pz      :     1.051500  p :     3.129378
      px      :     1.054233
      py      :     1.023646
      dz2     :     0.006597  d :     0.089048
      dxz     :     0.008947
      dyz     :     0.011040
      dx2y2   :     0.034338
      dxy     :     0.028126
  4 C s       :     2.838592  s :     2.838592
      pz      :     0.990876  p :     3.030323
      px      :     1.016390
      py      :     1.023058
      dz2     :     0.010268  d :     0.148430
      dxz     :     0.030689
      dyz     :     0.016608
      dx2y2   :     0.048051
      dxy     :     0.042815
  5 N s       :     3.061761  s :     3.061761
      pz      :     1.574912  p :     3.934425
      px      :     1.200753
      py      :     1.158760
      dz2     :     0.004144  d :     0.054376
      dxz     :     0.009652
      dyz     :     0.006968
      dx2y2   :     0.016555
      dxy     :     0.017056
  6 C s       :     2.832712  s :     2.832712
      pz      :     1.068632  p :     3.015061
      px      :     1.047547
      py      :     0.898882
      dz2     :     0.016909  d :     0.120747
      dxz     :     0.023084
      dyz     :     0.027143
      dx2y2   :     0.033545
      dxy     :     0.020066
  7 C s       :     2.844401  s :     2.844401
      pz      :     1.064095  p :     3.145566
      px      :     1.025509
      py      :     1.055963
      dz2     :     0.013078  d :     0.070954
      dxz     :     0.022003
      dyz     :     0.006171
      dx2y2   :     0.019192
      dxy     :     0.010510
  8 H s       :     0.907009  s :     0.907009
      pz      :     0.021877  p :     0.076669
      px      :     0.013660
      py      :     0.041132
  9 H s       :     0.903760  s :     0.903760
      pz      :     0.017086  p :     0.072459
      px      :     0.011855
      py      :     0.043518
 10 H s       :     0.907282  s :     0.907282
      pz      :     0.016849  p :     0.068725
      px      :     0.032512
      py      :     0.019365
 11 H s       :     0.806935  s :     0.806935
      pz      :     0.051962  p :     0.124017
      px      :     0.047795
      py      :     0.024259
 12 H s       :     0.931887  s :     0.931887
      pz      :     0.030192  p :     0.063510
      px      :     0.018493
      py      :     0.014825
 13 H s       :     0.916049  s :     0.916049
      pz      :     0.030892  p :     0.062948
      px      :     0.021525
      py      :     0.010531
 14 H s       :     0.914884  s :     0.914884
      pz      :     0.029419  p :     0.063735
      px      :     0.021416
      py      :     0.012900
 15 H s       :     0.905264  s :     0.905264
      pz      :     0.012749  p :     0.064100
      px      :     0.012247
      py      :     0.039104
 16 H s       :     0.909783  s :     0.909783
      pz      :     0.029799  p :     0.064631
      px      :     0.018334
      py      :     0.016498


                      *****************************
                      * MAYER POPULATION ANALYSIS *
                      *****************************

  NA   - Mulliken gross atomic population
  ZA   - Total nuclear charge
  QA   - Mulliken gross atomic charge
  VA   - Mayer's total valence
  BVA  - Mayer's bonded valence
  FA   - Mayer's free valence

  ATOM       NA         ZA         QA         VA         BVA        FA
  0 C      6.2036     6.0000    -0.2036     3.7727     3.7727     0.0000
  1 S     15.9203    16.0000     0.0797     2.4843     2.4843    -0.0000
  2 C      6.0940     6.0000    -0.0940     3.8201     3.8201    -0.0000
  3 C      5.9815     6.0000     0.0185     3.8822     3.8822    -0.0000
  4 C      5.8843     6.0000     0.1157     4.0375     4.0375    -0.0000
  5 N      7.1757     7.0000    -0.1757     3.2015     3.2015     0.0000
  6 C      5.8968     6.0000     0.1032     4.0645     4.0645    -0.0000
  7 C      6.0194     6.0000    -0.0194     4.0216     4.0216    -0.0000
  8 H      0.9965     1.0000     0.0035     1.0038     1.0038    -0.0000
  9 H      0.9736     1.0000     0.0264     0.9917     0.9917     0.0000
 10 H      1.0289     1.0000    -0.0289     0.9912     0.9912    -0.0000
 11 H      0.8933     1.0000     0.1067     0.9977     0.9977    -0.0000
 12 H      1.0015     1.0000    -0.0015     0.9717     0.9717     0.0000
 13 H      0.9874     1.0000     0.0126     0.9780     0.9780     0.0000
 14 H      0.9859     1.0000     0.0141     0.9865     0.9865    -0.0000
 15 H      0.9777     1.0000     0.0223     0.9876     0.9876    -0.0000
 16 H      0.9796     1.0000     0.0204     0.9947     0.9947    -0.0000

  Mayer bond orders larger than 0.100000
B(  0-C ,  1-S ) :   1.0966 B(  0-C ,  4-C ) :   1.5063 B(  0-C ,  8-H ) :   0.9722 
B(  1-S ,  2-C ) :   1.1879 B(  2-C ,  3-C ) :   1.5602 B(  2-C ,  9-H ) :   0.9642 
B(  3-C ,  4-C ) :   1.2321 B(  3-C , 10-H ) :   0.9913 B(  4-C ,  5-N ) :   1.1540 
B(  5-N ,  6-C ) :   1.0181 B(  5-N , 11-H ) :   0.9301 B(  6-C ,  7-C ) :   1.1040 
B(  6-C , 12-H ) :   0.9386 B(  6-C , 13-H ) :   0.9398 B(  7-C , 14-H ) :   0.9685 
B(  7-C , 15-H ) :   0.9636 B(  7-C , 16-H ) :   0.9683 

-------
TIMINGS
-------

Total SCF time: 0 days 0 hours 0 min 23 sec 

Total time                  ....      23.807 sec
Sum of individual times     ....      23.692 sec  ( 99.5%)

Fock matrix formation       ....      22.207 sec  ( 93.3%)
  Split-RI-J                ....       2.093 sec  (  9.4% of F)
  Chain of spheres X        ....      17.857 sec  ( 80.4% of F)
  COS-X 1 center corr.      ....       0.000 sec  (  0.0% of F)
  XC integration            ....       2.216 sec  ( 10.0% of F)
    Basis function eval.    ....       0.903 sec  ( 40.7% of XC)
    Density eval.           ....       0.443 sec  ( 20.0% of XC)
    XC-Functional eval.     ....       0.187 sec  (  8.4% of XC)
    XC-Potential eval.      ....       0.598 sec  ( 27.0% of XC)
Diagonalization             ....       0.003 sec  (  0.0%)
Density matrix formation    ....       0.003 sec  (  0.0%)
Population analysis         ....       0.003 sec  (  0.0%)
Initial guess               ....       0.004 sec  (  0.0%)
Orbital Transformation      ....       0.000 sec  (  0.0%)
Orbital Orthonormalization  ....       0.003 sec  (  0.0%)
DIIS solution               ....       0.001 sec  (  0.0%)
SOSCF solution              ....       0.013 sec  (  0.1%)
Grid generation             ....       1.458 sec  (  6.1%)


-------------------------------------------------------------------------------
                          DFT DISPERSION CORRECTION                            
                                                                               
                              DFTD3 V3.1  Rev 1                                
                          USING Becke-Johnson damping                          
-------------------------------------------------------------------------------
Gaussians B3LYP functional is recognized, using regular B3LYP params
Active option DFTDOPT                   ...         4   

molecular C6(AA) [au] = 3512.110343 


            DFT-D V3
 parameters
 s6 scaling factor         :     1.0000 
 a1 scaling factor         :     0.3981 
 s8 scaling factor         :     1.9889 
 a2 scaling factor         :     4.4211 
 ad hoc parameters k1-k3   :    16.0000     1.3333    -4.0000 

 Edisp/kcal,au: -18.098077529650  -0.028841119293 
 E6   /kcal   :  -8.364591998 
 E8   /kcal   :  -9.733485532 
 % E8         :  53.781875539 

-------------------------   ----------------
Dispersion correction           -0.028841119
-------------------------   ----------------


-------------------------   --------------------
FINAL SINGLE POINT ENERGY      -686.695413471127
-------------------------   --------------------

                                *** OPTIMIZATION RUN DONE ***

                            ***************************************
                            *     ORCA property calculations      *
                            ***************************************

                                    ---------------------
                                    Active property flags
                                    ---------------------
   (+) Dipole Moment


------------------------------------------------------------------------------
                       ORCA ELECTRIC PROPERTIES CALCULATION
------------------------------------------------------------------------------

Dipole Moment Calculation                       ... on
Quadrupole Moment Calculation                   ... off
Polarizability Calculation                      ... off
GBWName                                         ... 518.gbw
Electron density file                           ... 518.scfp
The origin for moment calculation is the CENTER OF MASS  = ( 1.692561,  1.667226 -0.077622)

-------------
DIPOLE MOMENT
-------------
                                X             Y             Z
Electronic contribution:    -10.67846      -8.79500      -0.02436
Nuclear contribution   :     11.35218       9.08284       0.26475
                        -----------------------------------------
Total Dipole Moment    :      0.67372       0.28784       0.24039
                        -----------------------------------------
Magnitude (a.u.)       :      0.77107
Magnitude (Debye)      :      1.95989



--------------------
Rotational spectrum 
--------------------
 
Rotational constants in cm-1:     0.178374     0.028669     0.024978 
Rotational constants in MHz :  5347.506430   859.469147   748.830457 

 Dipole components along the rotational axes: 
x,y,z [a.u.] :     0.684186    -0.285256     0.212279 
x,y,z [Debye]:     1.739062    -0.725062     0.539572 

 

Timings for individual modules:

Sum of individual times         ...      396.809 sec (=   6.613 min)
GTO integral calculation        ...        2.270 sec (=   0.038 min)   0.6 %
SCF iterations                  ...      310.603 sec (=   5.177 min)  78.3 %
SCF Gradient evaluation         ...       83.348 sec (=   1.389 min)  21.0 %
Geometry relaxation             ...        0.589 sec (=   0.010 min)   0.1 %
                             ****ORCA TERMINATED NORMALLY****
TOTAL RUN TIME: 0 days 0 hours 6 minutes 37 seconds 764 msec
