
                                 *****************
                                 * O   R   C   A *
                                 *****************

           --- An Ab Initio, DFT and Semiempirical electronic structure package ---

                  #######################################################
                  #                        -***-                        #
                  #          Department of theory and spectroscopy      #
                  #               Directorship: Frank Neese             #
                  #        Max Planck Institute fuer Kohlenforschung    #
                  #                Kaiser Wilhelm Platz 1               #
                  #                 D-45470 Muelheim/Ruhr               #
                  #                      Germany                        #
                  #                                                     #
                  #                  All rights reserved                #
                  #                        -***-                        #
                  #######################################################


                         Program Version 4.2.0 -  RELEASE  -


 With contributions from (in alphabetic order):
   Daniel Aravena         : Magnetic Suceptibility
   Michael Atanasov       : Ab Initio Ligand Field Theory (pilot matlab implementation)
   Alexander A. Auer      : GIAO ZORA, VPT2
   Ute Becker             : Parallelization
   Giovanni Bistoni       : ED, misc. LED, open-shell LED, HFLED
   Martin Brehm           : Molecular dynamics
   Dmytro Bykov           : SCF Hessian
   Vijay G. Chilkuri      : MRCI spin determinant printing, contributions to CSF-ICE
   Dipayan Datta          : RHF DLPNO-CCSD density
   Achintya Kumar Dutta   : EOM-CC, STEOM-CC
   Dmitry Ganyushin       : Spin-Orbit,Spin-Spin,Magnetic field MRCI
   Miquel Garcia          : C-PCM Hessian, Gaussian charge scheme
   Yang Guo               : DLPNO-NEVPT2, CIM, IAO-localization
   Andreas Hansen         : Spin unrestricted coupled pair/coupled cluster methods
   Benjamin Helmich-Paris : CASSCF linear response (MC-RPA)
   Lee Huntington         : MR-EOM, pCC
   Robert Izsak           : Overlap fitted RIJCOSX, COSX-SCS-MP3, EOM
   Christian Kollmar      : KDIIS, OOCD, Brueckner-CCSD(T), CCSD density
   Simone Kossmann        : Meta GGA functionals, TD-DFT gradient, OOMP2, MP2 Hessian
   Martin Krupicka        : AUTO-CI
   Lucas Lang             : DCDCAS
   Dagmar Lenk            : GEPOL surface, SMD
   Dimitrios Liakos       : Extrapolation schemes; Compound Job, initial MDCI parallelization
   Dimitrios Manganas     : Further ROCIS development; embedding schemes
   Dimitrios Pantazis     : SARC Basis sets
   Taras Petrenko         : DFT Hessian,TD-DFT gradient, ASA, ECA, R-Raman, ABS, FL, XAS/XES, NRVS
   Peter Pinski           : DLPNO-MP2, DLPNO-MP2 Gradient
   Christoph Reimann      : Effective Core Potentials
   Marius Retegan         : Local ZFS, SOC
   Christoph Riplinger    : Optimizer, TS searches, QM/MM, DLPNO-CCSD(T), (RO)-DLPNO pert. Triples
   Tobias Risthaus        : Range-separated hybrids, TD-DFT gradient, RPA, STAB
   Michael Roemelt        : Original ROCIS implementation
   Masaaki Saitow         : Open-shell DLPNO-CCSD energy and density
   Barbara Sandhoefer     : DKH picture change effects
   Avijit Sen             : IP-ROCIS
   Kantharuban Sivalingam : CASSCF convergence, NEVPT2, FIC-MRCI
   Bernardo de Souza      : ESD, SOC TD-DFT
   Georgi Stoychev        : AutoAux, RI-MP2 NMR
   Willem Van den Heuvel  : Paramagnetic NMR
   Boris Wezisla          : Elementary symmetry handling
   Frank Wennmohs         : Technical directorship


 We gratefully acknowledge several colleagues who have allowed us to
 interface, adapt or use parts of their codes:
   Stefan Grimme, W. Hujo, H. Kruse,             : VdW corrections, initial TS optimization,
                  C. Bannwarth                     DFT functionals, gCP, sTDA/sTD-DF
   Ed Valeev, F. Pavosevic, A. Kumar             : LibInt (2-el integral package), F12 methods
   Garnet Chan, S. Sharma, J. Yang, R. Olivares  : DMRG
   Ulf Ekstrom                                   : XCFun DFT Library
   Mihaly Kallay                                 : mrcc  (arbitrary order and MRCC methods)
   Andreas Klamt, Michael Diedenhofen            : otool_cosmo (COSMO solvation model)
   Jiri Pittner, Ondrej Demel                    : Mk-CCSD
   Frank Weinhold                                : gennbo (NPA and NBO analysis)
   Christopher J. Cramer and Donald G. Truhlar   : smd solvation model
   Lars Goerigk                                  : TD-DFT with DH, B97 family of functionals
   V. Asgeirsson, H. Jonsson                     : NEB implementation
   FAccTs GmbH                                   : IRC, NEB, NEB-TS, Multilevel, MM, QM/MM, CI optimization
   S Lehtola, MJT Oliveira, MAL Marques          : LibXC Library


 Your calculation uses the libint2 library for the computation of 2-el integrals
 For citations please refer to: http://libint.valeyev.net

 Your ORCA version has been built with support for libXC version: 4.2.3
 For citations please refer to: https://tddft.org/programs/libxc/

 This ORCA versions uses:
   CBLAS   interface :  Fast vector & matrix operations
   LAPACKE interface :  Fast linear algebra routines
   SCALAPACK package :  Parallel linear algebra routines


Your calculation utilizes the atom-pairwise dispersion correction
with the Becke-Johnson damping scheme (D3BJ)
Cite in your paper:
S.Grimme, S.Ehrlich, L.Goerigk, J Comput Chem, (2011), 32, 1456–1465 
S.Grimme, J.Antony, S.Ehrlich and H.Krieg, J.Chem.Phys., 132, (2010), 154104 
   

----- Orbital basis set information -----
Your calculation utilizes the basis: def2-SVP
   F. Weigend and R. Ahlrichs, Phys. Chem. Chem. Phys. 7, 3297 (2005).

----- AuxJ basis set information -----
Your calculation utilizes the auxiliary basis: def2/J
   F. Weigend, Phys. Chem. Chem. Phys. 8, 1057 (2006).

================================================================================
                                        WARNINGS
                       Please study these warnings very carefully!
================================================================================


WARNING: your system is open-shell and RHF/RKS was chosen
  ===> : WILL SWITCH to UHF/UKS


WARNING: Geometry Optimization
  ===> : Switching off AutoStart
         For restart on a previous wavefunction, please use MOREAD

INFO   : the flag for use of LIBINT has been found!

================================================================================
                                       INPUT FILE
================================================================================
NAME = 523.inp
|  1> # ORCA input file
|  2> # SCF done        -18.380038444005          0.000503180373
|  3> ! B3LYP/G D3BJ Opt RIJCOSX def2-SVP def2/J
|  4> * xyz 0 2
|  5>    C       -0.73907        -1.02791        -0.26146
|  6>    C       -1.18053         0.35257         0.29828
|  7>    C       -1.36650         0.32678         1.75567
|  8>    C       -0.00518         1.23981        -0.13446
|  9>    C        1.24513         0.37326         0.05946
| 10>    C        0.76203        -1.08886         0.02216
| 11>    H       -0.92591        -1.04483        -1.33605
| 12>    H       -1.28473        -1.84973         0.19923
| 13>    H       -2.11668         0.65268        -0.18465
| 14>    H       -0.53338         0.46276         2.41676
| 15>    H       -2.31370         0.05441         2.17962
| 16>    H        0.04101         2.16371         0.44040
| 17>    H       -0.12357         1.49934        -1.18747
| 18>    H        1.71391         0.59182         1.01857
| 19>    H        1.98224         0.57329        -0.71771
| 20>    H        0.94026        -1.57050         0.98350
| 21>    H        1.28250        -1.66799        -0.74028
| 22> *
| 23> 
| 24>                          ****END OF INPUT****
================================================================================

                       *****************************
                       * Geometry Optimization Run *
                       *****************************

Geometry optimization settings:
Update method            Update   .... BFGS
Choice of coordinates    CoordSys .... Z-matrix Internals
Initial Hessian          InHess   .... Almoef's Model

Convergence Tolerances:
Energy Change            TolE     ....  5.0000e-06 Eh
Max. Gradient            TolMAXG  ....  3.0000e-04 Eh/bohr
RMS Gradient             TolRMSG  ....  1.0000e-04 Eh/bohr
Max. Displacement        TolMAXD  ....  4.0000e-03 bohr
RMS Displacement         TolRMSD  ....  2.0000e-03 bohr
Strict Convergence                ....  False
------------------------------------------------------------------------------
                        ORCA OPTIMIZATION COORDINATE SETUP
------------------------------------------------------------------------------

The optimization will be done in new redundant internal coordinates
Making redundant internal coordinates   ...  (new redundants) done
Evaluating the initial hessian          ...  (Almloef) done
Evaluating the coordinates              ...  done
Calculating the B-matrix                .... done
Calculating the G-matrix                .... done
Diagonalizing the G-matrix              .... done
The first mode is                       ....   56
The number of degrees of freedom        ....   45

    -----------------------------------------------------------------
                    Redundant Internal Coordinates


    -----------------------------------------------------------------
         Definition                    Initial Value    Approx d2E/dq
    -----------------------------------------------------------------
      1. B(C   1,C   0)                  1.5537         0.342451   
      2. B(C   2,C   1)                  1.4694         0.466667   
      3. B(C   3,C   1)                  1.5349         0.366915   
      4. B(C   4,C   3)                  1.5336         0.368729   
      5. B(C   5,C   4)                  1.5403         0.359683   
      6. B(C   5,C   0)                  1.5289         0.375123   
      7. B(H   6,C   0)                  1.0908         0.358986   
      8. B(H   7,C   0)                  1.0887         0.361762   
      9. B(H   8,C   1)                  1.0953         0.353167   
     10. B(H   9,C   2)                  1.0722         0.384430   
     11. B(H  10,C   2)                  1.0729         0.383452   
     12. B(H  11,C   3)                  1.0891         0.361262   
     13. B(H  12,C   3)                  1.0910         0.358827   
     14. B(H  13,C   4)                  1.0897         0.360516   
     15. B(H  14,C   4)                  1.0896         0.360564   
     16. B(H  15,C   5)                  1.0899         0.360211   
     17. B(H  16,C   5)                  1.0898         0.360406   
     18. A(C   1,C   0,H   7)          112.0761         0.319972   
     19. A(H   6,C   0,H   7)          108.6196         0.290908   
     20. A(C   5,C   0,H   7)          112.5500         0.324785   
     21. A(C   5,C   0,H   6)          110.5054         0.324374   
     22. A(C   1,C   0,C   5)          104.3335         0.358254   
     23. A(C   1,C   0,H   6)          108.6638         0.319569   
     24. A(C   3,C   1,H   8)          111.8265         0.322334   
     25. A(C   2,C   1,C   3)          112.7482         0.376349   
     26. A(C   2,C   1,H   8)          109.5080         0.335386   
     27. A(C   0,C   1,C   2)          112.1901         0.371896   
     28. A(C   0,C   1,C   3)          101.2129         0.356910   
     29. A(C   0,C   1,H   8)          109.1148         0.318718   
     30. A(H   9,C   2,H  10)          118.3297         0.296782   
     31. A(C   1,C   2,H  10)          120.5370         0.340017   
     32. A(C   1,C   2,H   9)          120.7274         0.340162   
     33. A(H  11,C   3,H  12)          108.1953         0.290825   
     34. A(C   4,C   3,H  12)          110.1788         0.323436   
     35. A(C   1,C   3,H  12)          109.0589         0.323175   
     36. A(C   4,C   3,H  11)          112.2110         0.323796   
     37. A(C   1,C   3,H  11)          111.9637         0.323534   
     38. A(C   1,C   3,C   4)          105.1910         0.361430   
     39. A(H  13,C   4,H  14)          107.4534         0.290951   
     40. A(C   3,C   4,H  14)          110.9532         0.323693   
     41. A(C   5,C   4,H  13)          110.2813         0.322370   
     42. A(C   3,C   4,H  13)          110.4081         0.323686   
     43. A(C   5,C   4,H  14)          111.6630         0.322377   
     44. A(C   3,C   4,C   5)          106.1172         0.360206   
     45. A(C   0,C   5,H  16)          111.1197         0.324585   
     46. A(C   4,C   5,H  15)          110.2932         0.322325   
     47. A(C   0,C   5,H  15)          109.9864         0.324556   
     48. A(C   0,C   5,C   4)          105.9376         0.361263   
     49. A(H  15,C   5,H  16)          107.7077         0.290892   
     50. A(C   4,C   5,H  16)          111.8141         0.322354   
     51. D(H   8,C   1,C   0,C   5)    158.3422         0.009483   
     52. D(C   3,C   1,C   0,H   6)    -77.5824         0.009483   
     53. D(C   3,C   1,C   0,C   5)     40.3174         0.009483   
     54. D(C   2,C   1,C   0,H   7)     41.9364         0.009483   
     55. D(C   2,C   1,C   0,C   5)    -80.1201         0.009483   
     56. D(C   2,C   1,C   0,H   6)    161.9801         0.009483   
     57. D(C   3,C   1,C   0,H   7)    162.3739         0.009483   
     58. D(H   8,C   1,C   0,H   7)    -79.6012         0.009483   
     59. D(H   8,C   1,C   0,H   6)     40.4424         0.009483   
     60. D(H  10,C   2,C   1,C   3)    158.2426         0.016055   
     61. D(H  10,C   2,C   1,C   0)    -88.2573         0.016055   
     62. D(H   9,C   2,C   1,H   8)   -154.3799         0.016055   
     63. D(H  10,C   2,C   1,H   8)     33.0548         0.016055   
     64. D(H   9,C   2,C   1,C   0)     84.3080         0.016055   
     65. D(H   9,C   2,C   1,C   3)    -29.1921         0.016055   
     66. D(H  12,C   3,C   1,H   8)    -36.5450         0.010773   
     67. D(H  12,C   3,C   1,C   2)   -160.4627         0.010773   
     68. D(H  11,C   3,C   1,H   8)     83.1609         0.010773   
     69. D(H  11,C   3,C   1,C   2)    -40.7568         0.010773   
     70. D(H  12,C   3,C   1,C   0)     79.4958         0.010773   
     71. D(H  11,C   3,C   1,C   0)   -160.7983         0.010773   
     72. D(C   4,C   3,C   1,H   8)   -154.7077         0.010773   
     73. D(C   4,C   3,C   1,C   2)     81.3747         0.010773   
     74. D(C   4,C   3,C   1,C   0)    -38.6669         0.010773   
     75. D(H  13,C   4,C   3,H  12)    145.8751         0.010873   
     76. D(H  13,C   4,C   3,H  11)     25.2513         0.010873   
     77. D(H  13,C   4,C   3,C   1)    -96.7200         0.010873   
     78. D(C   5,C   4,C   3,H  12)    -94.6209         0.010873   
     79. D(C   5,C   4,C   3,H  11)    144.7553         0.010873   
     80. D(H  14,C   4,C   3,C   1)    144.2578         0.010873   
     81. D(C   5,C   4,C   3,C   1)     22.7840         0.010873   
     82. D(H  14,C   4,C   3,H  12)     26.8529         0.010873   
     83. D(H  14,C   4,C   3,H  11)    -93.7710         0.010873   
     84. D(H  16,C   5,C   4,H  14)      2.9283         0.010381   
     85. D(H  16,C   5,C   4,H  13)   -116.4673         0.010381   
     86. D(H  16,C   5,C   4,C   3)    123.9458         0.010381   
     87. D(H  15,C   5,C   4,H  14)    122.7503         0.010381   
     88. D(H  15,C   5,C   4,C   3)   -116.2323         0.010381   
     89. D(C   0,C   5,C   4,H  14)   -118.2647         0.010381   
     90. D(C   0,C   5,C   4,H  13)    122.3397         0.010381   
     91. D(C   0,C   5,C   4,C   3)      2.7527         0.010381   
     92. D(H  16,C   5,C   0,H   7)     89.7400         0.011231   
     93. D(H  16,C   5,C   0,H   6)    -31.8875         0.011231   
     94. D(H  16,C   5,C   0,C   1)   -148.5159         0.011231   
     95. D(H  15,C   5,C   0,H   7)    -29.4326         0.011231   
     96. D(H  15,C   5,C   4,H  13)      3.3547         0.010381   
     97. D(H  15,C   5,C   0,H   6)   -151.0602         0.011231   
     98. D(H  15,C   5,C   0,C   1)     92.3115         0.011231   
     99. D(C   4,C   5,C   0,H   7)   -148.6199         0.011231   
    100. D(C   4,C   5,C   0,H   6)     89.7526         0.011231   
    101. D(C   4,C   5,C   0,C   1)    -26.8758         0.011231   
    -----------------------------------------------------------------

Number of atoms                         .... 17
Number of degrees of freedom            .... 101

         *************************************************************
         *                GEOMETRY OPTIMIZATION CYCLE   1            *
         *************************************************************
---------------------------------
CARTESIAN COORDINATES (ANGSTROEM)
---------------------------------
  C     -0.739070   -1.027910   -0.261460
  C     -1.180530    0.352570    0.298280
  C     -1.366500    0.326780    1.755670
  C     -0.005180    1.239810   -0.134460
  C      1.245130    0.373260    0.059460
  C      0.762030   -1.088860    0.022160
  H     -0.925910   -1.044830   -1.336050
  H     -1.284730   -1.849730    0.199230
  H     -2.116680    0.652680   -0.184650
  H     -0.533380    0.462760    2.416760
  H     -2.313700    0.054410    2.179620
  H      0.041010    2.163710    0.440400
  H     -0.123570    1.499340   -1.187470
  H      1.713910    0.591820    1.018570
  H      1.982240    0.573290   -0.717710
  H      0.940260   -1.570500    0.983500
  H      1.282500   -1.667990   -0.740280

----------------------------
CARTESIAN COORDINATES (A.U.)
----------------------------
  NO LB      ZA    FRAG     MASS         X           Y           Z
   0 C     6.0000    0    12.011   -1.396640   -1.942468   -0.494088
   1 C     6.0000    0    12.011   -2.230878    0.666261    0.563668
   2 C     6.0000    0    12.011   -2.582311    0.617525    3.317735
   3 C     6.0000    0    12.011   -0.009789    2.342901   -0.254093
   4 C     6.0000    0    12.011    2.352955    0.705359    0.112363
   5 C     6.0000    0    12.011    1.440028   -2.057647    0.041876
   6 H     1.0000    0     1.008   -1.749716   -1.974443   -2.524769
   7 H     1.0000    0     1.008   -2.427788   -3.495483    0.376490
   8 H     1.0000    0     1.008   -3.999946    1.233386   -0.348938
   9 H     1.0000    0     1.008   -1.007942    0.874490    4.567015
  10 H     1.0000    0     1.008   -4.372259    0.102820    4.118885
  11 H     1.0000    0     1.008    0.077498    4.088819    0.832235
  12 H     1.0000    0     1.008   -0.233513    2.833342   -2.243993
  13 H     1.0000    0     1.008    3.238821    1.118378    1.924818
  14 H     1.0000    0     1.008    3.745891    1.083361   -1.356275
  15 H     1.0000    0     1.008    1.776834   -2.967815    1.858546
  16 H     1.0000    0     1.008    2.423574   -3.152044   -1.398926

--------------------------------
INTERNAL COORDINATES (ANGSTROEM)
--------------------------------
 C      0   0   0     0.000000000000     0.00000000     0.00000000
 C      1   0   0     1.553679770609     0.00000000     0.00000000
 C      2   1   0     1.469433760705   112.19006746     0.00000000
 C      2   1   3     1.534896200953   101.21291513   120.43751244
 C      4   2   1     1.533554356715   105.19101923   321.33313154
 C      1   2   3     1.528874231878   104.33349832   279.87985468
 H      1   2   3     1.090843316017   108.66376557   161.98005056
 H      1   2   3     1.088746170648   112.07607093    41.93641843
 H      2   1   3     1.095291842159   109.11482189   238.46238044
 H      3   2   1     1.072203097785   120.72737996    84.30803155
 H      3   2   1     1.072896481213   120.53695283   271.74272109
 H      4   2   1     1.089122924972   111.96374852   199.20167924
 H      4   2   1     1.090963827585   109.05885547    79.49575334
 H      5   4   2     1.089685805221   110.40810872   263.28003714
 H      5   4   2     1.089649650989   110.95318447   144.25782803
 H      6   1   2     1.089916335367   109.98641464    92.31147982
 H      6   1   2     1.089768476054   111.11971250   211.48412018

---------------------------
INTERNAL COORDINATES (A.U.)
---------------------------
 C      0   0   0     0.000000000000     0.00000000     0.00000000
 C      1   0   0     2.936029266265     0.00000000     0.00000000
 C      2   1   0     2.776827379671   112.19006746     0.00000000
 C      2   1   3     2.900533463797   101.21291513   120.43751244
 C      4   2   1     2.897997745673   105.19101923   321.33313154
 C      1   2   3     2.889153591458   104.33349832   279.87985468
 H      1   2   3     2.061395122292   108.66376557   161.98005056
 H      1   2   3     2.057432091880   112.07607093    41.93641843
 H      2   1   3     2.069801618399   109.11482189   238.46238044
 H      3   2   1     2.026170214756   120.72737996    84.30803155
 H      3   2   1     2.027480519541   120.53695283   271.74272109
 H      4   2   1     2.058144054373   111.96374852   199.20167924
 H      4   2   1     2.061622856151   109.05885547    79.49575334
 H      5   4   2     2.059207743889   110.40810872   263.28003714
 H      5   4   2     2.059139422292   110.95318447   144.25782803
 H      6   1   2     2.059643382731   109.98641464    92.31147982
 H      6   1   2     2.059363969122   111.11971250   211.48412018

---------------------
BASIS SET INFORMATION
---------------------
There are 2 groups of distinct atoms

 Group   1 Type C   : 7s4p1d contracted to 3s2p1d pattern {511/31/1}
 Group   2 Type H   : 4s1p contracted to 2s1p pattern {31/1}

Atom   0C    basis set group =>   1
Atom   1C    basis set group =>   1
Atom   2C    basis set group =>   1
Atom   3C    basis set group =>   1
Atom   4C    basis set group =>   1
Atom   5C    basis set group =>   1
Atom   6H    basis set group =>   2
Atom   7H    basis set group =>   2
Atom   8H    basis set group =>   2
Atom   9H    basis set group =>   2
Atom  10H    basis set group =>   2
Atom  11H    basis set group =>   2
Atom  12H    basis set group =>   2
Atom  13H    basis set group =>   2
Atom  14H    basis set group =>   2
Atom  15H    basis set group =>   2
Atom  16H    basis set group =>   2
---------------------------------
AUXILIARY/J BASIS SET INFORMATION
---------------------------------
There are 2 groups of distinct atoms

 Group   1 Type C   : 12s5p4d2f1g contracted to 6s4p3d1f1g pattern {711111/2111/211/2/1}
 Group   2 Type H   : 5s2p1d contracted to 3s1p1d pattern {311/2/1}

Atom   0C    basis set group =>   1
Atom   1C    basis set group =>   1
Atom   2C    basis set group =>   1
Atom   3C    basis set group =>   1
Atom   4C    basis set group =>   1
Atom   5C    basis set group =>   1
Atom   6H    basis set group =>   2
Atom   7H    basis set group =>   2
Atom   8H    basis set group =>   2
Atom   9H    basis set group =>   2
Atom  10H    basis set group =>   2
Atom  11H    basis set group =>   2
Atom  12H    basis set group =>   2
Atom  13H    basis set group =>   2
Atom  14H    basis set group =>   2
Atom  15H    basis set group =>   2
Atom  16H    basis set group =>   2
------------------------------------------------------------------------------
                           ORCA GTO INTEGRAL CALCULATION
                           -- RI-GTO INTEGRALS CHOSEN --
------------------------------------------------------------------------------

                         BASIS SET STATISTICS AND STARTUP INFO

Gaussian basis set:
 # of primitive gaussian shells          ...  127
 # of primitive gaussian functions       ...  221
 # of contracted shells                  ...   69
 # of contracted basis functions         ...  139
 Highest angular momentum                ...    2
 Maximum contraction depth               ...    5
Auxiliary gaussian basis set:
 # of primitive gaussian shells          ...  232
 # of primitive gaussian functions       ...  596
 # of contracted shells                  ...  145
 # of contracted aux-basis functions     ...  415
 Highest angular momentum                ...    4
 Maximum contraction depth               ...    7
Ratio of auxiliary to basis functions    ...  2.99
Integral package used                  ... LIBINT
 One Electron integrals                  ... done
 Ordering auxiliary basis shells         ... done
 Integral threshhold             Thresh  ...  2.500e-11
 Primitive cut-off               TCut    ...  2.500e-12
 Pre-screening matrix                    ... done
 Shell pair data                         ... 
 Ordering of the shell pairs             ... done (   0.000 sec) 2400 of 2415 pairs
 Determination of significant pairs      ... done (   0.000 sec)
 Creation of shell pair data             ... done (   0.000 sec)
 Storage of shell pair data              ... done (   0.001 sec)
 Shell pair data done in (   0.001 sec)
 Computing two index integrals           ... done
 Cholesky decomposition of the V-matrix  ... done


Timings:
 Total evaluation time                   ...   0.179 sec (  0.003 min)
 One electron matrix time                ...   0.012 sec (  0.000 min) =  6.8%
 Schwartz matrix evaluation time         ...   0.097 sec (  0.002 min) = 54.1%
 Two index repulsion integral time       ...   0.004 sec (  0.000 min) =  2.4%
 Cholesky decomposition of V             ...   0.048 sec (  0.001 min) = 26.6%
 Three index repulsion integral time     ...   0.000 sec (  0.000 min) =  0.0%

-------------------------------------------------------------------------------
                                 ORCA SCF
-------------------------------------------------------------------------------

------------
SCF SETTINGS
------------
Hamiltonian:
 Density Functional     Method          .... DFT(GTOs)
 Exchange Functional    Exchange        .... B88
   X-Alpha parameter    XAlpha          ....  0.666667
   Becke's b parameter  XBeta           ....  0.004200
 Correlation Functional Correlation     .... LYP
 LDA part of GGA corr.  LDAOpt          .... VWN-3
 Gradients option       PostSCFGGA      .... off
 Hybrid DFT is turned on
   Fraction HF Exchange ScalHFX         ....  0.200000
   Scaling of DF-GGA-X  ScalDFX         ....  0.720000
   Scaling of DF-GGA-C  ScalDFC         ....  0.810000
   Scaling of DF-LDA-C  ScalLDAC        ....  1.000000
   Perturbative correction              ....  0.000000
   Density functional embedding theory  .... OFF
   NL short-range parameter             ....  4.800000
 RI-approximation to the Coulomb term is turned on
   Number of auxiliary basis functions  .... 415
   RIJ-COSX (HFX calculated with COS-X)).... on


General Settings:
 Integral files         IntName         .... 523
 Hartree-Fock type      HFTyp           .... UHF
 Total Charge           Charge          ....    0
 Multiplicity           Mult            ....    2
 Number of Electrons    NEL             ....   47
 Basis Dimension        Dim             ....  139
 Nuclear Repulsion      ENuc            ....    247.6960337383 Eh

Convergence Acceleration:
 DIIS                   CNVDIIS         .... on
   Start iteration      DIISMaxIt       ....    12
   Startup error        DIISStart       ....  0.200000
   # of expansion vecs  DIISMaxEq       ....     5
   Bias factor          DIISBfac        ....   1.050
   Max. coefficient     DIISMaxC        ....  10.000
 Newton-Raphson         CNVNR           .... off
 SOSCF                  CNVSOSCF        .... off
 Level Shifting         CNVShift        .... on
   Level shift para.    LevelShift      ....    0.2500
   Turn off err/grad.   ShiftErr        ....    0.0010
 Zerner damping         CNVZerner       .... off
 Static damping         CNVDamp         .... on
   Fraction old density DampFac         ....    0.7000
   Max. Damping (<1)    DampMax         ....    0.9800
   Min. Damping (>=0)   DampMin         ....    0.0000
   Turn off err/grad.   DampErr         ....    0.1000
 Fernandez-Rico         CNVRico         .... off

SCF Procedure:
 Maximum # iterations   MaxIter         ....   125
 SCF integral mode      SCFMode         .... Direct
   Integral package                     .... LIBINT
 Reset frequency        DirectResetFreq ....    20
 Integral Threshold     Thresh          ....  2.500e-11 Eh
 Primitive CutOff       TCut            ....  2.500e-12 Eh

Convergence Tolerance:
 Convergence Check Mode ConvCheckMode   .... Total+1el-Energy
 Convergence forced     ConvForced      .... 0
 Energy Change          TolE            ....  1.000e-08 Eh
 1-El. energy change                    ....  1.000e-05 Eh
 DIIS Error             TolErr          ....  5.000e-07


Diagonalization of the overlap matrix:
Smallest eigenvalue                        ... 9.046e-04
Time for diagonalization                   ...    0.047 sec
Threshold for overlap eigenvalues          ... 1.000e-08
Number of eigenvalues below threshold      ... 0
Time for construction of square roots      ...    0.001 sec
Total time needed                          ...    0.048 sec

-------------------
DFT GRID GENERATION
-------------------

General Integration Accuracy     IntAcc      ...  4.340
Radial Grid Type                 RadialGrid  ... Gauss-Chebyshev
Angular Grid (max. acc.)         AngularGrid ... Lebedev-110
Angular grid pruning method      GridPruning ... 3 (G Style)
Weight generation scheme         WeightScheme... Becke
Basis function cutoff            BFCut       ...    1.0000e-11
Integration weight cutoff        WCut        ...    1.0000e-14
Grids for H and He will be reduced by one unit

# of grid points (after initial pruning)     ...  18670 (   0.0 sec)
# of grid points (after weights+screening)   ...  17112 (   0.0 sec)
nearest neighbour list constructed           ...    0.0 sec
Grid point re-assignment to atoms done       ...    0.0 sec
Grid point division into batches done        ...    0.0 sec
Reduced shell lists constructed in    0.1 sec

Total number of grid points                  ...    17112
Total number of batches                      ...      275
Average number of points per batch           ...       62
Average number of grid points per atom       ...     1007
Average number of shells per batch           ...    56.59 (82.01%)
Average number of basis functions per batch  ...   113.01 (81.30%)
Average number of large shells per batch     ...    45.97 (81.25%)
Average number of large basis fcns per batch ...    89.10 (78.84%)
Maximum spatial batch extension              ...  20.37, 18.72, 20.19 au
Average spatial batch extension              ...   3.90,  3.65,  3.66 au

Time for grid setup =    0.140 sec

------------------------------
INITIAL GUESS: MODEL POTENTIAL
------------------------------
Loading Hartree-Fock densities                     ... done
Calculating cut-offs                               ... done
Setting up the integral package                    ... done
Initializing the effective Hamiltonian             ... done
Starting the Coulomb interaction                   ... done (   0.1 sec)
Reading the grid                                   ... done
Mapping shells                                     ... done
Starting the XC term evaluation                    ... done (   0.2 sec)
  promolecular density results
     # of electrons  =     46.991422945
     EX              =    -34.121500812
     EC              =     -1.508761091
     EX+EC           =    -35.630261902
Transforming the Hamiltonian                       ... done (   0.0 sec)
Diagonalizing the Hamiltonian                      ... done (   0.0 sec)
Back transforming the eigenvectors                 ... done (   0.0 sec)
Now organizing SCF variables                       ... done
                      ------------------
                      INITIAL GUESS DONE (   0.5 sec)
                      ------------------
--------------------
COSX GRID GENERATION
--------------------

General Integration Accuracy     IntAcc      ...  3.340
Radial Grid Type                 RadialGrid  ... Gauss-Chebyshev
Angular Grid (max. acc.)         AngularGrid ... Lebedev-50
Angular grid pruning method      GridPruning ... 3 (G Style)
Weight generation scheme         WeightScheme... Becke
Basis function cutoff            BFCut       ...    1.0000e-11
Integration weight cutoff        WCut        ...    1.0000e-14
Grids for H and He will be reduced by one unit

# of grid points (after initial pruning)     ...   7000 (   0.0 sec)
# of grid points (after weights+screening)   ...   6444 (   0.0 sec)
nearest neighbour list constructed           ...    0.0 sec
Grid point re-assignment to atoms done       ...    0.0 sec
Grid point division into batches done        ...    0.0 sec
Reduced shell lists constructed in    0.0 sec

Total number of grid points                  ...     6444
Total number of batches                      ...      112
Average number of points per batch           ...       57
Average number of grid points per atom       ...      379
Average number of shells per batch           ...    59.17 (85.75%)
Average number of basis functions per batch  ...   119.10 (85.68%)
Average number of large shells per batch     ...    49.17 (83.10%)
Average number of large basis fcns per batch ...    96.48 (81.01%)
Maximum spatial batch extension              ...  16.73, 16.44, 17.16 au
Average spatial batch extension              ...   5.21,  4.94,  4.96 au

Overlap Fitting                  UseSFitting ... on
Constructing numerical overlap ... done (      0.0 sec)
Inverting numerical overlap    ... done (      0.0 sec)
Obtaining analytic overlap     ... done (      0.0 sec)
Final contraction and storage  ... done (      0.0 sec)


General Integration Accuracy     IntAcc      ...  3.670
Radial Grid Type                 RadialGrid  ... Gauss-Chebyshev
Angular Grid (max. acc.)         AngularGrid ... Lebedev-50
Angular grid pruning method      GridPruning ... 3 (G Style)
Weight generation scheme         WeightScheme... Becke
Basis function cutoff            BFCut       ...    1.0000e-11
Integration weight cutoff        WCut        ...    1.0000e-14
Grids for H and He will be reduced by one unit

# of grid points (after initial pruning)     ...   9032 (   0.0 sec)
# of grid points (after weights+screening)   ...   8293 (   0.0 sec)
nearest neighbour list constructed           ...    0.0 sec
Grid point re-assignment to atoms done       ...    0.0 sec
Grid point division into batches done        ...    0.0 sec
Reduced shell lists constructed in    0.0 sec

Total number of grid points                  ...     8293
Total number of batches                      ...      139
Average number of points per batch           ...       59
Average number of grid points per atom       ...      488
Average number of shells per batch           ...    58.49 (84.76%)
Average number of basis functions per batch  ...   117.40 (84.46%)
Average number of large shells per batch     ...    48.04 (82.14%)
Average number of large basis fcns per batch ...    93.73 (79.84%)
Maximum spatial batch extension              ...  17.95, 15.78, 18.35 au
Average spatial batch extension              ...   4.64,  4.49,  4.63 au

Overlap Fitting                  UseSFitting ... on
Constructing numerical overlap ... done (      0.0 sec)
Inverting numerical overlap    ... done (      0.0 sec)
Obtaining analytic overlap     ... done (      0.0 sec)
Final contraction and storage  ... done (      0.0 sec)


General Integration Accuracy     IntAcc      ...  4.010
Radial Grid Type                 RadialGrid  ... Gauss-Chebyshev
Angular Grid (max. acc.)         AngularGrid ... Lebedev-110
Angular grid pruning method      GridPruning ... 3 (G Style)
Weight generation scheme         WeightScheme... Becke
Basis function cutoff            BFCut       ...    1.0000e-11
Integration weight cutoff        WCut        ...    1.0000e-14
Grids for H and He will be reduced by one unit

# of grid points (after initial pruning)     ...  16156 (   0.0 sec)
# of grid points (after weights+screening)   ...  14855 (   0.0 sec)
nearest neighbour list constructed           ...    0.0 sec
Grid point re-assignment to atoms done       ...    0.0 sec
Grid point division into batches done        ...    0.0 sec
Reduced shell lists constructed in    0.1 sec

Total number of grid points                  ...    14855
Total number of batches                      ...      241
Average number of points per batch           ...       61
Average number of grid points per atom       ...      874
Average number of shells per batch           ...    57.10 (82.76%)
Average number of basis functions per batch  ...   114.23 (82.18%)
Average number of large shells per batch     ...    46.56 (81.53%)
Average number of large basis fcns per batch ...    90.19 (78.95%)
Maximum spatial batch extension              ...  19.06, 18.44, 19.67 au
Average spatial batch extension              ...   4.01,  3.78,  3.85 au

Overlap Fitting                  UseSFitting ... on
Constructing numerical overlap ... done (      0.1 sec)
Inverting numerical overlap    ... done (      0.0 sec)
Obtaining analytic overlap     ... done (      0.0 sec)
Final contraction and storage  ... done (      0.0 sec)

Time for X-Grid setup             =    0.445 sec
--------------
SCF ITERATIONS
--------------
ITER       Energy         Delta-E        Max-DP      RMS-DP      [F,P]     Damp
               ***  Starting incremental Fock matrix formation  ***
  0   -234.8398216831   0.000000000000 0.03591076  0.00136392  0.1531069 0.7000
  1   -234.9257544897  -0.085932806535 0.02376908  0.00096578  0.0801911 0.7000
                               ***Turning on DIIS***
  2   -234.9608872212  -0.035132731508 0.03795381  0.00166987  0.0340696 0.0000
  3   -235.0123066970  -0.051419475792 0.01707953  0.00065903  0.0409676 0.0000
  4   -235.0264143300  -0.014107632999 0.00635340  0.00017009  0.0088277 0.0000
  5   -235.0269974108  -0.000583080827 0.00227472  0.00006764  0.0017629 0.0000
  6   -235.0270527924  -0.000055381622 0.00241774  0.00004962  0.0008347 0.0000
               *** Restarting incremental Fock matrix formation ***
                                   *** Resetting DIIS ***
  7   -235.0270495634   0.000003229005 0.00065013  0.00000970  0.0003563 0.0000
  8   -235.0270503888  -0.000000825374 0.00026758  0.00000485  0.0003496 0.0000
  9   -235.0270508099  -0.000000421119 0.00008595  0.00000179  0.0000250 0.0000
 10   -235.0270508652  -0.000000055261 0.00002907  0.00000050  0.0000175 0.0000
 11   -235.0270508689  -0.000000003751 0.00001634  0.00000034  0.0000035 0.0000
 12   -235.0270508711  -0.000000002171 0.00000421  0.00000009  0.0000011 0.0000
                            ***DIIS convergence achieved***

               *****************************************************
               *                     SUCCESS                       *
               *           SCF CONVERGED AFTER  13 CYCLES          *
               *****************************************************

Setting up the final grid:

General Integration Accuracy     IntAcc      ...  4.670
Radial Grid Type                 RadialGrid  ... Gauss-Chebyshev
Angular Grid (max. acc.)         AngularGrid ... Lebedev-302
Angular grid pruning method      GridPruning ... 3 (G Style)
Weight generation scheme         WeightScheme... Becke
Basis function cutoff            BFCut       ...    1.0000e-11
Integration weight cutoff        WCut        ...    1.0000e-14
Grids for H and He will be reduced by one unit

# of grid points (after initial pruning)     ...  74606 (   0.0 sec)
# of grid points (after weights+screening)   ...  67188 (   0.1 sec)
nearest neighbour list constructed           ...    0.0 sec
Grid point re-assignment to atoms done       ...    0.0 sec
Grid point division into batches done        ...    0.2 sec
Reduced shell lists constructed in    0.5 sec

Total number of grid points                  ...    67188
Total number of batches                      ...     1060
Average number of points per batch           ...       63
Average number of grid points per atom       ...     3952
Average number of shells per batch           ...    52.36 (75.88%)
Average number of basis functions per batch  ...   103.77 (74.66%)
Average number of large shells per batch     ...    41.47 (79.21%)
Average number of large basis fcns per batch ...    79.36 (76.47%)
Maximum spatial batch extension              ...  20.84, 21.15, 17.94 au
Average spatial batch extension              ...   2.47,  2.40,  2.41 au

Final grid set up in    0.8 sec
Final integration                            ... done (   1.3 sec)
Change in XC energy                          ...    -0.000014716
Integrated number of electrons               ...    47.000166032
Previous integrated no of electrons          ...    47.000341220
Old exchange energy                            =     -7.010201442 Eh
New exchange energy                            =     -7.010264273 Eh
Exchange energy change after final integration =     -0.000062832 Eh
Total energy after final integration           =   -235.027128421 Eh
Final COS-X integration done in                =     4.118 sec

----------------
TOTAL SCF ENERGY
----------------

Total Energy       :         -235.02712842 Eh           -6395.41330 eV

Components:
Nuclear Repulsion  :          247.69603374 Eh            6740.15174 eV
Electronic Energy  :         -482.72316216 Eh          -13135.56504 eV
One Electron Energy:         -805.41351688 Eh          -21916.41600 eV
Two Electron Energy:          322.69035472 Eh            8780.85096 eV

Virial components:
Potential Energy   :         -467.37161043 Eh          -12717.82808 eV
Kinetic Energy     :          232.34448201 Eh            6322.41478 eV
Virial Ratio       :            2.01154599


DFT components:
N(Alpha)           :       24.000094419954 electrons
N(Beta)            :       23.000071612156 electrons
N(Total)           :       47.000166032110 electrons
E(X)               :      -27.745436330457 Eh       
E(C)               :       -1.953072216269 Eh       
E(XC)              :      -29.698508546726 Eh       
DFET-embed. en.    :        0.000000000000 Eh       

---------------
SCF CONVERGENCE
---------------

  Last Energy change         ...   -1.6450e-09  Tolerance :   1.0000e-08
  Last MAX-Density change    ...    0.0000e+00  Tolerance :   1.0000e-07
  Last RMS-Density change    ...    0.0000e+00  Tolerance :   5.0000e-09
  Last DIIS Error            ...    4.8210e-07  Tolerance :   5.0000e-07

             **** THE GBW FILE WAS UPDATED (523.gbw) ****
             **** DENSITY FILE WAS UPDATED (523.scfp) ****
             **** ENERGY FILE WAS UPDATED (523.en.tmp) ****
----------------------
UHF SPIN CONTAMINATION
----------------------

Warning: in a DFT calculation there is little theoretical justification to 
         calculate <S**2> as in Hartree-Fock theory. We will do it anyways
         but you should keep in mind that the values have only limited relevance

Expectation value of <S**2>     :     0.753639
Ideal value S*(S+1) for S=0.5   :     0.750000
Deviation                       :     0.003639

             **** THE GBW FILE WAS UPDATED (523.gbw) ****
             **** DENSITY FILE WAS UPDATED (523.scfp) ****
----------------
ORBITAL ENERGIES
----------------
                 SPIN UP ORBITALS
  NO   OCC          E(Eh)            E(eV) 
   0   1.0000     -10.182566      -277.0817 
   1   1.0000     -10.181692      -277.0579 
   2   1.0000     -10.176634      -276.9203 
   3   1.0000     -10.173361      -276.8312 
   4   1.0000     -10.173145      -276.8253 
   5   1.0000     -10.172887      -276.8183 
   6   1.0000      -0.837962       -22.8021 
   7   1.0000      -0.732226       -19.9249 
   8   1.0000      -0.702282       -19.1101 
   9   1.0000      -0.647623       -17.6227 
  10   1.0000      -0.555653       -15.1201 
  11   1.0000      -0.539403       -14.6779 
  12   1.0000      -0.491943       -13.3864 
  13   1.0000      -0.474375       -12.9084 
  14   1.0000      -0.431764       -11.7489 
  15   1.0000      -0.416609       -11.3365 
  16   1.0000      -0.403812       -10.9883 
  17   1.0000      -0.345259        -9.3950 
  18   1.0000      -0.338121        -9.2007 
  19   1.0000      -0.336972        -9.1695 
  20   1.0000      -0.333537        -9.0760 
  21   1.0000      -0.327147        -8.9021 
  22   1.0000      -0.315828        -8.5941 
  23   1.0000      -0.199937        -5.4406 
  24   0.0000       0.048769         1.3271 
  25   0.0000       0.066575         1.8116 
  26   0.0000       0.100498         2.7347 
  27   0.0000       0.106316         2.8930 
  28   0.0000       0.112298         3.0558 
  29   0.0000       0.135282         3.6812 
  30   0.0000       0.140162         3.8140 
  31   0.0000       0.147732         4.0200 
  32   0.0000       0.149662         4.0725 
  33   0.0000       0.169655         4.6165 
  34   0.0000       0.177308         4.8248 
  35   0.0000       0.194799         5.3007 
  36   0.0000       0.212558         5.7840 
  37   0.0000       0.232827         6.3355 
  38   0.0000       0.275388         7.4937 
  39   0.0000       0.289193         7.8693 
  40   0.0000       0.307267         8.3612 
  41   0.0000       0.393663        10.7121 
  42   0.0000       0.430600        11.7172 
  43   0.0000       0.439676        11.9642 
  44   0.0000       0.452958        12.3256 
  45   0.0000       0.475278        12.9330 
  46   0.0000       0.489041        13.3075 
  47   0.0000       0.510359        13.8876 
  48   0.0000       0.543968        14.8021 
  49   0.0000       0.574251        15.6262 
  50   0.0000       0.597754        16.2657 
  51   0.0000       0.609408        16.5828 
  52   0.0000       0.621163        16.9027 
  53   0.0000       0.626467        17.0470 
  54   0.0000       0.643242        17.5035 
  55   0.0000       0.647135        17.6094 
  56   0.0000       0.662771        18.0349 
  57   0.0000       0.673428        18.3249 
  58   0.0000       0.679312        18.4850 
  59   0.0000       0.680455        18.5161 
  60   0.0000       0.688249        18.7282 
  61   0.0000       0.689043        18.7498 
  62   0.0000       0.696145        18.9431 
  63   0.0000       0.711705        19.3665 
  64   0.0000       0.716087        19.4857 
  65   0.0000       0.717268        19.5178 
  66   0.0000       0.729616        19.8539 
  67   0.0000       0.742340        20.2001 
  68   0.0000       0.767304        20.8794 
  69   0.0000       0.861999        23.4562 
  70   0.0000       0.905943        24.6520 
  71   0.0000       0.956697        26.0331 
  72   0.0000       0.988481        26.8979 
  73   0.0000       1.039186        28.2777 
  74   0.0000       1.084522        29.5114 
  75   0.0000       1.214082        33.0368 
  76   0.0000       1.230555        33.4851 
  77   0.0000       1.266021        34.4502 
  78   0.0000       1.359454        36.9926 
  79   0.0000       1.376932        37.4682 
  80   0.0000       1.389094        37.7992 
  81   0.0000       1.397904        38.0389 
  82   0.0000       1.448329        39.4110 
  83   0.0000       1.531030        41.6614 
  84   0.0000       1.559260        42.4296 
  85   0.0000       1.634695        44.4823 
  86   0.0000       1.664372        45.2899 
  87   0.0000       1.696012        46.1508 
  88   0.0000       1.709072        46.5062 
  89   0.0000       1.726264        46.9740 
  90   0.0000       1.735058        47.2133 
  91   0.0000       1.754608        47.7453 
  92   0.0000       1.784741        48.5653 
  93   0.0000       1.794323        48.8260 
  94   0.0000       1.810578        49.2683 
  95   0.0000       1.822728        49.5990 
  96   0.0000       1.840681        50.0875 
  97   0.0000       1.844300        50.1859 
  98   0.0000       1.856982        50.5311 
  99   0.0000       1.864954        50.7480 
 100   0.0000       1.890812        51.4516 
 101   0.0000       1.920079        52.2480 
 102   0.0000       1.926355        52.4188 
 103   0.0000       1.951035        53.0904 
 104   0.0000       1.961655        53.3793 
 105   0.0000       2.005813        54.5810 
 106   0.0000       2.018556        54.9277 
 107   0.0000       2.032378        55.3038 
 108   0.0000       2.073854        56.4324 
 109   0.0000       2.124716        57.8165 
 110   0.0000       2.143038        58.3150 
 111   0.0000       2.192237        59.6538 
 112   0.0000       2.212198        60.1970 
 113   0.0000       2.231995        60.7357 
 114   0.0000       2.281922        62.0943 
 115   0.0000       2.318784        63.0973 
 116   0.0000       2.339517        63.6615 
 117   0.0000       2.365192        64.3602 
 118   0.0000       2.393421        65.1283 
 119   0.0000       2.463589        67.0377 
 120   0.0000       2.502603        68.0993 
 121   0.0000       2.551238        69.4227 
 122   0.0000       2.559164        69.6384 
 123   0.0000       2.619013        71.2670 
 124   0.0000       2.671503        72.6953 
 125   0.0000       2.706556        73.6491 
 126   0.0000       2.734257        74.4029 
 127   0.0000       2.809901        76.4613 
 128   0.0000       2.836868        77.1951 
 129   0.0000       2.854425        77.6729 
 130   0.0000       2.882928        78.4485 
 131   0.0000       2.916022        79.3490 
 132   0.0000       2.956083        80.4391 
 133   0.0000       2.968067        80.7652 
 134   0.0000       2.979157        81.0670 
 135   0.0000       3.037113        82.6440 
 136   0.0000       3.045966        82.8850 
 137   0.0000       3.124192        85.0136 
 138   0.0000       3.162200        86.0478 

                 SPIN DOWN ORBITALS
  NO   OCC          E(Eh)            E(eV) 
   0   1.0000     -10.183467      -277.1062 
   1   1.0000     -10.174902      -276.8732 
   2   1.0000     -10.173372      -276.8315 
   3   1.0000     -10.172896      -276.8186 
   4   1.0000     -10.172703      -276.8133 
   5   1.0000     -10.167649      -276.6758 
   6   1.0000      -0.834373       -22.7044 
   7   1.0000      -0.721685       -19.6381 
   8   1.0000      -0.700707       -19.0672 
   9   1.0000      -0.628791       -17.1103 
  10   1.0000      -0.554219       -15.0811 
  11   1.0000      -0.532573       -14.4920 
  12   1.0000      -0.488959       -13.3053 
  13   1.0000      -0.472795       -12.8654 
  14   1.0000      -0.426329       -11.6010 
  15   1.0000      -0.413352       -11.2479 
  16   1.0000      -0.398257       -10.8371 
  17   1.0000      -0.337486        -9.1835 
  18   1.0000      -0.336649        -9.1607 
  19   1.0000      -0.335275        -9.1233 
  20   1.0000      -0.328242        -8.9319 
  21   1.0000      -0.325580        -8.8595 
  22   1.0000      -0.314762        -8.5651 
  23   0.0000      -0.049308        -1.3417 
  24   0.0000       0.050363         1.3704 
  25   0.0000       0.067236         1.8296 
  26   0.0000       0.101431         2.7601 
  27   0.0000       0.110286         3.0010 
  28   0.0000       0.116978         3.1831 
  29   0.0000       0.136375         3.7109 
  30   0.0000       0.142172         3.8687 
  31   0.0000       0.149233         4.0608 
  32   0.0000       0.150914         4.1066 
  33   0.0000       0.171337         4.6623 
  34   0.0000       0.179442         4.8829 
  35   0.0000       0.196702         5.3525 
  36   0.0000       0.212944         5.7945 
  37   0.0000       0.235598         6.4109 
  38   0.0000       0.280565         7.6346 
  39   0.0000       0.291221         7.9245 
  40   0.0000       0.308883         8.4051 
  41   0.0000       0.397596        10.8191 
  42   0.0000       0.432826        11.7778 
  43   0.0000       0.451379        12.2826 
  44   0.0000       0.455242        12.3878 
  45   0.0000       0.480248        13.0682 
  46   0.0000       0.506299        13.7771 
  47   0.0000       0.520605        14.1664 
  48   0.0000       0.569087        15.4856 
  49   0.0000       0.586442        15.9579 
  50   0.0000       0.598610        16.2890 
  51   0.0000       0.614438        16.7197 
  52   0.0000       0.624214        16.9857 
  53   0.0000       0.632870        17.2213 
  54   0.0000       0.646987        17.6054 
  55   0.0000       0.648388        17.6435 
  56   0.0000       0.668564        18.1926 
  57   0.0000       0.678719        18.4689 
  58   0.0000       0.681435        18.5428 
  59   0.0000       0.683130        18.5889 
  60   0.0000       0.689365        18.7586 
  61   0.0000       0.691330        18.8120 
  62   0.0000       0.698072        18.9955 
  63   0.0000       0.712431        19.3862 
  64   0.0000       0.718258        19.5448 
  65   0.0000       0.719190        19.5702 
  66   0.0000       0.736185        20.0326 
  67   0.0000       0.745763        20.2932 
  68   0.0000       0.770496        20.9663 
  69   0.0000       0.866184        23.5701 
  70   0.0000       0.912481        24.8299 
  71   0.0000       0.958807        26.0905 
  72   0.0000       0.990948        26.9651 
  73   0.0000       1.041947        28.3528 
  74   0.0000       1.087200        29.5842 
  75   0.0000       1.218654        33.1613 
  76   0.0000       1.243954        33.8497 
  77   0.0000       1.273141        34.6439 
  78   0.0000       1.361524        37.0489 
  79   0.0000       1.378436        37.5091 
  80   0.0000       1.392755        37.8988 
  81   0.0000       1.402260        38.1574 
  82   0.0000       1.452245        39.5176 
  83   0.0000       1.533815        41.7372 
  84   0.0000       1.559353        42.4322 
  85   0.0000       1.636328        44.5267 
  86   0.0000       1.671422        45.4817 
  87   0.0000       1.699478        46.2451 
  88   0.0000       1.714140        46.6441 
  89   0.0000       1.729932        47.0739 
  90   0.0000       1.736868        47.2626 
  91   0.0000       1.755865        47.7795 
  92   0.0000       1.789570        48.6967 
  93   0.0000       1.794718        48.8368 
  94   0.0000       1.814216        49.3673 
  95   0.0000       1.824647        49.6512 
  96   0.0000       1.842567        50.1388 
  97   0.0000       1.845202        50.2105 
  98   0.0000       1.858229        50.5650 
  99   0.0000       1.866812        50.7985 
 100   0.0000       1.902634        51.7733 
 101   0.0000       1.923413        52.3387 
 102   0.0000       1.927735        52.4563 
 103   0.0000       1.953330        53.1528 
 104   0.0000       1.963859        53.4393 
 105   0.0000       2.010059        54.6965 
 106   0.0000       2.036256        55.4094 
 107   0.0000       2.046863        55.6980 
 108   0.0000       2.084759        56.7292 
 109   0.0000       2.130225        57.9664 
 110   0.0000       2.150810        58.5265 
 111   0.0000       2.199931        59.8632 
 112   0.0000       2.214119        60.2492 
 113   0.0000       2.251748        61.2732 
 114   0.0000       2.302288        62.6484 
 115   0.0000       2.320425        63.1420 
 116   0.0000       2.345136        63.8144 
 117   0.0000       2.367032        64.4102 
 118   0.0000       2.396775        65.2196 
 119   0.0000       2.468711        67.1771 
 120   0.0000       2.508686        68.2648 
 121   0.0000       2.552985        69.4703 
 122   0.0000       2.560551        69.6761 
 123   0.0000       2.621217        71.3270 
 124   0.0000       2.674090        72.7657 
 125   0.0000       2.710774        73.7639 
 126   0.0000       2.736659        74.4683 
 127   0.0000       2.814218        76.5788 
 128   0.0000       2.840157        77.2846 
 129   0.0000       2.855198        77.6939 
 130   0.0000       2.885168        78.5094 
 131   0.0000       2.918417        79.4142 
 132   0.0000       2.958067        80.4931 
 133   0.0000       2.973012        80.8998 
 134   0.0000       2.983063        81.1733 
 135   0.0000       3.039897        82.7198 
 136   0.0000       3.048518        82.9544 
 137   0.0000       3.125042        85.0367 
 138   0.0000       3.166398        86.1621 

                    ********************************
                    * MULLIKEN POPULATION ANALYSIS *
                    ********************************

--------------------------------------------
MULLIKEN ATOMIC CHARGES AND SPIN POPULATIONS
--------------------------------------------
   0 C :    0.066424    0.050397
   1 C :   -0.097163   -0.085082
   2 C :   -0.045116    1.077560
   3 C :    0.082165    0.013351
   4 C :    0.014124    0.000354
   5 C :    0.029698    0.002663
   6 H :   -0.010539    0.010677
   7 H :   -0.009953    0.000898
   8 H :   -0.011626    0.016932
   9 H :    0.019487   -0.046580
  10 H :    0.016155   -0.046162
  11 H :   -0.011387    0.002005
  12 H :   -0.013899    0.000606
  13 H :   -0.008204    0.000445
  14 H :   -0.005393    0.000694
  15 H :   -0.009244    0.001674
  16 H :   -0.005529   -0.000433
Sum of atomic charges         :   -0.0000000
Sum of atomic spin populations:    1.0000000

-----------------------------------------------------
MULLIKEN REDUCED ORBITAL CHARGES AND SPIN POPULATIONS
-----------------------------------------------------
CHARGE
  0 C s       :     2.979812  s :     2.979812
      pz      :     0.973501  p :     2.917269
      px      :     0.985038
      py      :     0.958730
      dz2     :     0.009849  d :     0.036495
      dxz     :     0.005146
      dyz     :     0.004690
      dx2y2   :     0.008530
      dxy     :     0.008280
  1 C s       :     3.097918  s :     3.097918
      pz      :     0.971824  p :     2.953043
      px      :     1.000443
      py      :     0.980776
      dz2     :     0.011445  d :     0.046202
      dxz     :     0.008444
      dyz     :     0.009572
      dx2y2   :     0.008355
      dxy     :     0.008386
  2 C s       :     3.147277  s :     3.147277
      pz      :     0.946080  p :     2.874777
      px      :     0.931239
      py      :     0.997458
      dz2     :     0.006391  d :     0.023062
      dxz     :     0.010331
      dyz     :     0.003308
      dx2y2   :     0.002103
      dxy     :     0.000928
  3 C s       :     2.966166  s :     2.966166
      pz      :     0.977464  p :     2.915418
      px      :     0.955199
      py      :     0.982755
      dz2     :     0.008569  d :     0.036251
      dxz     :     0.004675
      dyz     :     0.006241
      dx2y2   :     0.008042
      dxy     :     0.008724
  4 C s       :     2.978563  s :     2.978563
      pz      :     0.991590  p :     2.971675
      px      :     1.013358
      py      :     0.966727
      dz2     :     0.006062  d :     0.035638
      dxz     :     0.008971
      dyz     :     0.004671
      dx2y2   :     0.007806
      dxy     :     0.008129
  5 C s       :     2.968902  s :     2.968902
      pz      :     0.989301  p :     2.965564
      px      :     0.974123
      py      :     1.002140
      dz2     :     0.006185  d :     0.035836
      dxz     :     0.005773
      dyz     :     0.007925
      dx2y2   :     0.008643
      dxy     :     0.007312
  6 H s       :     0.987801  s :     0.987801
      pz      :     0.013690  p :     0.022738
      px      :     0.004579
      py      :     0.004469
  7 H s       :     0.987508  s :     0.987508
      pz      :     0.006330  p :     0.022445
      px      :     0.006500
      py      :     0.009615
  8 H s       :     0.990008  s :     0.990008
      pz      :     0.005887  p :     0.021618
      px      :     0.010925
      py      :     0.004805
  9 H s       :     0.955829  s :     0.955829
      pz      :     0.008176  p :     0.024684
      px      :     0.010533
      py      :     0.005976
 10 H s       :     0.959422  s :     0.959422
      pz      :     0.005692  p :     0.024423
      px      :     0.012497
      py      :     0.006234
 11 H s       :     0.988785  s :     0.988785
      pz      :     0.007366  p :     0.022602
      px      :     0.004068
      py      :     0.011169
 12 H s       :     0.991038  s :     0.991038
      pz      :     0.013241  p :     0.022861
      px      :     0.004306
      py      :     0.005315
 13 H s       :     0.985273  s :     0.985273
      pz      :     0.011892  p :     0.022931
      px      :     0.006450
      py      :     0.004588
 14 H s       :     0.982644  s :     0.982644
      pz      :     0.009547  p :     0.022749
      px      :     0.008769
      py      :     0.004433
 15 H s       :     0.986273  s :     0.986273
      pz      :     0.011940  p :     0.022970
      px      :     0.004688
      py      :     0.006343
 16 H s       :     0.982802  s :     0.982802
      pz      :     0.009295  p :     0.022727
      px      :     0.006470
      py      :     0.006962

SPIN
  0 C s       :     0.002573  s :     0.002573
      pz      :     0.007564  p :     0.047458
      px      :     0.011734
      py      :     0.028160
      dz2     :     0.000303  d :     0.000366
      dxz     :     0.000047
      dyz     :    -0.000019
      dx2y2   :     0.000003
      dxy     :     0.000032
  1 C s       :    -0.024365  s :    -0.024365
      pz      :    -0.037225  p :    -0.067697
      px      :    -0.009756
      py      :    -0.020715
      dz2     :    -0.000003  d :     0.006980
      dxz     :     0.000596
      dyz     :     0.005449
      dx2y2   :     0.000469
      dxy     :     0.000470
  2 C s       :     0.104270  s :     0.104270
      pz      :     0.025470  p :     0.975662
      px      :     0.087492
      py      :     0.862701
      dz2     :    -0.000668  d :    -0.002373
      dxz     :     0.000065
      dyz     :     0.000098
      dx2y2   :    -0.001488
      dxy     :    -0.000380
  3 C s       :     0.000992  s :     0.000992
      pz      :     0.002821  p :     0.012442
      px      :     0.008792
      py      :     0.000829
      dz2     :     0.000010  d :    -0.000083
      dxz     :    -0.000036
      dyz     :    -0.000014
      dx2y2   :    -0.000014
      dxy     :    -0.000029
  4 C s       :     0.000281  s :     0.000281
      pz      :    -0.000037  p :    -0.000021
      px      :    -0.000232
      py      :     0.000248
      dz2     :    -0.000001  d :     0.000095
      dxz     :     0.000075
      dyz     :     0.000002
      dx2y2   :     0.000026
      dxy     :    -0.000008
  5 C s       :    -0.000098  s :    -0.000098
      pz      :    -0.000013  p :     0.002616
      px      :     0.002525
      py      :     0.000105
      dz2     :     0.000011  d :     0.000145
      dxz     :     0.000001
      dyz     :     0.000002
      dx2y2   :     0.000002
      dxy     :     0.000129
  6 H s       :     0.010443  s :     0.010443
      pz      :    -0.000023  p :     0.000234
      px      :     0.000099
      py      :     0.000158
  7 H s       :     0.000769  s :     0.000769
      pz      :    -0.000031  p :     0.000129
      px      :    -0.000004
      py      :     0.000164
  8 H s       :     0.017142  s :     0.017142
      pz      :    -0.000165  p :    -0.000210
      px      :     0.000003
      py      :    -0.000048
  9 H s       :    -0.052358  s :    -0.052358
      pz      :     0.000021  p :     0.005777
      px      :     0.000475
      py      :     0.005281
 10 H s       :    -0.051735  s :    -0.051735
      pz      :    -0.000073  p :     0.005573
      px      :     0.000683
      py      :     0.004962
 11 H s       :     0.001980  s :     0.001980
      pz      :     0.000007  p :     0.000025
      px      :    -0.000021
      py      :     0.000039
 12 H s       :     0.000496  s :     0.000496
      pz      :    -0.000004  p :     0.000111
      px      :     0.000107
      py      :     0.000008
 13 H s       :     0.000448  s :     0.000448
      pz      :    -0.000001  p :    -0.000003
      px      :    -0.000003
      py      :     0.000001
 14 H s       :     0.000691  s :     0.000691
      pz      :    -0.000002  p :     0.000003
      px      :    -0.000006
      py      :     0.000011
 15 H s       :     0.001575  s :     0.001575
      pz      :     0.000050  p :     0.000099
      px      :     0.000047
      py      :     0.000003
 16 H s       :    -0.000457  s :    -0.000457
      pz      :     0.000026  p :     0.000024
      px      :    -0.000001
      py      :    -0.000001


                     *******************************
                     * LOEWDIN POPULATION ANALYSIS *
                     *******************************

-------------------------------------------
LOEWDIN ATOMIC CHARGES AND SPIN POPULATIONS
-------------------------------------------
   0 C :   -0.018544    0.059338
   1 C :   -0.052239   -0.009600
   2 C :   -0.013612    0.902549
   3 C :   -0.021002    0.015165
   4 C :   -0.034180   -0.000055
   5 C :   -0.033318    0.000896
   6 H :    0.015214    0.006934
   7 H :    0.015342    0.002080
   8 H :    0.021521    0.013919
   9 H :    0.006276    0.002358
  10 H :    0.007689    0.001869
  11 H :    0.015990    0.001448
  12 H :    0.017311    0.000904
  13 H :    0.017117    0.000234
  14 H :    0.019529    0.000691
  15 H :    0.017619    0.001096
  16 H :    0.019285    0.000174

----------------------------------------------------
LOEWDIN REDUCED ORBITAL CHARGES AND SPIN POPULATIONS
----------------------------------------------------
CHARGE
  0 C s       :     2.845878  s :     2.845878
      pz      :     1.046912  p :     3.083764
      px      :     1.021492
      py      :     1.015359
      dz2     :     0.024374  d :     0.088902
      dxz     :     0.011099
      dyz     :     0.011862
      dx2y2   :     0.023139
      dxy     :     0.018428
  1 C s       :     2.839839  s :     2.839839
      pz      :     1.051115  p :     3.100219
      px      :     1.033775
      py      :     1.015329
      dz2     :     0.029606  d :     0.112182
      dxz     :     0.019864
      dyz     :     0.021606
      dx2y2   :     0.019564
      dxy     :     0.021543
  2 C s       :     2.909326  s :     2.909326
      pz      :     1.034876  p :     3.045907
      px      :     1.048937
      py      :     0.962095
      dz2     :     0.017468  d :     0.058379
      dxz     :     0.026233
      dyz     :     0.007225
      dx2y2   :     0.005345
      dxy     :     0.002109
  3 C s       :     2.839380  s :     2.839380
      pz      :     1.053739  p :     3.092346
      px      :     1.008755
      py      :     1.029852
      dz2     :     0.021445  d :     0.089276
      dxz     :     0.009419
      dyz     :     0.016378
      dx2y2   :     0.017516
      dxy     :     0.024518
  4 C s       :     2.837061  s :     2.837061
      pz      :     1.065206  p :     3.109906
      px      :     1.031326
      py      :     1.013374
      dz2     :     0.015537  d :     0.087213
      dxz     :     0.022632
      dyz     :     0.008822
      dx2y2   :     0.018859
      dxy     :     0.021364
  5 C s       :     2.836411  s :     2.836411
      pz      :     1.064670  p :     3.108941
      px      :     1.019759
      py      :     1.024512
      dz2     :     0.015647  d :     0.087966
      dxz     :     0.012817
      dyz     :     0.019105
      dx2y2   :     0.024194
      dxy     :     0.016203
  6 H s       :     0.917285  s :     0.917285
      pz      :     0.039770  p :     0.067501
      px      :     0.014300
      py      :     0.013431
  7 H s       :     0.917307  s :     0.917307
      pz      :     0.017610  p :     0.067350
      px      :     0.020328
      py      :     0.029412
  8 H s       :     0.912211  s :     0.912211
      pz      :     0.017706  p :     0.066268
      px      :     0.032654
      py      :     0.015908
  9 H s       :     0.915914  s :     0.915914
      pz      :     0.024497  p :     0.077809
      px      :     0.031514
      py      :     0.021799
 10 H s       :     0.915345  s :     0.915345
      pz      :     0.017064  p :     0.076966
      px      :     0.036599
      py      :     0.023303
 11 H s       :     0.916695  s :     0.916695
      pz      :     0.020431  p :     0.067315
      px      :     0.013775
      py      :     0.033108
 12 H s       :     0.915752  s :     0.915752
      pz      :     0.038031  p :     0.066937
      px      :     0.014039
      py      :     0.014867
 13 H s       :     0.915617  s :     0.915617
      pz      :     0.033775  p :     0.067266
      px      :     0.018799
      py      :     0.014691
 14 H s       :     0.913324  s :     0.913324
      pz      :     0.026748  p :     0.067147
      px      :     0.025835
      py      :     0.014564
 15 H s       :     0.915158  s :     0.915158
      pz      :     0.034096  p :     0.067223
      px      :     0.014421
      py      :     0.018706
 16 H s       :     0.913571  s :     0.913571
      pz      :     0.026236  p :     0.067144
      px      :     0.019895
      py      :     0.021013

SPIN
  0 C s       :     0.014426  s :     0.014426
      pz      :     0.010975  p :     0.044684
      px      :     0.009703
      py      :     0.024006
      dz2     :     0.000594  d :     0.000228
      dxz     :     0.000001
      dyz     :    -0.000160
      dx2y2   :    -0.000157
      dxy     :    -0.000050
  1 C s       :    -0.004870  s :    -0.004870
      pz      :    -0.015497  p :    -0.022961
      px      :    -0.003283
      py      :    -0.004181
      dz2     :     0.000936  d :     0.018231
      dxz     :     0.001625
      dyz     :     0.012902
      dx2y2   :     0.001505
      dxy     :     0.001264
  2 C s       :     0.030582  s :     0.030582
      pz      :     0.016351  p :     0.875706
      px      :     0.059379
      py      :     0.799976
      dz2     :    -0.001153  d :    -0.003739
      dxz     :    -0.000833
      dyz     :     0.000114
      dx2y2   :    -0.001484
      dxy     :    -0.000384
  3 C s       :     0.002663  s :     0.002663
      pz      :     0.004467  p :     0.012789
      px      :     0.007729
      py      :     0.000593
      dz2     :    -0.000003  d :    -0.000286
      dxz     :    -0.000095
      dyz     :    -0.000095
      dx2y2   :     0.000002
      dxy     :    -0.000096
  4 C s       :    -0.000077  s :    -0.000077
      pz      :    -0.000008  p :    -0.000269
      px      :    -0.000345
      py      :     0.000084
      dz2     :     0.000003  d :     0.000291
      dxz     :     0.000203
      dyz     :     0.000015
      dx2y2   :     0.000078
      dxy     :    -0.000007
  5 C s       :     0.000024  s :     0.000024
      pz      :     0.000401  p :     0.000373
      px      :    -0.000165
      py      :     0.000137
      dz2     :     0.000057  d :     0.000498
      dxz     :     0.000017
      dyz     :    -0.000006
      dx2y2   :     0.000097
      dxy     :     0.000333
  6 H s       :     0.005351  s :     0.005351
      pz      :     0.000517  p :     0.001584
      px      :     0.000303
      py      :     0.000765
  7 H s       :     0.000683  s :     0.000683
      pz      :    -0.000066  p :     0.001397
      px      :     0.000036
      py      :     0.001428
  8 H s       :     0.014646  s :     0.014646
      pz      :    -0.000436  p :    -0.000728
      px      :    -0.000252
      py      :    -0.000040
  9 H s       :    -0.022359  s :    -0.022359
      pz      :     0.001484  p :     0.024716
      px      :     0.003103
      py      :     0.020130
 10 H s       :    -0.022403  s :    -0.022403
      pz      :     0.000807  p :     0.024272
      px      :     0.003616
      py      :     0.019849
 11 H s       :     0.000893  s :     0.000893
      pz      :     0.000071  p :     0.000555
      px      :     0.000078
      py      :     0.000406
 12 H s       :     0.000420  s :     0.000420
      pz      :     0.000074  p :     0.000484
      px      :     0.000401
      py      :     0.000009
 13 H s       :     0.000253  s :     0.000253
      pz      :    -0.000013  p :    -0.000019
      px      :    -0.000013
      py      :     0.000006
 14 H s       :     0.000694  s :     0.000694
      pz      :    -0.000007  p :    -0.000003
      px      :    -0.000024
      py      :     0.000028
 15 H s       :     0.000714  s :     0.000714
      pz      :     0.000301  p :     0.000382
      px      :     0.000080
      py      :     0.000002
 16 H s       :    -0.000060  s :    -0.000060
      pz      :     0.000150  p :     0.000234
      px      :     0.000075
      py      :     0.000009


                      *****************************
                      * MAYER POPULATION ANALYSIS *
                      *****************************

  NA   - Mulliken gross atomic population
  ZA   - Total nuclear charge
  QA   - Mulliken gross atomic charge
  VA   - Mayer's total valence
  BVA  - Mayer's bonded valence
  FA   - Mayer's free valence

  ATOM       NA         ZA         QA         VA         BVA        FA
  0 C      5.9336     6.0000     0.0664     4.0486     4.0456     0.0030
  1 C      6.0972     6.0000    -0.0972     4.1642     4.1607     0.0035
  2 C      6.0451     6.0000    -0.0451     3.9124     3.0672     0.8452
  3 C      5.9178     6.0000     0.0822     4.0550     4.0548     0.0002
  4 C      5.9859     6.0000     0.0141     4.1299     4.1299     0.0000
  5 C      5.9703     6.0000     0.0297     4.1245     4.1244     0.0000
  6 H      1.0105     1.0000    -0.0105     0.9735     0.9733     0.0001
  7 H      1.0100     1.0000    -0.0100     0.9855     0.9854     0.0000
  8 H      1.0116     1.0000    -0.0116     0.9704     0.9701     0.0003
  9 H      0.9805     1.0000     0.0195     0.9887     0.9859     0.0028
 10 H      0.9838     1.0000     0.0162     0.9799     0.9772     0.0028
 11 H      1.0114     1.0000    -0.0114     0.9847     0.9847     0.0000
 12 H      1.0139     1.0000    -0.0139     0.9734     0.9734     0.0000
 13 H      1.0082     1.0000    -0.0082     0.9733     0.9733     0.0000
 14 H      1.0054     1.0000    -0.0054     0.9723     0.9723     0.0000
 15 H      1.0092     1.0000    -0.0092     0.9774     0.9774     0.0000
 16 H      1.0055     1.0000    -0.0055     0.9735     0.9735     0.0000

  Mayer bond orders larger than 0.100000
B(  0-C ,  1-C ) :   1.0313 B(  0-C ,  5-C ) :   1.1109 B(  0-C ,  6-H ) :   0.9333 
B(  0-C ,  7-H ) :   0.9420 B(  1-C ,  2-C ) :   1.0847 B(  1-C ,  3-C ) :   1.0519 
B(  1-C ,  8-H ) :   0.9200 B(  2-C ,  9-H ) :   0.9704 B(  2-C , 10-H ) :   0.9678 
B(  3-C ,  4-C ) :   1.1147 B(  3-C , 11-H ) :   0.9406 B(  3-C , 12-H ) :   0.9302 
B(  4-C ,  5-C ) :   1.1114 B(  4-C , 13-H ) :   0.9376 B(  4-C , 14-H ) :   0.9370 
B(  5-C , 15-H ) :   0.9360 B(  5-C , 16-H ) :   0.9373 

-------
TIMINGS
-------

Total SCF time: 0 days 0 hours 0 min 40 sec 

Total time                  ....      40.693 sec
Sum of individual times     ....      40.394 sec  ( 99.3%)

Fock matrix formation       ....      38.597 sec  ( 94.9%)
  Split-RI-J                ....       3.470 sec  (  9.0% of F)
  Chain of spheres X        ....      29.638 sec  ( 76.8% of F)
  COS-X 1 center corr.      ....       0.000 sec  (  0.0% of F)
  XC integration            ....       5.392 sec  ( 14.0% of F)
    Basis function eval.    ....       1.439 sec  ( 26.7% of XC)
    Density eval.           ....       1.262 sec  ( 23.4% of XC)
    XC-Functional eval.     ....       0.360 sec  (  6.7% of XC)
    XC-Potential eval.      ....       2.138 sec  ( 39.6% of XC)
Diagonalization             ....       0.066 sec  (  0.2%)
Density matrix formation    ....       0.006 sec  (  0.0%)
Population analysis         ....       0.005 sec  (  0.0%)
Initial guess               ....       0.320 sec  (  0.8%)
Orbital Transformation      ....       0.000 sec  (  0.0%)
Orbital Orthonormalization  ....       0.000 sec  (  0.0%)
DIIS solution               ....       0.017 sec  (  0.0%)
Grid generation             ....       1.383 sec  (  3.4%)


-------------------------------------------------------------------------------
                          DFT DISPERSION CORRECTION                            
                                                                               
                              DFTD3 V3.1  Rev 1                                
                          USING Becke-Johnson damping                          
-------------------------------------------------------------------------------
Gaussians B3LYP functional is recognized, using regular B3LYP params
Active option DFTDOPT                   ...         4   

molecular C6(AA) [au] = 2084.862700 


            DFT-D V3
 parameters
 s6 scaling factor         :     1.0000 
 a1 scaling factor         :     0.3981 
 s8 scaling factor         :     1.9889 
 a2 scaling factor         :     4.4211 
 ad hoc parameters k1-k3   :    16.0000     1.3333    -4.0000 

 Edisp/kcal,au: -15.674976866383  -0.024979663005 
 E6   /kcal   :  -7.620289835 
 E8   /kcal   :  -8.054687032 
 % E8         :  51.385639037 

-------------------------   ----------------
Dispersion correction           -0.024979663
-------------------------   ----------------


-------------------------   --------------------
FINAL SINGLE POINT ENERGY      -235.052108083573
-------------------------   --------------------

------------------------------------------------------------------------------
                         ORCA SCF GRADIENT CALCULATION
------------------------------------------------------------------------------

Gradient of the Kohn-Sham DFT energy:
Kohn-Sham wavefunction type      ... UKS
Hartree-Fock exchange scaling    ...    0.200
Number of operators              ...    2
Number of atoms                  ...   17
Basis set dimensions             ...  139
Integral neglect threshold       ... 2.5e-11
Integral primitive cutoff        ... 2.5e-12

Nuclear repulsion gradient       ... done
One Electron Gradient            ... done
Pre-screening matrix             ... done
RI-J gradient                    ... done
COSX-gradient                    ... done
Exchange-correlation gradient    ... done
Dispersion correction            ... done

------------------
CARTESIAN GRADIENT
------------------

   1   C   :   -0.000591348   -0.002914697   -0.004068778
   2   C   :   -0.001516925    0.002037543    0.007745285
   3   C   :    0.001907373   -0.002596041    0.002549345
   4   C   :    0.000924503    0.001468933   -0.001772589
   5   C   :    0.001757420    0.000171492    0.001153199
   6   C   :    0.000961816   -0.000871535    0.002009217
   7   H   :    0.002420523    0.001333755    0.007678967
   8   H   :    0.004943277    0.006126230   -0.001159649
   9   H   :    0.004680307   -0.002555919    0.002251496
  10   H   :   -0.011348971   -0.001719158   -0.010571146
  11   H   :    0.012105624    0.004227717   -0.006710956
  12   H   :    0.000142801   -0.007540051   -0.001885779
  13   H   :    0.001047736   -0.002949876    0.006531292
  14   H   :   -0.004954128   -0.001906527   -0.005737444
  15   H   :   -0.006264837   -0.002206912    0.003345694
  16   H   :   -0.002135245    0.004288976   -0.005522380
  17   H   :   -0.004074425    0.005027890    0.003090170

Difference to translation invariance:
           :    0.0000055010   -0.0005781805   -0.0010740566

Norm of the cartesian gradient     ...    0.0327963771
RMS gradient                       ...    0.0045924114
MAX gradient                       ...    0.0121056240

-------
TIMINGS
-------

Total SCF gradient time            ...       10.195 sec

One electron gradient       ....       0.081 sec  (  0.8%)
Prescreening matrices       ....       0.056 sec  (  0.6%)
RI-J Coulomb gradient       ....       0.713 sec  (  7.0%)
COSX gradient               ....       4.198 sec  ( 41.2%)
XC gradient                 ....       4.850 sec  ( 47.6%)
------------------------------------------------------------------------------
[...]
      pz      :     0.005922  p :     0.023286
      px      :     0.007447
      py      :     0.009917
 11 H s       :     0.983748  s :     0.983748
      pz      :     0.006659  p :     0.021946
      px      :     0.003816
      py      :     0.011471
 12 H s       :     0.985323  s :     0.985323
      pz      :     0.013280  p :     0.022090
      px      :     0.003958
      py      :     0.004852
 13 H s       :     0.983603  s :     0.983603
      pz      :     0.012907  p :     0.022447
      px      :     0.005462
      py      :     0.004078
 14 H s       :     0.980958  s :     0.980958
      pz      :     0.007802  p :     0.022082
      px      :     0.009908
      py      :     0.004371
 15 H s       :     0.978815  s :     0.978815
      pz      :     0.010144  p :     0.022339
      px      :     0.004711
      py      :     0.007484
 16 H s       :     0.982313  s :     0.982313
      pz      :     0.010914  p :     0.022301
      px      :     0.005611
      py      :     0.005776

SPIN
  0 C s       :    -0.000740  s :    -0.000740
      pz      :     0.000065  p :     0.011421
      px      :     0.002308
      py      :     0.009048
      dz2     :     0.000021  d :     0.000042
      dxz     :     0.000039
      dyz     :    -0.000065
      dx2y2   :     0.000049
      dxy     :    -0.000001
  1 C s       :    -0.020548  s :    -0.020548
      pz      :    -0.036603  p :    -0.065268
      px      :    -0.019890
      py      :    -0.008775
      dz2     :     0.000161  d :     0.007059
      dxz     :     0.005354
      dyz     :     0.001195
      dx2y2   :     0.000179
      dxy     :     0.000170
  2 C s       :     0.104136  s :     0.104136
      pz      :     0.052370  p :     0.982958
      px      :     0.736642
      py      :     0.193946
      dz2     :    -0.000619  d :    -0.002327
      dxz     :    -0.000097
      dyz     :     0.000074
      dx2y2   :    -0.000688
      dxy     :    -0.000997
  3 C s       :    -0.001791  s :    -0.001791
      pz      :    -0.000772  p :     0.006757
      px      :     0.004544
      py      :     0.002985
      dz2     :    -0.000017  d :    -0.000064
      dxz     :    -0.000024
      dyz     :    -0.000050
      dx2y2   :    -0.000009
      dxy     :     0.000037
  4 C s       :     0.000762  s :     0.000762
      pz      :     0.001827  p :     0.005472
      px      :     0.003660
      py      :    -0.000015
      dz2     :    -0.000001  d :     0.000069
      dxz     :     0.000049
      dyz     :     0.000004
      dx2y2   :     0.000021
      dxy     :    -0.000003
  5 C s       :     0.000441  s :     0.000441
      pz      :    -0.000018  p :     0.002503
      px      :     0.001527
      py      :     0.000993
      dz2     :     0.000002  d :     0.000056
      dxz     :    -0.000004
      dyz     :     0.000002
      dx2y2   :    -0.000001
      dxy     :     0.000057
  6 H s       :     0.003131  s :     0.003131
      pz      :     0.000007  p :     0.000007
      px      :    -0.000006
      py      :     0.000006
  7 H s       :    -0.000905  s :    -0.000905
      pz      :    -0.000000  p :     0.000075
      px      :     0.000014
      py      :     0.000061
  8 H s       :     0.061308  s :     0.061308
      pz      :    -0.000169  p :    -0.000040
      px      :     0.000083
      py      :     0.000047
  9 H s       :    -0.052479  s :    -0.052479
      pz      :     0.000213  p :     0.005294
      px      :     0.004140
      py      :     0.000941
 10 H s       :    -0.052443  s :    -0.052443
      pz      :     0.000165  p :     0.005238
      px      :     0.003861
      py      :     0.001212
 11 H s       :    -0.000953  s :    -0.000953
      pz      :     0.000004  p :     0.000054
      px      :     0.000038
      py      :     0.000012
 12 H s       :     0.000660  s :     0.000660
      pz      :     0.000019  p :     0.000009
      px      :    -0.000005
      py      :    -0.000004
 13 H s       :     0.000374  s :     0.000374
      pz      :     0.000108  p :     0.000185
      px      :     0.000075
      py      :     0.000002
 14 H s       :    -0.000368  s :    -0.000368
      pz      :     0.000014  p :     0.000026
      px      :     0.000014
      py      :    -0.000002
 15 H s       :     0.000266  s :     0.000266
      pz      :     0.000034  p :     0.000064
      px      :     0.000024
      py      :     0.000006
 16 H s       :    -0.000462  s :    -0.000462
      pz      :     0.000009  p :     0.000019
      px      :     0.000005
      py      :     0.000005


                     *******************************
                     * LOEWDIN POPULATION ANALYSIS *
                     *******************************

-------------------------------------------
LOEWDIN ATOMIC CHARGES AND SPIN POPULATIONS
-------------------------------------------
   0 C :   -0.024288    0.016575
   1 C :   -0.052898   -0.008709
   2 C :   -0.024110    0.921236
   3 C :   -0.025330    0.010293
   4 C :   -0.033672    0.003294
   5 C :   -0.034436    0.000809
   6 H :    0.016968    0.001541
   7 H :    0.017505   -0.000117
   8 H :    0.028385    0.054348
   9 H :    0.010774   -0.000553
  10 H :    0.010339   -0.000678
  11 H :    0.016663   -0.000400
  12 H :    0.017150    0.000099
  13 H :    0.018606    0.001794
  14 H :    0.018388    0.000084
  15 H :    0.020543    0.000576
  16 H :    0.019414   -0.000190

----------------------------------------------------
LOEWDIN REDUCED ORBITAL CHARGES AND SPIN POPULATIONS
----------------------------------------------------
CHARGE
  0 C s       :     2.851338  s :     2.851338
      pz      :     1.052243  p :     3.087914
      px      :     1.019116
      py      :     1.016555
      dz2     :     0.020372  d :     0.085037
      dxz     :     0.011924
      dyz     :     0.012874
      dx2y2   :     0.023491
      dxy     :     0.016376
  1 C s       :     2.849439  s :     2.849439
      pz      :     1.044948  p :     3.094847
      px      :     1.026818
      py      :     1.023080
      dz2     :     0.029020  d :     0.108613
      dxz     :     0.021963
      dyz     :     0.017506
      dx2y2   :     0.019285
      dxy     :     0.020838
  2 C s       :     2.932015  s :     2.932015
      pz      :     1.025132  p :     3.037427
      px      :     0.978748
      py      :     1.033546
      dz2     :     0.016243  d :     0.054667
      dxz     :     0.009054
      dyz     :     0.021275
      dx2y2   :     0.003375
      dxy     :     0.004720
  3 C s       :     2.848867  s :     2.848867
      pz      :     1.051022  p :     3.088786
      px      :     1.010772
      py      :     1.026992
      dz2     :     0.022747  d :     0.087677
      dxz     :     0.009384
      dyz     :     0.014067
      dx2y2   :     0.017777
      dxy     :     0.023701
  4 C s       :     2.847094  s :     2.847094
      pz      :     1.062583  p :     3.101129
      px      :     1.027950
      py      :     1.010596
      dz2     :     0.019028  d :     0.085449
      dxz     :     0.017675
      dyz     :     0.008542
      dx2y2   :     0.018756
      dxy     :     0.021449
  5 C s       :     2.848497  s :     2.848497
      pz      :     1.065311  p :     3.102437
      px      :     1.013839
      py      :     1.023286
      dz2     :     0.013219  d :     0.083502
      dxz     :     0.012581
      dyz     :     0.019678
      dx2y2   :     0.023601
      dxy     :     0.014424
  6 H s       :     0.917833  s :     0.917833
      pz      :     0.037529  p :     0.065199
      px      :     0.014740
      py      :     0.012931
  7 H s       :     0.917130  s :     0.917130
      pz      :     0.018689  p :     0.065365
      px      :     0.018877
      py      :     0.027800
  8 H s       :     0.906215  s :     0.906215
      pz      :     0.018178  p :     0.065401
      px      :     0.031347
      py      :     0.015876
  9 H s       :     0.915791  s :     0.915791
      pz      :     0.020554  p :     0.073435
      px      :     0.019459
      py      :     0.033422
 10 H s       :     0.916460  s :     0.916460
      pz      :     0.017591  p :     0.073201
      px      :     0.025758
      py      :     0.029852
 11 H s       :     0.918346  s :     0.918346
      pz      :     0.018094  p :     0.064991
      px      :     0.013164
      py      :     0.033733
 12 H s       :     0.918064  s :     0.918064
      pz      :     0.038206  p :     0.064786
      px      :     0.013130
      py      :     0.013450
 13 H s       :     0.916042  s :     0.916042
      pz      :     0.036995  p :     0.065352
      px      :     0.015288
      py      :     0.013069
 14 H s       :     0.916453  s :     0.916453
      pz      :     0.021655  p :     0.065160
      px      :     0.029194
      py      :     0.014310
 15 H s       :     0.914105  s :     0.914105
      pz      :     0.028435  p :     0.065352
      px      :     0.014706
      py      :     0.022211
 16 H s       :     0.915364  s :     0.915364
      pz      :     0.030769  p :     0.065223
      px      :     0.017191
      py      :     0.017263

SPIN
  0 C s       :     0.005033  s :     0.005033
      pz      :     0.001828  p :     0.011678
      px      :     0.001283
      py      :     0.008567
      dz2     :    -0.000022  d :    -0.000136
      dxz     :     0.000058
      dyz     :    -0.000174
      dx2y2   :     0.000009
      dxy     :    -0.000007
  1 C s       :    -0.004454  s :    -0.004454
      pz      :    -0.015746  p :    -0.022326
      px      :    -0.003643
      py      :    -0.002937
      dz2     :     0.001398  d :     0.018071
      dxz     :     0.012545
      dyz     :     0.002888
      dx2y2   :     0.000662
      dxy     :     0.000579
  2 C s       :     0.032606  s :     0.032606
      pz      :     0.044675  p :     0.892209
      px      :     0.684553
      py      :     0.162982
      dz2     :    -0.001093  d :    -0.003578
      dxz     :    -0.000165
      dyz     :    -0.000643
      dx2y2   :    -0.000686
      dxy     :    -0.000991
  3 C s       :     0.003123  s :     0.003123
      pz      :     0.000648  p :     0.007471
      px      :     0.003807
      py      :     0.003016
      dz2     :    -0.000122  d :    -0.000301
      dxz     :    -0.000062
      dyz     :    -0.000133
      dx2y2   :     0.000009
      dxy     :     0.000007
  4 C s       :    -0.000173  s :    -0.000173
      pz      :     0.002183  p :     0.003286
      px      :     0.001165
      py      :    -0.000063
      dz2     :    -0.000003  d :     0.000181
      dxz     :     0.000090
      dyz     :     0.000002
      dx2y2   :     0.000068
      dxy     :     0.000023
  5 C s       :    -0.000278  s :    -0.000278
      pz      :     0.000304  p :     0.000901
      px      :     0.000160
      py      :     0.000437
      dz2     :     0.000016  d :     0.000186
      dxz     :    -0.000010
      dyz     :     0.000001
      dx2y2   :     0.000035
      dxy     :     0.000144
  6 H s       :     0.001221  s :     0.001221
      pz      :     0.000206  p :     0.000321
      px      :    -0.000013
      py      :     0.000128
  7 H s       :    -0.000484  s :    -0.000484
      pz      :    -0.000008  p :     0.000367
      px      :     0.000047
      py      :     0.000328
  8 H s       :     0.054932  s :     0.054932
      pz      :     0.000036  p :    -0.000584
      px      :    -0.000528
      py      :    -0.000092
  9 H s       :    -0.023392  s :    -0.023392
      pz      :     0.001883  p :     0.022839
      px      :     0.015688
      py      :     0.005267
 10 H s       :    -0.023347  s :    -0.023347
      pz      :     0.001624  p :     0.022669
      px      :     0.015695
      py      :     0.005350
 11 H s       :    -0.000612  s :    -0.000612
      pz      :     0.000009  p :     0.000212
      px      :     0.000145
      py      :     0.000058
 12 H s       :    -0.000143  s :    -0.000143
      pz      :     0.000138  p :     0.000242
      px      :     0.000013
      py      :     0.000090
 13 H s       :     0.001280  s :     0.001280
      pz      :     0.000368  p :     0.000514
      px      :     0.000146
      py      :    -0.000001
 14 H s       :    -0.000125  s :    -0.000125
      pz      :     0.000154  p :     0.000209
      px      :     0.000057
      py      :    -0.000002
 15 H s       :     0.000425  s :     0.000425
      pz      :     0.000108  p :     0.000151
      px      :     0.000044
      py      :    -0.000000
 16 H s       :    -0.000285  s :    -0.000285
      pz      :     0.000051  p :     0.000095
      px      :     0.000013
      py      :     0.000031


                      *****************************
                      * MAYER POPULATION ANALYSIS *
                      *****************************

  NA   - Mulliken gross atomic population
  ZA   - Total nuclear charge
  QA   - Mulliken gross atomic charge
  VA   - Mayer's total valence
  BVA  - Mayer's bonded valence
  FA   - Mayer's free valence

  ATOM       NA         ZA         QA         VA         BVA        FA
  0 C      5.9411     6.0000     0.0589     4.0588     4.0585     0.0003
  1 C      6.0940     6.0000    -0.0940     4.1485     4.1453     0.0032
  2 C      6.0620     6.0000    -0.0620     3.8994     3.0398     0.8596
  3 C      5.9562     6.0000     0.0438     4.0472     4.0471     0.0001
  4 C      5.9723     6.0000     0.0277     4.1060     4.1059     0.0000
  5 C      5.9850     6.0000     0.0150     4.1112     4.1111     0.0000
  6 H      1.0130     1.0000    -0.0130     0.9725     0.9725     0.0000
  7 H      1.0063     1.0000    -0.0063     0.9823     0.9823     0.0000
  8 H      0.9919     1.0000     0.0081     0.9705     0.9664     0.0040
  9 H      0.9739     1.0000     0.0261     0.9844     0.9816     0.0028
 10 H      0.9763     1.0000     0.0237     0.9832     0.9804     0.0028
 11 H      1.0057     1.0000    -0.0057     0.9815     0.9815     0.0000
 12 H      1.0074     1.0000    -0.0074     0.9737     0.9737     0.0000
 13 H      1.0061     1.0000    -0.0061     0.9789     0.9789     0.0000
 14 H      1.0030     1.0000    -0.0030     0.9731     0.9731     0.0000
 15 H      1.0012     1.0000    -0.0012     0.9737     0.9737     0.0000
 16 H      1.0046     1.0000    -0.0046     0.9717     0.9717     0.0000

  Mayer bond orders larger than 0.100000
B(  0-C ,  1-C ) :   1.0602 B(  0-C ,  5-C ) :   1.1048 B(  0-C ,  6-H ) :   0.9321 
B(  0-C ,  7-H ) :   0.9422 B(  1-C ,  2-C ) :   1.0687 B(  1-C ,  3-C ) :   1.0476 
B(  1-C ,  8-H ) :   0.9066 B(  2-C ,  9-H ) :   0.9648 B(  2-C , 10-H ) :   0.9638 
B(  3-C ,  4-C ) :   1.0990 B(  3-C , 11-H ) :   0.9432 B(  3-C , 12-H ) :   0.9380 
B(  4-C ,  5-C ) :   1.1043 B(  4-C , 13-H ) :   0.9365 B(  4-C , 14-H ) :   0.9439 
B(  5-C , 15-H ) :   0.9411 B(  5-C , 16-H ) :   0.9427 

-------
TIMINGS
-------

Total SCF time: 0 days 0 hours 0 min 22 sec 

Total time                  ....      22.554 sec
Sum of individual times     ....      22.435 sec  ( 99.5%)

Fock matrix formation       ....      21.144 sec  ( 93.7%)
  Split-RI-J                ....       1.737 sec  (  8.2% of F)
  Chain of spheres X        ....      16.658 sec  ( 78.8% of F)
  COS-X 1 center corr.      ....       0.000 sec  (  0.0% of F)
  XC integration            ....       2.703 sec  ( 12.8% of F)
    Basis function eval.    ....       0.788 sec  ( 29.1% of XC)
    Density eval.           ....       0.663 sec  ( 24.5% of XC)
    XC-Functional eval.     ....       0.194 sec  (  7.2% of XC)
    XC-Potential eval.      ....       0.983 sec  ( 36.4% of XC)
Diagonalization             ....       0.030 sec  (  0.1%)
Density matrix formation    ....       0.003 sec  (  0.0%)
Population analysis         ....       0.005 sec  (  0.0%)
Initial guess               ....       0.004 sec  (  0.0%)
Orbital Transformation      ....       0.000 sec  (  0.0%)
Orbital Orthonormalization  ....       0.002 sec  (  0.0%)
DIIS solution               ....       0.007 sec  (  0.0%)
Grid generation             ....       1.242 sec  (  5.5%)


-------------------------------------------------------------------------------
                          DFT DISPERSION CORRECTION                            
                                                                               
                              DFTD3 V3.1  Rev 1                                
                          USING Becke-Johnson damping                          
-------------------------------------------------------------------------------
Gaussians B3LYP functional is recognized, using regular B3LYP params
Active option DFTDOPT                   ...         4   

molecular C6(AA) [au] = 2085.964722 


            DFT-D V3
 parameters
 s6 scaling factor         :     1.0000 
 a1 scaling factor         :     0.3981 
 s8 scaling factor         :     1.9889 
 a2 scaling factor         :     4.4211 
 ad hoc parameters k1-k3   :    16.0000     1.3333    -4.0000 

 Edisp/kcal,au: -15.385525653660  -0.024518393185 
 E6   /kcal   :  -7.482830981 
 E8   /kcal   :  -7.902694673 
 % E8         :  51.364476267 

-------------------------   ----------------
Dispersion correction           -0.024518393
-------------------------   ----------------


-------------------------   --------------------
FINAL SINGLE POINT ENERGY      -235.054569617529
-------------------------   --------------------

                                *** OPTIMIZATION RUN DONE ***

                            ***************************************
                            *     ORCA property calculations      *
                            ***************************************

                                    ---------------------
                                    Active property flags
                                    ---------------------
   (+) Dipole Moment


------------------------------------------------------------------------------
                       ORCA ELECTRIC PROPERTIES CALCULATION
------------------------------------------------------------------------------

Dipole Moment Calculation                       ... on
Quadrupole Moment Calculation                   ... off
Polarizability Calculation                      ... off
GBWName                                         ... 523.gbw
Electron density file                           ... 523.scfp
The origin for moment calculation is the CENTER OF MASS  = (-0.361183,  0.033204  0.549505)

-------------
DIPOLE MOMENT
-------------
                                X             Y             Z
Electronic contribution:     -0.66063       0.27706       0.04356
Nuclear contribution   :      0.64217      -0.26432      -0.13496
                        -----------------------------------------
Total Dipole Moment    :     -0.01846       0.01274      -0.09140
                        -----------------------------------------
Magnitude (a.u.)       :      0.09411
Magnitude (Debye)      :      0.23921



--------------------
Rotational spectrum 
--------------------
 
Rotational constants in cm-1:     0.166174     0.117752     0.093352 
Rotational constants in MHz :  4981.783962  3530.118519  2798.622808 

 Dipole components along the rotational axes: 
x,y,z [a.u.] :    -0.026209    -0.001875    -0.090369 
x,y,z [Debye]:    -0.066618    -0.004765    -0.229701 

 

Timings for individual modules:

Sum of individual times         ...      823.798 sec (=  13.730 min)
GTO integral calculation        ...        3.761 sec (=   0.063 min)   0.5 %
SCF iterations                  ...      628.191 sec (=  10.470 min)  76.3 %
SCF Gradient evaluation         ...      190.410 sec (=   3.174 min)  23.1 %
Geometry relaxation             ...        1.436 sec (=   0.024 min)   0.2 %
                             ****ORCA TERMINATED NORMALLY****
TOTAL RUN TIME: 0 days 0 hours 13 minutes 45 seconds 835 msec
