
                                 *****************
                                 * O   R   C   A *
                                 *****************

           --- An Ab Initio, DFT and Semiempirical electronic structure package ---

                  #######################################################
                  #                        -***-                        #
                  #          Department of theory and spectroscopy      #
                  #               Directorship: Frank Neese             #
                  #        Max Planck Institute fuer Kohlenforschung    #
                  #                Kaiser Wilhelm Platz 1               #
                  #                 D-45470 Muelheim/Ruhr               #
                  #                      Germany                        #
                  #                                                     #
                  #                  All rights reserved                #
                  #                        -***-                        #
                  #######################################################


                         Program Version 4.2.0 -  RELEASE  -


 With contributions from (in alphabetic order):
   Daniel Aravena         : Magnetic Suceptibility
   Michael Atanasov       : Ab Initio Ligand Field Theory (pilot matlab implementation)
   Alexander A. Auer      : GIAO ZORA, VPT2
   Ute Becker             : Parallelization
   Giovanni Bistoni       : ED, misc. LED, open-shell LED, HFLED
   Martin Brehm           : Molecular dynamics
   Dmytro Bykov           : SCF Hessian
   Vijay G. Chilkuri      : MRCI spin determinant printing, contributions to CSF-ICE
   Dipayan Datta          : RHF DLPNO-CCSD density
   Achintya Kumar Dutta   : EOM-CC, STEOM-CC
   Dmitry Ganyushin       : Spin-Orbit,Spin-Spin,Magnetic field MRCI
   Miquel Garcia          : C-PCM Hessian, Gaussian charge scheme
   Yang Guo               : DLPNO-NEVPT2, CIM, IAO-localization
   Andreas Hansen         : Spin unrestricted coupled pair/coupled cluster methods
   Benjamin Helmich-Paris : CASSCF linear response (MC-RPA)
   Lee Huntington         : MR-EOM, pCC
   Robert Izsak           : Overlap fitted RIJCOSX, COSX-SCS-MP3, EOM
   Christian Kollmar      : KDIIS, OOCD, Brueckner-CCSD(T), CCSD density
   Simone Kossmann        : Meta GGA functionals, TD-DFT gradient, OOMP2, MP2 Hessian
   Martin Krupicka        : AUTO-CI
   Lucas Lang             : DCDCAS
   Dagmar Lenk            : GEPOL surface, SMD
   Dimitrios Liakos       : Extrapolation schemes; Compound Job, initial MDCI parallelization
   Dimitrios Manganas     : Further ROCIS development; embedding schemes
   Dimitrios Pantazis     : SARC Basis sets
   Taras Petrenko         : DFT Hessian,TD-DFT gradient, ASA, ECA, R-Raman, ABS, FL, XAS/XES, NRVS
   Peter Pinski           : DLPNO-MP2, DLPNO-MP2 Gradient
   Christoph Reimann      : Effective Core Potentials
   Marius Retegan         : Local ZFS, SOC
   Christoph Riplinger    : Optimizer, TS searches, QM/MM, DLPNO-CCSD(T), (RO)-DLPNO pert. Triples
   Tobias Risthaus        : Range-separated hybrids, TD-DFT gradient, RPA, STAB
   Michael Roemelt        : Original ROCIS implementation
   Masaaki Saitow         : Open-shell DLPNO-CCSD energy and density
   Barbara Sandhoefer     : DKH picture change effects
   Avijit Sen             : IP-ROCIS
   Kantharuban Sivalingam : CASSCF convergence, NEVPT2, FIC-MRCI
   Bernardo de Souza      : ESD, SOC TD-DFT
   Georgi Stoychev        : AutoAux, RI-MP2 NMR
   Willem Van den Heuvel  : Paramagnetic NMR
   Boris Wezisla          : Elementary symmetry handling
   Frank Wennmohs         : Technical directorship


 We gratefully acknowledge several colleagues who have allowed us to
 interface, adapt or use parts of their codes:
   Stefan Grimme, W. Hujo, H. Kruse,             : VdW corrections, initial TS optimization,
                  C. Bannwarth                     DFT functionals, gCP, sTDA/sTD-DF
   Ed Valeev, F. Pavosevic, A. Kumar             : LibInt (2-el integral package), F12 methods
   Garnet Chan, S. Sharma, J. Yang, R. Olivares  : DMRG
   Ulf Ekstrom                                   : XCFun DFT Library
   Mihaly Kallay                                 : mrcc  (arbitrary order and MRCC methods)
   Andreas Klamt, Michael Diedenhofen            : otool_cosmo (COSMO solvation model)
   Jiri Pittner, Ondrej Demel                    : Mk-CCSD
   Frank Weinhold                                : gennbo (NPA and NBO analysis)
   Christopher J. Cramer and Donald G. Truhlar   : smd solvation model
   Lars Goerigk                                  : TD-DFT with DH, B97 family of functionals
   V. Asgeirsson, H. Jonsson                     : NEB implementation
   FAccTs GmbH                                   : IRC, NEB, NEB-TS, Multilevel, MM, QM/MM, CI optimization
   S Lehtola, MJT Oliveira, MAL Marques          : LibXC Library


 Your calculation uses the libint2 library for the computation of 2-el integrals
 For citations please refer to: http://libint.valeyev.net

 Your ORCA version has been built with support for libXC version: 4.2.3
 For citations please refer to: https://tddft.org/programs/libxc/

 This ORCA versions uses:
   CBLAS   interface :  Fast vector & matrix operations
   LAPACKE interface :  Fast linear algebra routines
   SCALAPACK package :  Parallel linear algebra routines


Your calculation utilizes the atom-pairwise dispersion correction
with the Becke-Johnson damping scheme (D3BJ)
Cite in your paper:
S.Grimme, S.Ehrlich, L.Goerigk, J Comput Chem, (2011), 32, 1456–1465 
S.Grimme, J.Antony, S.Ehrlich and H.Krieg, J.Chem.Phys., 132, (2010), 154104 
   

----- Orbital basis set information -----
Your calculation utilizes the basis: def2-SVP
   F. Weigend and R. Ahlrichs, Phys. Chem. Chem. Phys. 7, 3297 (2005).

----- AuxJ basis set information -----
Your calculation utilizes the auxiliary basis: def2/J
   F. Weigend, Phys. Chem. Chem. Phys. 8, 1057 (2006).

================================================================================
                                        WARNINGS
                       Please study these warnings very carefully!
================================================================================


WARNING: Geometry Optimization
  ===> : Switching off AutoStart
         For restart on a previous wavefunction, please use MOREAD

INFO   : the flag for use of LIBINT has been found!

================================================================================
                                       INPUT FILE
================================================================================
NAME = 619.inp
|  1> # ORCA input file
|  2> # SCF done        -32.785882141601          0.000672777070
|  3> ! B3LYP/G D3BJ Opt RIJCOSX def2-SVP def2/J
|  4> * xyz 0 1
|  5>    C        1.45647         1.22337        -0.08529
|  6>    S        2.65516         0.00162         0.06525
|  7>    C        1.44177        -1.20962         0.18371
|  8>    C        0.18464        -0.69647         0.11074
|  9>    C        0.19386         0.71958        -0.04873
| 10>    C       -1.06058         1.52546        -0.19668
| 11>    C       -2.28292         0.73975         0.26994
| 12>    S       -2.41500         0.74371         2.09652
| 13>    C       -2.28788        -0.69668        -0.28409
| 14>    O       -2.34901        -0.68107        -1.69013
| 15>    C       -1.07978        -1.49194         0.22464
| 16>    H        1.75392         2.24689        -0.19738
| 17>    H        1.72764        -2.23533         0.30474
| 18>    H       -1.19911         1.79883        -1.24913
| 19>    H       -0.98176         2.45817         0.36700
| 20>    H       -3.19497         1.24315        -0.05989
| 21>    H       -1.13856         0.44680         2.33107
| 22>    H       -3.21072        -1.19308         0.03550
| 23>    H       -1.48941        -0.40360        -2.02978
| 24>    H       -1.00073        -2.41781        -0.34930
| 25>    H       -1.24826        -1.76935         1.26875
| 26> *
| 27> 
| 28>                          ****END OF INPUT****
================================================================================

                       *****************************
                       * Geometry Optimization Run *
                       *****************************

Geometry optimization settings:
Update method            Update   .... BFGS
Choice of coordinates    CoordSys .... Z-matrix Internals
Initial Hessian          InHess   .... Almoef's Model

Convergence Tolerances:
Energy Change            TolE     ....  5.0000e-06 Eh
Max. Gradient            TolMAXG  ....  3.0000e-04 Eh/bohr
RMS Gradient             TolRMSG  ....  1.0000e-04 Eh/bohr
Max. Displacement        TolMAXD  ....  4.0000e-03 bohr
RMS Displacement         TolRMSD  ....  2.0000e-03 bohr
Strict Convergence                ....  False
------------------------------------------------------------------------------
                        ORCA OPTIMIZATION COORDINATE SETUP
------------------------------------------------------------------------------

The optimization will be done in new redundant internal coordinates
Making redundant internal coordinates   ...  (new redundants) done
Evaluating the initial hessian          ...  (Almloef) done
Evaluating the coordinates              ...  done
Calculating the B-matrix                .... done
Calculating the G-matrix                .... done
Diagonalizing the G-matrix              .... done
The first mode is                       ....   65
The number of degrees of freedom        ....   57

    -----------------------------------------------------------------
                    Redundant Internal Coordinates


    -----------------------------------------------------------------
         Definition                    Initial Value    Approx d2E/dq
    -----------------------------------------------------------------
      1. B(S   1,C   0)                  1.7182         0.504537   
      2. B(C   2,S   1)                  1.7186         0.503859   
      3. B(C   3,C   2)                  1.3598         0.698136   
      4. B(C   4,C   3)                  1.4250         0.549350   
      5. B(C   4,C   0)                  1.3599         0.697851   
      6. B(C   5,C   4)                  1.4983         0.419688   
      7. B(C   6,C   5)                  1.5262         0.378871   
      8. B(S   7,C   6)                  1.8314         0.332932   
      9. B(C   8,C   6)                  1.5396         0.360657   
     10. B(O   9,C   8)                  1.4075         0.524841   
     11. B(C  10,C   8)                  1.5332         0.369188   
     12. B(C  10,C   3)                  1.4982         0.419919   
     13. B(H  11,C   0)                  1.0717         0.385080   
     14. B(H  12,C   2)                  1.0717         0.385200   
     15. B(H  13,C   5)                  1.0962         0.352039   
     16. B(H  14,C   5)                  1.0927         0.356604   
     17. B(H  15,C   6)                  1.0927         0.356521   
     18. B(H  16,S   7)                  1.3313         0.400080   
     19. B(H  17,C   8)                  1.0955         0.352859   
     20. B(H  18,O   9)                  0.9650         0.510455   
     21. B(H  19,C  10)                  1.0922         0.357207   
     22. B(H  20,C  10)                  1.0934         0.355640   
     23. A(S   1,C   0,C   4)          112.4549         0.451025   
     24. A(S   1,C   0,H  11)          119.6441         0.362688   
     25. A(C   4,C   0,H  11)          127.9001         0.364216   
     26. A(C   0,S   1,C   2)           90.8380         0.448906   
     27. A(C   3,C   2,H  12)          127.8700         0.364261   
     28. A(S   1,C   2,C   3)          112.5242         0.450948   
     29. A(S   1,C   2,H  12)          119.6053         0.362624   
     30. A(C   4,C   3,C  10)          122.7916         0.396403   
     31. A(C   2,C   3,C  10)          125.1564         0.413539   
     32. A(C   2,C   3,C   4)          112.0256         0.433887   
     33. A(C   0,C   4,C   3)          112.1568         0.433855   
     34. A(C   3,C   4,C   5)          122.6905         0.396364   
     35. A(C   0,C   4,C   5)          125.1295         0.413469   
     36. A(H  13,C   5,H  14)          106.9503         0.289365   
     37. A(C   6,C   5,H  14)          109.8471         0.324549   
     38. A(C   4,C   5,H  14)          110.3522         0.330068   
     39. A(C   6,C   5,H  13)          108.7069         0.323863   
     40. A(C   4,C   5,H  13)          109.5573         0.329366   
     41. A(C   4,C   5,C   6)          111.3131         0.371574   
     42. A(C   8,C   6,H  15)          108.5729         0.321925   
     43. A(S   7,C   6,H  15)          103.8785         0.333804   
     44. A(C   5,C   6,H  15)          109.8182         0.324537   
     45. A(S   7,C   6,C   8)          111.1435         0.372787   
     46. A(C   5,C   6,C   8)          111.8938         0.362043   
     47. A(C   5,C   6,S   7)          111.1985         0.375969   
     48. A(C   6,S   7,H  16)           96.0898         0.364751   
     49. A(C   6,C   8,H  17)          108.6927         0.321381   
     50. A(C   6,C   8,C  10)          111.2228         0.360448   
     51. A(C   6,C   8,O   9)          110.4438         0.380527   
     52. A(C  10,C   8,H  17)          109.3857         0.322614   
     53. A(O   9,C   8,H  17)          105.0622         0.339894   
     54. A(O   9,C   8,C  10)          111.8050         0.382073   
     55. A(C   8,O   9,H  18)          108.4277         0.358584   
     56. A(C   8,C  10,H  20)          109.0889         0.323029   
     57. A(C   3,C  10,H  20)          109.7161         0.329950   
     58. A(C   8,C  10,H  19)          108.8062         0.323262   
     59. A(C   3,C  10,H  19)          110.4303         0.330190   
     60. A(H  19,C  10,H  20)          107.3304         0.289904   
     61. A(C   3,C  10,C   8)          111.3697         0.369958   
     62. D(C   2,S   1,C   0,H  11)   -179.8374         0.005276   
     63. D(C   2,S   1,C   0,C   4)     -0.1358         0.005276   
     64. D(C   3,C   2,S   1,C   0)      0.0037         0.005266   
     65. D(H  12,C   2,S   1,C   0)   -179.7629         0.005266   
     66. D(C  10,C   3,C   2,S   1)   -178.0417         0.034312   
     67. D(C   4,C   3,C   2,S   1)      0.1229         0.034312   
     68. D(C   4,C   3,C   2,H  12)    179.8657         0.034312   
     69. D(C  10,C   3,C   2,H  12)      1.7012         0.034312   
     70. D(C   0,C   4,C   3,C  10)    177.9885         0.020643   
     71. D(C   5,C   4,C   0,H  11)      1.6199         0.034281   
     72. D(C   5,C   4,C   3,C   2)    178.1024         0.020643   
     73. D(C   0,C   4,C   3,C   2)     -0.2264         0.020643   
     74. D(C   5,C   4,C   0,S   1)   -178.0515         0.034281   
     75. D(C   5,C   4,C   3,C  10)     -3.6827         0.020643   
     76. D(C   3,C   4,C   0,S   1)      0.2287         0.034281   
     77. D(C   3,C   4,C   0,H  11)    179.9001         0.034281   
     78. D(H  14,C   5,C   4,C   3)    139.8508         0.013025   
     79. D(H  13,C   5,C   4,C   3)   -102.6479         0.013025   
     80. D(H  13,C   5,C   4,C   0)     75.4594         0.013025   
     81. D(H  14,C   5,C   4,C   0)    -42.0419         0.013025   
     82. D(C   6,C   5,C   4,C   3)     17.6136         0.013025   
     83. D(C   6,C   5,C   4,C   0)   -164.2790         0.013025   
     84. D(H  15,C   6,C   5,H  14)     70.7026         0.011444   
     85. D(C   8,C   6,C   5,H  14)   -168.6531         0.011444   
     86. D(C   8,C   6,C   5,H  13)     74.6376         0.011444   
     87. D(C   8,C   6,C   5,C   4)    -46.1245         0.011444   
     88. D(H  15,C   6,C   5,C   4)   -166.7688         0.011444   
     89. D(S   7,C   6,C   5,H  14)    -43.7060         0.011444   
     90. D(S   7,C   6,C   5,H  13)   -160.4153         0.011444   
     91. D(H  15,C   6,C   5,H  13)    -46.0067         0.011444   
     92. D(S   7,C   6,C   5,C   4)     78.8226         0.011444   
     93. D(H  16,S   7,C   6,H  15)   -164.6100         0.003265   
     94. D(H  16,S   7,C   6,C   8)     78.8178         0.003265   
     95. D(H  16,S   7,C   6,C   5)    -46.5494         0.003265   
     96. D(H  17,C   8,C   6,S   7)     58.1403         0.010433   
     97. D(H  17,C   8,C   6,C   5)   -176.8821         0.010433   
     98. D(C  10,C   8,C   6,H  15)   -175.9999         0.010433   
     99. D(C  10,C   8,C   6,S   7)    -62.3432         0.010433   
    100. D(C  10,C   8,C   6,C   5)     62.6343         0.010433   
    101. D(O   9,C   8,C   6,H  15)     59.2489         0.010433   
    102. D(O   9,C   8,C   6,S   7)    172.9055         0.010433   
    103. D(H  17,C   8,C   6,H  15)    -55.5163         0.010433   
    104. D(O   9,C   8,C   6,C   5)    -62.1169         0.010433   
    105. D(H  18,O   9,C   8,H  17)   -169.6280         0.021856   
    106. D(H  18,O   9,C   8,C  10)    -51.0804         0.021856   
    107. D(H  18,O   9,C   8,C   6)     73.3380         0.021856   
    108. D(H  20,C  10,C   8,H  17)    -44.8593         0.010899   
    109. D(H  20,C  10,C   8,O   9)   -160.8032         0.010899   
    110. D(H  19,C  10,C   8,H  17)     71.9384         0.010899   
    111. D(H  19,C  10,C   8,O   9)    -44.0054         0.010899   
    112. D(H  19,C  10,C   8,C   6)   -167.9876         0.010899   
    113. D(C   3,C  10,C   8,H  17)   -166.1081         0.010899   
    114. D(C   3,C  10,C   8,O   9)     77.9480         0.010899   
    115. D(C   3,C  10,C   8,C   6)    -46.0342         0.010899   
    116. D(H  20,C  10,C   3,C   4)   -102.9441         0.013039   
    117. D(H  20,C  10,C   3,C   2)     75.0317         0.013039   
    118. D(H  19,C  10,C   3,C   4)    138.9459         0.013039   
    119. D(H  20,C  10,C   8,C   6)     75.2146         0.010899   
    120. D(H  19,C  10,C   3,C   2)    -43.0782         0.013039   
    121. D(C   8,C  10,C   3,C   4)     17.9380         0.013039   
    122. D(C   8,C  10,C   3,C   2)   -164.0862         0.013039   
    -----------------------------------------------------------------

Number of atoms                         .... 21
Number of degrees of freedom            .... 122

         *************************************************************
         *                GEOMETRY OPTIMIZATION CYCLE   1            *
         *************************************************************
---------------------------------
CARTESIAN COORDINATES (ANGSTROEM)
---------------------------------
  C      1.456470    1.223370   -0.085290
  S      2.655160    0.001620    0.065250
  C      1.441770   -1.209620    0.183710
  C      0.184640   -0.696470    0.110740
  C      0.193860    0.719580   -0.048730
  C     -1.060580    1.525460   -0.196680
  C     -2.282920    0.739750    0.269940
  S     -2.415000    0.743710    2.096520
  C     -2.287880   -0.696680   -0.284090
  O     -2.349010   -0.681070   -1.690130
  C     -1.079780   -1.491940    0.224640
  H      1.753920    2.246890   -0.197380
  H      1.727640   -2.235330    0.304740
  H     -1.199110    1.798830   -1.249130
  H     -0.981760    2.458170    0.367000
  H     -3.194970    1.243150   -0.059890
  H     -1.138560    0.446800    2.331070
  H     -3.210720   -1.193080    0.035500
  H     -1.489410   -0.403600   -2.029780
  H     -1.000730   -2.417810   -0.349300
  H     -1.248260   -1.769350    1.268750

----------------------------
CARTESIAN COORDINATES (A.U.)
----------------------------
  NO LB      ZA    FRAG     MASS         X           Y           Z
   0 C     6.0000    0    12.011    2.752329    2.311834   -0.161175
   1 S    16.0000    0    32.060    5.017525    0.003061    0.123305
   2 C     6.0000    0    12.011    2.724550   -2.285851    0.347162
   3 C     6.0000    0    12.011    0.348919   -1.316138    0.209268
   4 C     6.0000    0    12.011    0.366342    1.359809   -0.092086
   5 C     6.0000    0    12.011   -2.004206    2.882702   -0.371671
   6 C     6.0000    0    12.011   -4.314094    1.397925    0.510113
   7 S    16.0000    0    32.060   -4.563689    1.405408    3.961849
   8 C     6.0000    0    12.011   -4.323467   -1.316534   -0.536852
   9 O     8.0000    0    15.999   -4.438986   -1.287036   -3.193883
  10 C     6.0000    0    12.011   -2.040488   -2.819358    0.424508
  11 H     1.0000    0     1.008    3.314428    4.246007   -0.372994
  12 H     1.0000    0     1.008    3.264766   -4.224162    0.575875
  13 H     1.0000    0     1.008   -2.265990    3.399296   -2.360514
  14 H     1.0000    0     1.008   -1.855258    4.645268    0.693529
  15 H     1.0000    0     1.008   -6.037618    2.349213   -0.113176
  16 H     1.0000    0     1.008   -2.151567    0.844330    4.405084
  17 H     1.0000    0     1.008   -6.067381   -2.254594    0.067085
  18 H     1.0000    0     1.008   -2.814577   -0.762693   -3.835728
  19 H     1.0000    0     1.008   -1.891106   -4.568999   -0.660081
  20 H     1.0000    0     1.008   -2.358870   -3.343587    2.397590

--------------------------------
INTERNAL COORDINATES (ANGSTROEM)
--------------------------------
 C      0   0   0     0.000000000000     0.00000000     0.00000000
 S      1   0   0     1.718194712540     0.00000000     0.00000000
 C      2   1   0     1.718560560847    90.83801873     0.00000000
 C      3   2   1     1.359787990938   112.52422192     0.00000000
 C      1   2   3     1.359898896904   112.45493320   359.86424815
 C      5   1   2     1.498316218460   125.12950411   181.94852882
 C      6   5   1     1.526168242397   111.31311127   195.72096522
 S      7   6   5     1.831353407838   111.19846503    78.82260644
 C      7   6   5     1.539579483950   111.89383116   313.87547753
 O      9   7   6     1.407454805882   110.44379218   297.88310223
 C      4   3   2     1.498166768855   125.15636639   181.95834643
 H      1   2   3     1.071743374600   119.64413819   180.16257446
 H      3   2   1     1.071658024698   119.60533512   180.23714087
 H      6   5   1     1.096162725283   109.55726616    75.45944729
 H      6   5   1     1.092655333991   110.35215934   317.95809829
 H      7   6   5     1.092718898619   109.81823926   193.23118222
 H      8   7   6     1.331340799420    96.08979161   313.45064519
 H      9   7   6     1.095529275602   108.69266183   183.11790203
 H     10   9   7     0.965020146629   108.42773917    73.33795153
 H     11   4   3     1.092195624877   110.43034841   316.92180488
 H     11   4   3     1.093392660758   109.71613987    75.03174332

---------------------------
INTERNAL COORDINATES (A.U.)
---------------------------
 C      0   0   0     0.000000000000     0.00000000     0.00000000
 S      1   0   0     3.246917451452     0.00000000     0.00000000
 C      2   1   0     3.247608804560    90.83801873     0.00000000
 C      3   2   1     2.569626903068   112.52422192     0.00000000
 C      1   2   3     2.569836484970   112.45493320   359.86424815
 C      5   1   2     2.831407314902   125.12950411   181.94852882
 C      6   5   1     2.884040012418   111.31311127   195.72096522
 S      7   6   5     3.460756395237   111.19846503    78.82260644
 C      7   6   5     2.909383586069   111.89383116   313.87547753
 O      9   7   6     2.659704128988   110.44379218   297.88310223
 C      4   3   2     2.831124896077   125.15636639   181.95834643
 H      1   2   3     2.025301463839   119.64413819   180.16257446
 H      3   2   1     2.025140175899   119.60533512   180.23714087
 H      6   5   1     2.071447348998   109.55726616    75.45944729
 H      6   5   1     2.064819340012   110.35215934   317.95809829
 H      7   6   5     2.064939459751   109.81823926   193.23118222
 H      8   7   6     2.515869501819    96.08979161   313.45064519
 H      9   7   6     2.070250302580   108.69266183   183.11790203
 H     10   9   7     1.823623790845   108.42773917    73.33795153
 H     11   4   3     2.063950615684   110.43034841   316.92180488
 H     11   4   3     2.066212685673   109.71613987    75.03174332

---------------------
BASIS SET INFORMATION
---------------------
There are 4 groups of distinct atoms

 Group   1 Type C   : 7s4p1d contracted to 3s2p1d pattern {511/31/1}
 Group   2 Type S   : 10s7p1d contracted to 4s3p1d pattern {5311/511/1}
 Group   3 Type O   : 7s4p1d contracted to 3s2p1d pattern {511/31/1}
 Group   4 Type H   : 4s1p contracted to 2s1p pattern {31/1}

Atom   0C    basis set group =>   1
Atom   1S    basis set group =>   2
Atom   2C    basis set group =>   1
Atom   3C    basis set group =>   1
Atom   4C    basis set group =>   1
Atom   5C    basis set group =>   1
Atom   6C    basis set group =>   1
Atom   7S    basis set group =>   2
Atom   8C    basis set group =>   1
Atom   9O    basis set group =>   3
Atom  10C    basis set group =>   1
Atom  11H    basis set group =>   4
Atom  12H    basis set group =>   4
Atom  13H    basis set group =>   4
Atom  14H    basis set group =>   4
Atom  15H    basis set group =>   4
Atom  16H    basis set group =>   4
Atom  17H    basis set group =>   4
Atom  18H    basis set group =>   4
Atom  19H    basis set group =>   4
Atom  20H    basis set group =>   4
---------------------------------
AUXILIARY/J BASIS SET INFORMATION
---------------------------------
There are 4 groups of distinct atoms

 Group   1 Type C   : 12s5p4d2f1g contracted to 6s4p3d1f1g pattern {711111/2111/211/2/1}
 Group   2 Type S   : 14s5p5d2f1g contracted to 8s4p3d1f1g pattern {71111111/2111/311/2/1}
 Group   3 Type O   : 12s5p4d2f1g contracted to 6s4p3d1f1g pattern {711111/2111/211/2/1}
 Group   4 Type H   : 5s2p1d contracted to 3s1p1d pattern {311/2/1}

Atom   0C    basis set group =>   1
Atom   1S    basis set group =>   2
Atom   2C    basis set group =>   1
Atom   3C    basis set group =>   1
Atom   4C    basis set group =>   1
Atom   5C    basis set group =>   1
Atom   6C    basis set group =>   1
Atom   7S    basis set group =>   2
Atom   8C    basis set group =>   1
Atom   9O    basis set group =>   3
Atom  10C    basis set group =>   1
Atom  11H    basis set group =>   4
Atom  12H    basis set group =>   4
Atom  13H    basis set group =>   4
Atom  14H    basis set group =>   4
Atom  15H    basis set group =>   4
Atom  16H    basis set group =>   4
Atom  17H    basis set group =>   4
Atom  18H    basis set group =>   4
Atom  19H    basis set group =>   4
Atom  20H    basis set group =>   4
------------------------------------------------------------------------------
                           ORCA GTO INTEGRAL CALCULATION
                           -- RI-GTO INTEGRALS CHOSEN --
------------------------------------------------------------------------------

                         BASIS SET STATISTICS AND STARTUP INFO

Gaussian basis set:
 # of primitive gaussian shells          ...  194
 # of primitive gaussian functions       ...  358
 # of contracted shells                  ...  100
 # of contracted basis functions         ...  212
 Highest angular momentum                ...    2
 Maximum contraction depth               ...    5
Auxiliary gaussian basis set:
 # of primitive gaussian shells          ...  350
 # of primitive gaussian functions       ...  944
 # of contracted shells                  ...  219
 # of contracted aux-basis functions     ...  653
 Highest angular momentum                ...    4
 Maximum contraction depth               ...    7
Ratio of auxiliary to basis functions    ...  3.08
Integral package used                  ... LIBINT
 One Electron integrals                  ... done
 Ordering auxiliary basis shells         ... done
 Integral threshhold             Thresh  ...  2.500e-11
 Primitive cut-off               TCut    ...  2.500e-12
 Pre-screening matrix                    ... done
 Shell pair data                         ... 
 Ordering of the shell pairs             ... done (   0.001 sec) 4682 of 5050 pairs
 Determination of significant pairs      ... done (   0.000 sec)
 Creation of shell pair data             ... done (   0.001 sec)
 Storage of shell pair data              ... done (   0.001 sec)
 Shell pair data done in (   0.003 sec)
 Computing two index integrals           ... done
 Cholesky decomposition of the V-matrix  ... done


Timings:
 Total evaluation time                   ...   0.220 sec (  0.004 min)
 One electron matrix time                ...   0.049 sec (  0.001 min) = 22.4%
 Schwartz matrix evaluation time         ...   0.135 sec (  0.002 min) = 61.2%
 Two index repulsion integral time       ...   0.010 sec (  0.000 min) =  4.6%
 Cholesky decomposition of V             ...   0.007 sec (  0.000 min) =  3.0%
 Three index repulsion integral time     ...   0.000 sec (  0.000 min) =  0.0%

-------------------------------------------------------------------------------
                                 ORCA SCF
-------------------------------------------------------------------------------

------------
SCF SETTINGS
------------
Hamiltonian:
 Density Functional     Method          .... DFT(GTOs)
 Exchange Functional    Exchange        .... B88
   X-Alpha parameter    XAlpha          ....  0.666667
   Becke's b parameter  XBeta           ....  0.004200
 Correlation Functional Correlation     .... LYP
 LDA part of GGA corr.  LDAOpt          .... VWN-3
 Gradients option       PostSCFGGA      .... off
 Hybrid DFT is turned on
   Fraction HF Exchange ScalHFX         ....  0.200000
   Scaling of DF-GGA-X  ScalDFX         ....  0.720000
   Scaling of DF-GGA-C  ScalDFC         ....  0.810000
   Scaling of DF-LDA-C  ScalLDAC        ....  1.000000
   Perturbative correction              ....  0.000000
   Density functional embedding theory  .... OFF
   NL short-range parameter             ....  4.800000
 RI-approximation to the Coulomb term is turned on
   Number of auxiliary basis functions  .... 653
   RIJ-COSX (HFX calculated with COS-X)).... on


General Settings:
 Integral files         IntName         .... 619
 Hartree-Fock type      HFTyp           .... RHF
 Total Charge           Charge          ....    0
 Multiplicity           Mult            ....    1
 Number of Electrons    NEL             ....   98
 Basis Dimension        Dim             ....  212
 Nuclear Repulsion      ENuc            ....    812.9290683095 Eh

Convergence Acceleration:
 DIIS                   CNVDIIS         .... on
   Start iteration      DIISMaxIt       ....    12
   Startup error        DIISStart       ....  0.200000
   # of expansion vecs  DIISMaxEq       ....     5
   Bias factor          DIISBfac        ....   1.050
   Max. coefficient     DIISMaxC        ....  10.000
 Newton-Raphson         CNVNR           .... off
 SOSCF                  CNVSOSCF        .... on
   Start iteration      SOSCFMaxIt      ....   150
   Startup grad/error   SOSCFStart      ....  0.003300
 Level Shifting         CNVShift        .... on
   Level shift para.    LevelShift      ....    0.2500
   Turn off err/grad.   ShiftErr        ....    0.0010
 Zerner damping         CNVZerner       .... off
 Static damping         CNVDamp         .... on
   Fraction old density DampFac         ....    0.7000
   Max. Damping (<1)    DampMax         ....    0.9800
   Min. Damping (>=0)   DampMin         ....    0.0000
   Turn off err/grad.   DampErr         ....    0.1000
 Fernandez-Rico         CNVRico         .... off

SCF Procedure:
 Maximum # iterations   MaxIter         ....   125
 SCF integral mode      SCFMode         .... Direct
   Integral package                     .... LIBINT
 Reset frequency        DirectResetFreq ....    20
 Integral Threshold     Thresh          ....  2.500e-11 Eh
 Primitive CutOff       TCut            ....  2.500e-12 Eh

Convergence Tolerance:
 Convergence Check Mode ConvCheckMode   .... Total+1el-Energy
 Convergence forced     ConvForced      .... 0
 Energy Change          TolE            ....  1.000e-08 Eh
 1-El. energy change                    ....  1.000e-05 Eh
 Orbital Gradient       TolG            ....  1.000e-05
 Orbital Rotation angle TolX            ....  1.000e-05
 DIIS Error             TolErr          ....  5.000e-07


Diagonalization of the overlap matrix:
Smallest eigenvalue                        ... 7.131e-04
Time for diagonalization                   ...    0.045 sec
Threshold for overlap eigenvalues          ... 1.000e-08
Number of eigenvalues below threshold      ... 0
Time for construction of square roots      ...    0.003 sec
Total time needed                          ...    0.048 sec

-------------------
DFT GRID GENERATION
-------------------

General Integration Accuracy     IntAcc      ...  4.340
Radial Grid Type                 RadialGrid  ... Gauss-Chebyshev
Angular Grid (max. acc.)         AngularGrid ... Lebedev-110
Angular grid pruning method      GridPruning ... 3 (G Style)
Weight generation scheme         WeightScheme... Becke
Basis function cutoff            BFCut       ...    1.0000e-11
Integration weight cutoff        WCut        ...    1.0000e-14
Grids for H and He will be reduced by one unit

# of grid points (after initial pruning)     ...  26516 (   0.0 sec)
# of grid points (after weights+screening)   ...  24068 (   0.1 sec)
nearest neighbour list constructed           ...    0.0 sec
Grid point re-assignment to atoms done       ...    0.0 sec
Grid point division into batches done        ...    0.0 sec
Reduced shell lists constructed in    0.2 sec

Total number of grid points                  ...    24068
Total number of batches                      ...      386
Average number of points per batch           ...       62
Average number of grid points per atom       ...     1146
Average number of shells per batch           ...    69.04 (69.04%)
Average number of basis functions per batch  ...   144.46 (68.14%)
Average number of large shells per batch     ...    52.73 (76.38%)
Average number of large basis fcns per batch ...   107.32 (74.29%)
Maximum spatial batch extension              ...  19.33, 18.44, 25.88 au
Average spatial batch extension              ...   3.53,  3.55,  3.73 au

Time for grid setup =    0.270 sec

------------------------------
INITIAL GUESS: MODEL POTENTIAL
------------------------------
Loading Hartree-Fock densities                     ... done
Calculating cut-offs                               ... done
Setting up the integral package                    ... done
Initializing the effective Hamiltonian             ... done
Starting the Coulomb interaction                   ... done (   0.2 sec)
Reading the grid                                   ... done
Mapping shells                                     ... done
Starting the XC term evaluation                    ... done (   0.3 sec)
  promolecular density results
     # of electrons  =     97.977279211
     EX              =   -102.439256517
     EC              =     -3.550754595
     EX+EC           =   -105.990011112
Transforming the Hamiltonian                       ... done (   0.0 sec)
Diagonalizing the Hamiltonian                      ... done (   0.0 sec)
Back transforming the eigenvectors                 ... done (   0.0 sec)
Now organizing SCF variables                       ... done
                      ------------------
                      INITIAL GUESS DONE (   0.9 sec)
                      ------------------
--------------------
COSX GRID GENERATION
--------------------

General Integration Accuracy     IntAcc      ...  3.340
Radial Grid Type                 RadialGrid  ... Gauss-Chebyshev
Angular Grid (max. acc.)         AngularGrid ... Lebedev-50
Angular grid pruning method      GridPruning ... 3 (G Style)
Weight generation scheme         WeightScheme... Becke
Basis function cutoff            BFCut       ...    1.0000e-11
Integration weight cutoff        WCut        ...    1.0000e-14
Grids for H and He will be reduced by one unit

# of grid points (after initial pruning)     ...   9832 (   0.0 sec)
# of grid points (after weights+screening)   ...   9008 (   0.0 sec)
nearest neighbour list constructed           ...    0.0 sec
Grid point re-assignment to atoms done       ...    0.0 sec
Grid point division into batches done        ...    0.0 sec
Reduced shell lists constructed in    0.1 sec

Total number of grid points                  ...     9008
Total number of batches                      ...      152
Average number of points per batch           ...       59
Average number of grid points per atom       ...      429
Average number of shells per batch           ...    73.41 (73.41%)
Average number of basis functions per batch  ...   154.92 (73.08%)
Average number of large shells per batch     ...    56.81 (77.39%)
Average number of large basis fcns per batch ...   116.50 (75.20%)
Maximum spatial batch extension              ...  17.79, 16.16, 21.68 au
Average spatial batch extension              ...   4.32,  4.37,  4.87 au

Overlap Fitting                  UseSFitting ... on
Constructing numerical overlap ... done (      0.1 sec)
Inverting numerical overlap    ... done (      0.0 sec)
Obtaining analytic overlap     ... done (      0.0 sec)
Final contraction and storage  ... done (      0.0 sec)


General Integration Accuracy     IntAcc      ...  3.670
Radial Grid Type                 RadialGrid  ... Gauss-Chebyshev
Angular Grid (max. acc.)         AngularGrid ... Lebedev-50
Angular grid pruning method      GridPruning ... 3 (G Style)
Weight generation scheme         WeightScheme... Becke
Basis function cutoff            BFCut       ...    1.0000e-11
Integration weight cutoff        WCut        ...    1.0000e-14
Grids for H and He will be reduced by one unit

# of grid points (after initial pruning)     ...  12478 (   0.0 sec)
# of grid points (after weights+screening)   ...  11400 (   0.0 sec)
nearest neighbour list constructed           ...    0.0 sec
Grid point re-assignment to atoms done       ...    0.0 sec
Grid point division into batches done        ...    0.0 sec
Reduced shell lists constructed in    0.1 sec

Total number of grid points                  ...    11400
Total number of batches                      ...      193
Average number of points per batch           ...       59
Average number of grid points per atom       ...      543
Average number of shells per batch           ...    72.26 (72.26%)
Average number of basis functions per batch  ...   152.14 (71.76%)
Average number of large shells per batch     ...    55.90 (77.35%)
Average number of large basis fcns per batch ...   114.71 (75.40%)
Maximum spatial batch extension              ...  17.85, 17.83, 28.34 au
Average spatial batch extension              ...   4.14,  4.17,  4.58 au

Overlap Fitting                  UseSFitting ... on
Constructing numerical overlap ... done (      0.1 sec)
Inverting numerical overlap    ... done (      0.0 sec)
Obtaining analytic overlap     ... done (      0.0 sec)
Final contraction and storage  ... done (      0.0 sec)


General Integration Accuracy     IntAcc      ...  4.010
Radial Grid Type                 RadialGrid  ... Gauss-Chebyshev
Angular Grid (max. acc.)         AngularGrid ... Lebedev-110
Angular grid pruning method      GridPruning ... 3 (G Style)
Weight generation scheme         WeightScheme... Becke
Basis function cutoff            BFCut       ...    1.0000e-11
Integration weight cutoff        WCut        ...    1.0000e-14
Grids for H and He will be reduced by one unit

# of grid points (after initial pruning)     ...  23110 (   0.0 sec)
# of grid points (after weights+screening)   ...  21016 (   0.1 sec)
nearest neighbour list constructed           ...    0.0 sec
Grid point re-assignment to atoms done       ...    0.0 sec
Grid point division into batches done        ...    0.0 sec
Reduced shell lists constructed in    0.2 sec

Total number of grid points                  ...    21016
Total number of batches                      ...      338
Average number of points per batch           ...       62
Average number of grid points per atom       ...     1001
Average number of shells per batch           ...    69.69 (69.69%)
Average number of basis functions per batch  ...   145.83 (68.79%)
Average number of large shells per batch     ...    53.35 (76.56%)
Average number of large basis fcns per batch ...   108.62 (74.48%)
Maximum spatial batch extension              ...  18.48, 17.31, 24.51 au
Average spatial batch extension              ...   3.67,  3.67,  3.87 au

Overlap Fitting                  UseSFitting ... on
Constructing numerical overlap ... done (      0.2 sec)
Inverting numerical overlap    ... done (      0.0 sec)
Obtaining analytic overlap     ... done (      0.0 sec)
Final contraction and storage  ... done (      0.0 sec)

Time for X-Grid setup             =    0.905 sec
--------------
SCF ITERATIONS
--------------
ITER       Energy         Delta-E        Max-DP      RMS-DP      [F,P]     Damp
               ***  Starting incremental Fock matrix formation  ***
  0  -1181.6800064379   0.000000000000 0.07277627  0.00240719  0.2443710 0.7000
  1  -1181.8163074500  -0.136301012099 0.05035112  0.00166234  0.1068293 0.7000
                               ***Turning on DIIS***
  2  -1181.8658779399  -0.049570489899 0.10582944  0.00278981  0.0302226 0.0000
  3  -1181.9405945592  -0.074716619389 0.03447892  0.00140148  0.0566133 0.0000
  4  -1181.9622705255  -0.021675966292 0.02117010  0.00044956  0.0080169 0.0000
                      *** Initiating the SOSCF procedure ***
                           *** Shutting down DIIS ***
                      *** Re-Reading the Fockian *** 
                      *** Removing any level shift *** 
ITER      Energy       Delta-E        Grad      Rot      Max-DP    RMS-DP
  5  -1181.96319031  -0.0009197803  0.000778  0.000778  0.005201  0.000119
               *** Restarting incremental Fock matrix formation ***
  6  -1181.96324870  -0.0000583912  0.000375  0.001057  0.002212  0.000070
  7  -1181.96324532   0.0000033803  0.000652  0.000763  0.001271  0.000029
  8  -1181.96325725  -0.0000119371  0.000021  0.000039  0.000215  0.000006
  9  -1181.96325729  -0.0000000318  0.000022  0.000022  0.000115  0.000003
 10  -1181.96325732  -0.0000000368  0.000005  0.000020  0.000053  0.000001
 11  -1181.96325734  -0.0000000204  0.000011  0.000018  0.000022  0.000001
                  ***Gradient check signals convergence***
              ***Rediagonalizing the Fockian in SOSCF/NRSCF***

               *****************************************************
               *                     SUCCESS                       *
               *           SCF CONVERGED AFTER  12 CYCLES          *
               *****************************************************

Setting up the final grid:

General Integration Accuracy     IntAcc      ...  4.670
Radial Grid Type                 RadialGrid  ... Gauss-Chebyshev
Angular Grid (max. acc.)         AngularGrid ... Lebedev-302
Angular grid pruning method      GridPruning ... 3 (G Style)
Weight generation scheme         WeightScheme... Becke
Basis function cutoff            BFCut       ...    1.0000e-11
Integration weight cutoff        WCut        ...    1.0000e-14
Grids for H and He will be reduced by one unit

# of grid points (after initial pruning)     ... 103540 (   0.0 sec)
# of grid points (after weights+screening)   ...  92157 (   0.3 sec)
nearest neighbour list constructed           ...    0.0 sec
Grid point re-assignment to atoms done       ...    0.0 sec
Grid point division into batches done        ...    0.3 sec
Reduced shell lists constructed in    1.0 sec

Total number of grid points                  ...    92157
Total number of batches                      ...     1450
Average number of points per batch           ...       63
Average number of grid points per atom       ...     4388
Average number of shells per batch           ...    63.33 (63.33%)
Average number of basis functions per batch  ...   131.29 (61.93%)
Average number of large shells per batch     ...    47.48 (74.96%)
Average number of large basis fcns per batch ...    95.53 (72.76%)
Maximum spatial batch extension              ...  17.34, 15.86, 20.51 au
Average spatial batch extension              ...   2.29,  2.34,  2.39 au

Final grid set up in    1.3 sec
Final integration                            ... done (   1.5 sec)
Change in XC energy                          ...    -0.001500603
Integrated number of electrons               ...    98.000038180
Previous integrated no of electrons          ...    97.990162493
Old exchange energy                            =    -20.675651654 Eh
New exchange energy                            =    -20.675322168 Eh
Exchange energy change after final integration =      0.000329486 Eh
Total energy after final integration           =  -1181.964428439 Eh
Final COS-X integration done in                =    10.303 sec

----------------
TOTAL SCF ENERGY
----------------

Total Energy       :        -1181.96442844 Eh          -32162.88723 eV

Components:
Nuclear Repulsion  :          812.92906831 Eh           22120.92455 eV
Electronic Energy  :        -1994.89349675 Eh          -54283.81178 eV
One Electron Energy:        -3237.83361909 Eh          -88105.93199 eV
Two Electron Energy:         1242.94012234 Eh           33822.12021 eV

Virial components:
Potential Energy   :        -2358.37549371 Eh          -64174.65976 eV
Kinetic Energy     :         1176.41106527 Eh           32011.77253 eV
Virial Ratio       :            2.00472060


DFT components:
N(Alpha)           :       49.000019089944 electrons
N(Beta)            :       49.000019089944 electrons
N(Total)           :       98.000038179888 electrons
E(X)               :      -82.054755585582 Eh       
E(C)               :       -4.534597596414 Eh       
E(XC)              :      -86.589353181996 Eh       
DFET-embed. en.    :        0.000000000000 Eh       

---------------
SCF CONVERGENCE
---------------

  Last Energy change         ...    2.0400e-08  Tolerance :   1.0000e-08
  Last MAX-Density change    ...    3.0358e-15  Tolerance :   1.0000e-07
  Last RMS-Density change    ...    5.3266e-17  Tolerance :   5.0000e-09
  Last Orbital Gradient      ...    1.8727e-06  Tolerance :   1.0000e-05
  Last Orbital Rotation      ...    5.5183e-06  Tolerance :   1.0000e-05

             **** THE GBW FILE WAS UPDATED (619.gbw) ****
             **** DENSITY FILE WAS UPDATED (619.scfp) ****
             **** ENERGY FILE WAS UPDATED (619.en.tmp) ****
             **** THE GBW FILE WAS UPDATED (619.gbw) ****
             **** DENSITY FILE WAS UPDATED (619.scfp) ****
----------------
ORBITAL ENERGIES
----------------

  NO   OCC          E(Eh)            E(eV) 
   0   2.0000     -88.876145     -2418.4429 
   1   2.0000     -88.834675     -2417.3144 
   2   2.0000     -19.134505      -520.6764 
   3   2.0000     -10.240522      -278.6588 
   4   2.0000     -10.220622      -278.1173 
   5   2.0000     -10.208460      -277.7863 
   6   2.0000     -10.207855      -277.7699 
   7   2.0000     -10.202447      -277.6227 
   8   2.0000     -10.197920      -277.4995 
   9   2.0000     -10.197017      -277.4749 
  10   2.0000     -10.192502      -277.3521 
  11   2.0000      -7.971688      -216.9206 
  12   2.0000      -7.929779      -215.7803 
  13   2.0000      -5.939641      -161.6258 
  14   2.0000      -5.935536      -161.5141 
  15   2.0000      -5.933348      -161.4546 
  16   2.0000      -5.898882      -160.5167 
  17   2.0000      -5.895376      -160.4213 
  18   2.0000      -5.888550      -160.2356 
  19   2.0000      -1.020252       -27.7625 
  20   2.0000      -0.893923       -24.3249 
  21   2.0000      -0.830749       -22.6058 
  22   2.0000      -0.773195       -21.0397 
  23   2.0000      -0.754086       -20.5197 
  24   2.0000      -0.706056       -19.2128 
  25   2.0000      -0.690600       -18.7922 
  26   2.0000      -0.641535       -17.4570 
  27   2.0000      -0.588683       -16.0189 
  28   2.0000      -0.579839       -15.7782 
  29   2.0000      -0.527964       -14.3666 
  30   2.0000      -0.514105       -13.9895 
  31   2.0000      -0.479184       -13.0393 
  32   2.0000      -0.467352       -12.7173 
  33   2.0000      -0.459948       -12.5158 
  34   2.0000      -0.448433       -12.2025 
  35   2.0000      -0.419745       -11.4218 
  36   2.0000      -0.414845       -11.2885 
  37   2.0000      -0.408242       -11.1088 
  38   2.0000      -0.389968       -10.6116 
  39   2.0000      -0.380541       -10.3550 
  40   2.0000      -0.363707        -9.8970 
  41   2.0000      -0.358493        -9.7551 
  42   2.0000      -0.343457        -9.3459 
  43   2.0000      -0.330075        -8.9818 
  44   2.0000      -0.322754        -8.7826 
  45   2.0000      -0.283213        -7.7066 
  46   2.0000      -0.251160        -6.8344 
  47   2.0000      -0.243643        -6.6299 
  48   2.0000      -0.232806        -6.3350 
  49   0.0000      -0.025779        -0.7015 
  50   0.0000       0.029717         0.8086 
  51   0.0000       0.045678         1.2430 
  52   0.0000       0.048459         1.3186 
  53   0.0000       0.059529         1.6199 
  54   0.0000       0.069954         1.9035 
  55   0.0000       0.079515         2.1637 
  56   0.0000       0.086424         2.3517 
  57   0.0000       0.093037         2.5317 
  58   0.0000       0.112275         3.0552 
  59   0.0000       0.117676         3.2021 
  60   0.0000       0.134462         3.6589 
  61   0.0000       0.145541         3.9604 
  62   0.0000       0.149956         4.0805 
  63   0.0000       0.161670         4.3993 
  64   0.0000       0.190164         5.1746 
  65   0.0000       0.212914         5.7937 
  66   0.0000       0.221158         6.0180 
  67   0.0000       0.224695         6.1143 
  68   0.0000       0.251728         6.8499 
  69   0.0000       0.292778         7.9669 
  70   0.0000       0.294622         8.0171 
  71   0.0000       0.334941         9.1142 
  72   0.0000       0.348628         9.4866 
  73   0.0000       0.378746        10.3062 
  74   0.0000       0.384573        10.4648 
  75   0.0000       0.408599        11.1185 
  76   0.0000       0.415443        11.3048 
  77   0.0000       0.426418        11.6034 
  78   0.0000       0.432191        11.7605 
  79   0.0000       0.446614        12.1530 
  80   0.0000       0.469080        12.7643 
  81   0.0000       0.488794        13.3008 
  82   0.0000       0.491035        13.3617 
  83   0.0000       0.494914        13.4673 
  84   0.0000       0.513136        13.9631 
  85   0.0000       0.526649        14.3308 
  86   0.0000       0.534190        14.5360 
  87   0.0000       0.544462        14.8156 
  88   0.0000       0.564052        15.3486 
  89   0.0000       0.593232        16.1427 
  90   0.0000       0.596537        16.2326 
  91   0.0000       0.607055        16.5188 
  92   0.0000       0.610347        16.6084 
  93   0.0000       0.617992        16.8164 
  94   0.0000       0.628563        17.1041 
  95   0.0000       0.630596        17.1594 
  96   0.0000       0.639298        17.3962 
  97   0.0000       0.639585        17.4040 
  98   0.0000       0.650906        17.7121 
  99   0.0000       0.655147        17.8274 
 100   0.0000       0.659160        17.9367 
 101   0.0000       0.672350        18.2956 
 102   0.0000       0.673590        18.3293 
 103   0.0000       0.684107        18.6155 
 104   0.0000       0.695033        18.9128 
 105   0.0000       0.708886        19.2898 
 106   0.0000       0.710892        19.3443 
 107   0.0000       0.722578        19.6624 
 108   0.0000       0.729715        19.8566 
 109   0.0000       0.744721        20.2649 
 110   0.0000       0.749540        20.3960 
 111   0.0000       0.757243        20.6056 
 112   0.0000       0.787545        21.4302 
 113   0.0000       0.807650        21.9773 
 114   0.0000       0.814183        22.1551 
 115   0.0000       0.823212        22.4007 
 116   0.0000       0.830657        22.6033 
 117   0.0000       0.842838        22.9348 
 118   0.0000       0.853633        23.2285 
 119   0.0000       0.906443        24.6656 
 120   0.0000       0.939181        25.5564 
 121   0.0000       0.960851        26.1461 
 122   0.0000       1.009150        27.4604 
 123   0.0000       1.024374        27.8746 
 124   0.0000       1.034429        28.1483 
 125   0.0000       1.054292        28.6888 
 126   0.0000       1.090309        29.6688 
 127   0.0000       1.123161        30.5628 
 128   0.0000       1.136072        30.9141 
 129   0.0000       1.154787        31.4234 
 130   0.0000       1.162396        31.6304 
 131   0.0000       1.170990        31.8643 
 132   0.0000       1.207718        32.8637 
 133   0.0000       1.227100        33.3911 
 134   0.0000       1.253745        34.1161 
 135   0.0000       1.274210        34.6730 
 136   0.0000       1.312304        35.7096 
 137   0.0000       1.329962        36.1901 
 138   0.0000       1.362938        37.0874 
 139   0.0000       1.413957        38.4757 
 140   0.0000       1.427232        38.8370 
 141   0.0000       1.472740        40.0753 
 142   0.0000       1.511608        41.1330 
 143   0.0000       1.534930        41.7676 
 144   0.0000       1.556997        42.3680 
 145   0.0000       1.577770        42.9333 
 146   0.0000       1.593645        43.3653 
 147   0.0000       1.605540        43.6890 
 148   0.0000       1.622975        44.1634 
 149   0.0000       1.635810        44.5126 
 150   0.0000       1.658068        45.1183 
 151   0.0000       1.669905        45.4404 
 152   0.0000       1.728529        47.0357 
 153   0.0000       1.743645        47.4470 
 154   0.0000       1.761385        47.9297 
 155   0.0000       1.780999        48.4634 
 156   0.0000       1.790239        48.7149 
 157   0.0000       1.799427        48.9649 
 158   0.0000       1.827555        49.7303 
 159   0.0000       1.836495        49.9736 
 160   0.0000       1.855784        50.4985 
 161   0.0000       1.873876        50.9907 
 162   0.0000       1.901492        51.7422 
 163   0.0000       1.910998        52.0009 
 164   0.0000       1.924675        52.3731 
 165   0.0000       1.931407        52.5563 
 166   0.0000       1.936992        52.7082 
 167   0.0000       1.963701        53.4350 
 168   0.0000       1.968530        53.5664 
 169   0.0000       2.015424        54.8425 
 170   0.0000       2.023204        55.0542 
 171   0.0000       2.058287        56.0088 
 172   0.0000       2.072885        56.4061 
 173   0.0000       2.098378        57.0998 
 174   0.0000       2.119577        57.6766 
 175   0.0000       2.124750        57.8174 
 176   0.0000       2.164107        58.8884 
 177   0.0000       2.174003        59.1576 
 178   0.0000       2.208566        60.0981 
 179   0.0000       2.235323        60.8262 
 180   0.0000       2.247658        61.1619 
 181   0.0000       2.257665        61.4342 
 182   0.0000       2.272617        61.8411 
 183   0.0000       2.289249        62.2936 
 184   0.0000       2.324276        63.2468 
 185   0.0000       2.392238        65.0961 
 186   0.0000       2.402525        65.3760 
 187   0.0000       2.403483        65.4021 
 188   0.0000       2.450328        66.6768 
 189   0.0000       2.481320        67.5202 
 190   0.0000       2.508703        68.2653 
 191   0.0000       2.535989        69.0078 
 192   0.0000       2.592776        70.5530 
 193   0.0000       2.633561        71.6628 
 194   0.0000       2.644541        71.9616 
 195   0.0000       2.661048        72.4108 
 196   0.0000       2.758931        75.0743 
 197   0.0000       2.766038        75.2677 
 198   0.0000       2.838182        77.2309 
 199   0.0000       2.853752        77.6545 
 200   0.0000       2.914502        79.3076 
 201   0.0000       2.945690        80.1563 
 202   0.0000       2.975697        80.9728 
 203   0.0000       2.989507        81.3486 
 204   0.0000       3.018072        82.1259 
 205   0.0000       3.049670        82.9857 
 206   0.0000       3.078475        83.7696 
 207   0.0000       3.146369        85.6170 
 208   0.0000       3.169748        86.2532 
 209   0.0000       3.305906        89.9583 
 210   0.0000       3.402667        92.5913 
 211   0.0000       3.780851       102.8822 

                    ********************************
                    * MULLIKEN POPULATION ANALYSIS *
                    ********************************

-----------------------
MULLIKEN ATOMIC CHARGES
-----------------------
   0 C :   -0.130305
   1 S :    0.105580
   2 C :   -0.131267
   3 C :   -0.076019
   4 C :   -0.075957
   5 C :    0.198897
   6 C :   -0.179111
   7 S :   -0.058403
   8 C :    0.189848
   9 O :   -0.298796
  10 C :    0.171205
  11 H :    0.001437
  12 H :    0.001598
  13 H :    0.012267
  14 H :    0.007801
  15 H :    0.032842
  16 H :    0.059304
  17 H :   -0.009412
  18 H :    0.165284
  19 H :    0.002810
  20 H :    0.010399
Sum of atomic charges:   -0.0000000

--------------------------------
MULLIKEN REDUCED ORBITAL CHARGES
--------------------------------
  0 C s       :     3.214791  s :     3.214791
      pz      :     1.118968  p :     2.879258
      px      :     0.929477
      py      :     0.830813
      dz2     :     0.003071  d :     0.036257
      dxz     :     0.007454
      dyz     :     0.002948
      dx2y2   :     0.009141
      dxy     :     0.013643
  1 S s       :     5.838375  s :     5.838375
      pz      :     3.627941  p :     9.939170
      px      :     3.330431
      py      :     2.980798
      dz2     :     0.012950  d :     0.116876
      dxz     :     0.012283
      dyz     :     0.025140
      dx2y2   :     0.017367
      dxy     :     0.049136
  2 C s       :     3.214084  s :     3.214084
      pz      :     1.119600  p :     2.880936
      px      :     0.928449
      py      :     0.832887
      dz2     :     0.003073  d :     0.036248
      dxz     :     0.007405
      dyz     :     0.002945
      dx2y2   :     0.009195
      dxy     :     0.013630
  3 C s       :     3.099976  s :     3.099976
      pz      :     1.022312  p :     2.931312
      px      :     0.900957
      py      :     1.008043
      dz2     :     0.003396  d :     0.044731
      dxz     :     0.007819
      dyz     :     0.006710
      dx2y2   :     0.014540
      dxy     :     0.012266
  4 C s       :     3.098770  s :     3.098770
      pz      :     1.027307  p :     2.932613
      px      :     0.892495
      py      :     1.012810
      dz2     :     0.003469  d :     0.044574
      dxz     :     0.007697
      dyz     :     0.006699
      dx2y2   :     0.014379
      dxy     :     0.012331
  5 C s       :     2.877364  s :     2.877364
      pz      :     0.981567  p :     2.887257
      px      :     0.918273
      py      :     0.987417
      dz2     :     0.008674  d :     0.036481
      dxz     :     0.005090
      dyz     :     0.006152
      dx2y2   :     0.007849
      dxy     :     0.008716
  6 C s       :     3.149220  s :     3.149220
      pz      :     0.886121  p :     2.985589
      px      :     1.053700
      py      :     1.045768
      dz2     :     0.012401  d :     0.044302
      dxz     :     0.005332
      dyz     :     0.008495
      dx2y2   :     0.008084
      dxy     :     0.009990
  7 S s       :     5.845319  s :     5.845319
      pz      :     3.062488  p :    10.148267
      px      :     3.201343
      py      :     3.884435
      dz2     :     0.029966  d :     0.064817
      dxz     :     0.010453
      dyz     :     0.006674
      dx2y2   :     0.013277
      dxy     :     0.004448
  8 C s       :     3.011701  s :     3.011701
      pz      :     0.723522  p :     2.725737
      px      :     1.036697
      py      :     0.965517
      dz2     :     0.024205  d :     0.072714
      dxz     :     0.013083
      dyz     :     0.017180
      dx2y2   :     0.008506
      dxy     :     0.009741
  9 O s       :     3.722796  s :     3.722796
      pz      :     1.292441  p :     4.562654
      px      :     1.438308
      py      :     1.831905
      dz2     :     0.004824  d :     0.013346
      dxz     :     0.002725
      dyz     :     0.001738
      dx2y2   :     0.002377
      dxy     :     0.001682
 10 C s       :     2.882088  s :     2.882088
      pz      :     0.990305  p :     2.911659
      px      :     0.935747
      py      :     0.985606
      dz2     :     0.007655  d :     0.035048
      dxz     :     0.004916
      dyz     :     0.006216
      dx2y2   :     0.007756
      dxy     :     0.008504
 11 H s       :     0.974355  s :     0.974355
      pz      :     0.005859  p :     0.024208
      px      :     0.004162
      py      :     0.014188
 12 H s       :     0.974212  s :     0.974212
      pz      :     0.005872  p :     0.024190
      px      :     0.004062
      py      :     0.014256
 13 H s       :     0.964333  s :     0.964333
      pz      :     0.013270  p :     0.023400
      px      :     0.004558
      py      :     0.005572
 14 H s       :     0.969294  s :     0.969294
      pz      :     0.007683  p :     0.022905
      px      :     0.004030
      py      :     0.011191
 15 H s       :     0.946089  s :     0.946089
      pz      :     0.004095  p :     0.021069
      px      :     0.011147
      py      :     0.005826
 16 H s       :     0.908611  s :     0.908611
      pz      :     0.004493  p :     0.032085
      px      :     0.017900
      py      :     0.009692
 17 H s       :     0.989585  s :     0.989585
      pz      :     0.002606  p :     0.019827
      px      :     0.011269
      py      :     0.005952
 18 H s       :     0.765838  s :     0.765838
      pz      :     0.016961  p :     0.068878
      px      :     0.030690
      py      :     0.021228
 19 H s       :     0.974356  s :     0.974356
      pz      :     0.007671  p :     0.022835
      px      :     0.004035
      py      :     0.011128
 20 H s       :     0.965689  s :     0.965689
      pz      :     0.013748  p :     0.023912
      px      :     0.004667
      py      :     0.005497


                     *******************************
                     * LOEWDIN POPULATION ANALYSIS *
                     *******************************

----------------------
LOEWDIN ATOMIC CHARGES
----------------------
   0 C :   -0.197773
   1 S :    0.439284
   2 C :   -0.197724
   3 C :   -0.082494
   4 C :   -0.084386
   5 C :   -0.033800
   6 C :   -0.136771
   7 S :    0.160419
   8 C :    0.052452
   9 O :   -0.121035
  10 C :   -0.037603
  11 H :    0.017559
  12 H :    0.017648
  13 H :    0.029776
  14 H :    0.030826
  15 H :    0.026847
  16 H :   -0.033976
  17 H :    0.019645
  18 H :    0.070181
  19 H :    0.031829
  20 H :    0.029097

-------------------------------
LOEWDIN REDUCED ORBITAL CHARGES
-------------------------------
  0 C s       :     2.917228  s :     2.917228
      pz      :     1.114609  p :     3.192454
      px      :     1.047688
      py      :     1.030157
      dz2     :     0.006390  d :     0.088091
      dxz     :     0.016017
      dyz     :     0.004887
      dx2y2   :     0.024753
      dxy     :     0.036044
  1 S s       :     5.495066  s :     5.495066
      pz      :     3.579093  p :     9.922171
      px      :     3.359838
      py      :     2.983240
      dz2     :     0.016394  d :     0.143479
      dxz     :     0.011887
      dyz     :     0.031219
      dx2y2   :     0.018738
      dxy     :     0.065241
  2 C s       :     2.917488  s :     2.917488
      pz      :     1.114937  p :     3.192187
      px      :     1.046612
      py      :     1.030638
      dz2     :     0.006390  d :     0.088049
      dxz     :     0.015903
      dyz     :     0.004892
      dx2y2   :     0.024884
      dxy     :     0.035979
  3 C s       :     2.851022  s :     2.851022
      pz      :     1.007073  p :     3.116727
      px      :     1.060439
      py      :     1.049215
      dz2     :     0.008280  d :     0.114745
      dxz     :     0.015463
      dyz     :     0.013878
      dx2y2   :     0.042958
      dxy     :     0.034166
  4 C s       :     2.850786  s :     2.850786
      pz      :     1.011100  p :     3.119203
      px      :     1.058845
      py      :     1.049259
      dz2     :     0.008340  d :     0.114397
      dxz     :     0.015316
      dyz     :     0.013814
      dx2y2   :     0.042548
      dxy     :     0.034378
  5 C s       :     2.828090  s :     2.828090
      pz      :     1.065366  p :     3.112189
      px      :     1.006370
      py      :     1.040453
      dz2     :     0.021913  d :     0.093521
      dxz     :     0.011983
      dyz     :     0.016369
      dx2y2   :     0.019092
      dxy     :     0.024163
  6 C s       :     2.907232  s :     2.907232
      pz      :     0.987759  p :     3.127356
      px      :     1.067835
      py      :     1.071762
      dz2     :     0.027162  d :     0.102182
      dxz     :     0.011656
      dyz     :     0.019887
      dx2y2   :     0.020151
      dxy     :     0.023326
  7 S s       :     5.573037  s :     5.573037
      pz      :     3.098279  p :    10.183232
      px      :     3.238933
      py      :     3.846020
      dz2     :     0.038798  d :     0.083311
      dxz     :     0.012384
      dyz     :     0.007969
      dx2y2   :     0.018646
      dxy     :     0.005514
  8 C s       :     2.847267  s :     2.847267
      pz      :     0.845615  p :     2.936964
      px      :     1.057493
      py      :     1.033856
      dz2     :     0.052009  d :     0.163318
      dxz     :     0.026680
      dyz     :     0.040043
      dx2y2   :     0.021378
      dxy     :     0.023208
  9 O s       :     3.437298  s :     3.437298
      pz      :     1.343021  p :     4.658612
      px      :     1.510618
      py      :     1.804974
      dz2     :     0.010068  d :     0.025124
      dxz     :     0.005364
      dyz     :     0.003041
      dx2y2   :     0.004217
      dxy     :     0.002434
 10 C s       :     2.830432  s :     2.830432
      pz      :     1.067890  p :     3.116733
      px      :     1.010311
      py      :     1.038531
      dz2     :     0.019896  d :     0.090438
      dxz     :     0.011619
      dyz     :     0.016474
      dx2y2   :     0.018793
      dxy     :     0.023656
 11 H s       :     0.906044  s :     0.906044
      pz      :     0.019386  p :     0.076397
      px      :     0.013501
      py      :     0.043510
 12 H s       :     0.905947  s :     0.905947
      pz      :     0.019433  p :     0.076405
      px      :     0.013303
      py      :     0.043669
 13 H s       :     0.902106  s :     0.902106
      pz      :     0.039074  p :     0.068118
      px      :     0.013831
      py      :     0.015213
 14 H s       :     0.901187  s :     0.901187
      pz      :     0.021040  p :     0.067987
      px      :     0.012804
      py      :     0.034142
 15 H s       :     0.902555  s :     0.902555
      pz      :     0.015885  p :     0.070598
      px      :     0.033974
      py      :     0.020739
 16 H s       :     0.949972  s :     0.949972
      pz      :     0.011393  p :     0.084004
      px      :     0.047146
      py      :     0.025465
 17 H s       :     0.916193  s :     0.916193
      pz      :     0.010486  p :     0.064162
      px      :     0.034262
      py      :     0.019415
 18 H s       :     0.747263  s :     0.747263
      pz      :     0.039991  p :     0.182556
      px      :     0.085767
      py      :     0.056798
 19 H s       :     0.900474  s :     0.900474
      pz      :     0.020997  p :     0.067697
      px      :     0.013154
      py      :     0.033545
 20 H s       :     0.901024  s :     0.901024
      pz      :     0.040121  p :     0.069879
      px      :     0.014438
      py      :     0.015319


                      *****************************
                      * MAYER POPULATION ANALYSIS *
                      *****************************

  NA   - Mulliken gross atomic population
  ZA   - Total nuclear charge
  QA   - Mulliken gross atomic charge
  VA   - Mayer's total valence
  BVA  - Mayer's bonded valence
  FA   - Mayer's free valence

  ATOM       NA         ZA         QA         VA         BVA        FA
  0 C      6.1303     6.0000    -0.1303     3.7982     3.7982    -0.0000
  1 S     15.8944    16.0000     0.1056     2.5306     2.5306     0.0000
  2 C      6.1313     6.0000    -0.1313     3.7935     3.7935    -0.0000
  3 C      6.0760     6.0000    -0.0760     4.0546     4.0546    -0.0000
  4 C      6.0760     6.0000    -0.0760     4.0620     4.0620    -0.0000
  5 C      5.8011     6.0000     0.1989     3.8491     3.8491    -0.0000
  6 C      6.1791     6.0000    -0.1791     3.9710     3.9710     0.0000
  7 S     16.0584    16.0000    -0.0584     2.0701     2.0701    -0.0000
  8 C      5.8102     6.0000     0.1898     4.0378     4.0378    -0.0000
  9 O      8.2988     8.0000    -0.2988     2.1116     2.1116     0.0000
 10 C      5.8288     6.0000     0.1712     3.8673     3.8673     0.0000
 11 H      0.9986     1.0000     0.0014     1.0008     1.0008     0.0000
 12 H      0.9984     1.0000     0.0016     1.0007     1.0007     0.0000
 13 H      0.9877     1.0000     0.0123     0.9969     0.9969    -0.0000
 14 H      0.9922     1.0000     0.0078     1.0093     1.0093    -0.0000
 15 H      0.9672     1.0000     0.0328     0.9818     0.9818     0.0000
 16 H      0.9407     1.0000     0.0593     0.9842     0.9842    -0.0000
 17 H      1.0094     1.0000    -0.0094     0.9901     0.9901     0.0000
 18 H      0.8347     1.0000     0.1653     1.0252     1.0252     0.0000
 19 H      0.9972     1.0000     0.0028     1.0011     1.0011    -0.0000
 20 H      0.9896     1.0000     0.0104     1.0134     1.0134    -0.0000

  Mayer bond orders larger than 0.100000
B(  0-C ,  1-S ) :   1.1724 B(  0-C ,  4-C ) :   1.5486 B(  0-C , 11-H ) :   0.9685 
B(  1-S ,  2-C ) :   1.1715 B(  2-C ,  3-C ) :   1.5462 B(  2-C , 12-H ) :   0.9677 
B(  3-C ,  4-C ) :   1.2934 B(  3-C , 10-C ) :   1.0168 B(  4-C ,  5-C ) :   1.0302 
B(  5-C ,  6-C ) :   1.0074 B(  5-C , 13-H ) :   0.9040 B(  5-C , 14-H ) :   0.9108 
B(  6-C ,  7-S ) :   1.0357 B(  6-C ,  8-C ) :   0.9515 B(  6-C , 15-H ) :   0.9161 
B(  7-S , 16-H ) :   0.9457 B(  8-C ,  9-O ) :   1.0389 B(  8-C , 10-C ) :   1.0455 
B(  8-C , 17-H ) :   0.9148 B(  9-O , 18-H ) :   0.9784 B( 10-C , 19-H ) :   0.9080 
B( 10-C , 20-H ) :   0.9029 

-------
TIMINGS
-------

Total SCF time: 0 days 0 hours 1 min 25 sec 

Total time                  ....      85.269 sec
Sum of individual times     ....      85.072 sec  ( 99.8%)

Fock matrix formation       ....      81.889 sec  ( 96.0%)
  Split-RI-J                ....       7.882 sec  (  9.6% of F)
  Chain of spheres X        ....      67.492 sec  ( 82.4% of F)
  COS-X 1 center corr.      ....       0.000 sec  (  0.0% of F)
  XC integration            ....       6.474 sec  (  7.9% of F)
    Basis function eval.    ....       2.273 sec  ( 35.1% of XC)
    Density eval.           ....       1.398 sec  ( 21.6% of XC)
    XC-Functional eval.     ....       0.400 sec  (  6.2% of XC)
    XC-Potential eval.      ....       2.217 sec  ( 34.2% of XC)
Diagonalization             ....       0.035 sec  (  0.0%)
Density matrix formation    ....       0.012 sec  (  0.0%)
Population analysis         ....       0.005 sec  (  0.0%)
Initial guess               ....       0.593 sec  (  0.7%)
Orbital Transformation      ....       0.000 sec  (  0.0%)
Orbital Orthonormalization  ....       0.000 sec  (  0.0%)
DIIS solution               ....       0.012 sec  (  0.0%)
SOSCF solution              ....       0.052 sec  (  0.1%)
Grid generation             ....       2.474 sec  (  2.9%)


-------------------------------------------------------------------------------
                          DFT DISPERSION CORRECTION                            
                                                                               
                              DFTD3 V3.1  Rev 1                                
                          USING Becke-Johnson damping                          
-------------------------------------------------------------------------------
Gaussians B3LYP functional is recognized, using regular B3LYP params
Active option DFTDOPT                   ...         4   

molecular C6(AA) [au] = 6343.107943 


            DFT-D V3
 parameters
 s6 scaling factor         :     1.0000 
 a1 scaling factor         :     0.3981 
 s8 scaling factor         :     1.9889 
 a2 scaling factor         :     4.4211 
 ad hoc parameters k1-k3   :    16.0000     1.3333    -4.0000 

 Edisp/kcal,au: -31.347989372140  -0.049956195602 
 E6   /kcal   : -14.154829634 
 E8   /kcal   : -17.193159738 
 % E8         :  54.846132342 

-------------------------   ----------------
Dispersion correction           -0.049956196
-------------------------   ----------------


-------------------------   --------------------
FINAL SINGLE POINT ENERGY     -1182.014384635097
-------------------------   --------------------

------------------------------------------------------------------------------
                         ORCA SCF GRADIENT CALCULATION
------------------------------------------------------------------------------

Gradient of the Kohn-Sham DFT energy:
Kohn-Sham wavefunction type      ... RKS
Hartree-Fock exchange scaling    ...    0.200
Number of operators              ...    1
Number of atoms                  ...   21
Basis set dimensions             ...  212
Integral neglect threshold       ... 2.5e-11
Integral primitive cutoff        ... 2.5e-12

Nuclear repulsion gradient       ... done
One Electron Gradient            ... done
Pre-screening matrix             ... done
RI-J gradient                    ... done
COSX-gradient                    ... done
Exchange-correlation gradient    ... done
Dispersion correction            ... done

------------------
CARTESIAN GRADIENT
------------------

   1   C   :   -0.010387896   -0.000336373   -0.001575918
   2   S   :   -0.005043761   -0.000015197   -0.000261334
   3   C   :   -0.010875032    0.000372297    0.001571437
   4   C   :    0.008313205    0.005350528    0.000431956
   5   C   :    0.007783794   -0.005351507    0.000240114
   6   C   :    0.001933367    0.001940667    0.000710049
   7   C   :    0.000060470    0.002430798   -0.003495266
   8   S   :    0.013295710   -0.003811369   -0.004412889
   9   C   :   -0.000924866    0.001040773   -0.001731909
  10   O   :   -0.000044794   -0.000975918    0.006817711
  11   C   :    0.003865931   -0.002965396    0.002328346
  12   H   :   -0.002696200   -0.012543178    0.001272125
  13   H   :   -0.002588015    0.012614971   -0.001505214
  14   H   :    0.001262660   -0.001853309    0.005441842
  15   H   :    0.000733423   -0.004459997   -0.000729792
  16   H   :    0.003567510   -0.001639019    0.002455378
  17   H   :   -0.010695674    0.002341890   -0.002653042
  18   H   :    0.002219180    0.001049818   -0.002847723
  19   H   :   -0.001888585    0.000224616    0.001350455
  20   H   :    0.001089311    0.004996451    0.002072811
  21   H   :    0.001481793    0.002093468   -0.005143551

Difference to translation invariance:
           :    0.0004615319    0.0005050150    0.0003355867

Norm of the cartesian gradient     ...    0.0372006726
RMS gradient                       ...    0.0046868442
MAX gradient                       ...    0.0132957104

-------
TIMINGS
-------

Total SCF gradient time            ...       21.570 sec

One electron gradient       ....       0.196 sec  (  0.9%)
Prescreening matrices       ....       0.185 sec  (  0.9%)
RI-J Coulomb gradient       ....       2.359 sec  ( 10.9%)
COSX gradient               ....      10.777 sec  ( 50.0%)
XC gradient                 ....       7.518 sec  ( 34.9%)
------------------------------------------------------------------------------
                         ORCA GEOMETRY RELAXATION STEP
------------------------------------------------------------------------------

Reading the OPT-File                    .... done
Getting information on internals        .... done
Copying old internal coords+grads       .... done
Making the new internal coordinates     .... (new redundants).... done
Validating the new internal coordinates .... (new redundants).... done
Calculating the B-matrix                .... done
Calculating the G,G- and P matrices     .... done
Transforming gradient to internals      .... done
Projecting the internal gradient        .... done
Number of atoms                         ....  21
Number of internal coordinates          .... 122
Current Energy                          .... -1182.014384635 Eh
Current gradient norm                   ....     0.037200673 Eh/bohr
Maximum allowed component of the step   ....  0.300
Current trust radius                    ....  0.300
Evaluating the initial hessian          ....  (Almloef) done
Projecting the Hessian                  .... done
Forming the augmented Hessian           .... done
Diagonalizing the augmented Hessian     .... done
Last element of RFO vector              ....  0.986228723
Lowest eigenvalues of augmented Hessian:
 -0.004670376  0.003274474  0.013134732  0.014937058  0.015229103
Length of the computed step             ....  0.167696533
The final length of the internal step   ....  0.167696533
Converting the step to cartesian space:
 Initial RMS(Int)=    0.0151825308
Transforming coordinates:
 Iter   0:  RMS(Cart)=    0.0416753749 RMS(Int)=    0.5688375969
 Iter   1:  RMS(Cart)=    0.0006090471 RMS(Int)=    0.0003170829
 Iter   2:  RMS(Cart)=    0.0000172670 RMS(Int)=    0.0000071819
 Iter   3:  RMS(Cart)=    0.0000005953 RMS(Int)=    0.0000003708
 Iter   4:  RMS(Cart)=    0.0000000204 RMS(Int)=    0.0000000105
done
Storing new coordinates                 .... done

                                .--------------------.
          ----------------------|Geometry convergence|-------------------------
          Item                value                   Tolerance       Converged
          ---------------------------------------------------------------------
          RMS gradient        0.0039748337            0.0001000000      NO
          MAX gradient        0.0170687152            0.0003000000      NO
          RMS step            0.0151825308            0.0020000000      NO
          MAX step            0.0331900478            0.0040000000      NO
          ........................................................
          Max(Bonds)      0.0176      Max(Angles)    1.03
          Max(Dihed)        1.90      Max(Improp)    0.00
          ---------------------------------------------------------------------

The optimization has not yet converged - more geometry cycles are needed


    ---------------------------------------------------------------------------
                         Redundant Internal Coordinates
                            (Angstroem and degrees)

        Definition                    Value    dE/dq     Step     New-Value
    ----------------------------------------------------------------------------
     1. B(S   1,C   0)                1.7182 -0.006745  0.0067    1.7249   
     2. B(C   2,S   1)                1.7186 -0.006716  0.0067    1.7252   
     3. B(C   3,C   2)                1.3598 -0.017069  0.0129    1.3727   
     4. B(C   4,C   3)                1.4250 -0.013853  0.0140    1.4391   
     5. B(C   4,C   0)                1.3599 -0.016729  0.0127    1.3726   
     6. B(C   5,C   4)                1.4983 -0.008054  0.0106    1.5089   
     7. B(C   6,C   5)                1.5262 -0.005530  0.0075    1.5337   
     8. B(S   7,C   6)                1.8314 -0.007341  0.0115    1.8429   
     9. B(C   8,C   6)                1.5396 -0.003904  0.0052    1.5447   
    10. B(O   9,C   8)                1.4075 -0.007976  0.0080    1.4154   
[...]
 197   0.0000       2.734896        74.4203 
 198   0.0000       2.814771        76.5938 
 199   0.0000       2.847235        77.4772 
 200   0.0000       2.893775        78.7436 
 201   0.0000       2.927015        79.6481 
 202   0.0000       2.969045        80.7918 
 203   0.0000       2.983915        81.1965 
 204   0.0000       2.993775        81.4648 
 205   0.0000       3.024948        82.3130 
 206   0.0000       3.045221        82.8647 
 207   0.0000       3.130672        85.1899 
 208   0.0000       3.152612        85.7869 
 209   0.0000       3.257070        88.6294 
 210   0.0000       3.390280        92.2542 
 211   0.0000       3.773699       102.6876 

                    ********************************
                    * MULLIKEN POPULATION ANALYSIS *
                    ********************************

-----------------------
MULLIKEN ATOMIC CHARGES
-----------------------
   0 C :   -0.134055
   1 S :    0.103000
   2 C :   -0.134142
   3 C :   -0.088914
   4 C :   -0.069449
   5 C :    0.186764
   6 C :   -0.164842
   7 S :   -0.063329
   8 C :    0.176070
   9 O :   -0.302557
  10 C :    0.157722
  11 H :    0.014628
  12 H :    0.014433
  13 H :    0.019354
  14 H :    0.005671
  15 H :    0.035801
  16 H :    0.061378
  17 H :   -0.006701
  18 H :    0.169013
  19 H :    0.004423
  20 H :    0.015731
Sum of atomic charges:    0.0000000

--------------------------------
MULLIKEN REDUCED ORBITAL CHARGES
--------------------------------
  0 C s       :     3.220291  s :     3.220291
      pz      :     1.121109  p :     2.878809
      px      :     0.925243
      py      :     0.832457
      dz2     :     0.003018  d :     0.034956
      dxz     :     0.007069
      dyz     :     0.002825
      dx2y2   :     0.008690
      dxy     :     0.013354
  1 S s       :     5.841290  s :     5.841290
      pz      :     3.638360  p :     9.941040
      px      :     3.330985
      py      :     2.971695
      dz2     :     0.012540  d :     0.114670
      dxz     :     0.011593
      dyz     :     0.024983
      dx2y2   :     0.016702
      dxy     :     0.048852
  2 C s       :     3.219931  s :     3.219931
      pz      :     1.120051  p :     2.879242
      px      :     0.924553
      py      :     0.834637
      dz2     :     0.003011  d :     0.034970
      dxz     :     0.007089
      dyz     :     0.002819
      dx2y2   :     0.008737
      dxy     :     0.013313
  3 C s       :     3.112082  s :     3.112082
      pz      :     1.026092  p :     2.934036
      px      :     0.901148
      py      :     1.006796
      dz2     :     0.003270  d :     0.042796
      dxz     :     0.007435
      dyz     :     0.006315
      dx2y2   :     0.014019
      dxy     :     0.011757
  4 C s       :     3.102529  s :     3.102529
      pz      :     1.022038  p :     2.924108
      px      :     0.894201
      py      :     1.007870
      dz2     :     0.003341  d :     0.042812
      dxz     :     0.007475
      dyz     :     0.006306
      dx2y2   :     0.013964
      dxy     :     0.011726
  5 C s       :     2.899128  s :     2.899128
      pz      :     0.984182  p :     2.878435
      px      :     0.916700
      py      :     0.977553
      dz2     :     0.008885  d :     0.035673
      dxz     :     0.005104
      dyz     :     0.005248
      dx2y2   :     0.008027
      dxy     :     0.008408
  6 C s       :     3.147365  s :     3.147365
      pz      :     0.878399  p :     2.973908
      px      :     1.052090
      py      :     1.043418
      dz2     :     0.012055  d :     0.043570
      dxz     :     0.005568
      dyz     :     0.008427
      dx2y2   :     0.007928
      dxy     :     0.009592
  7 S s       :     5.850179  s :     5.850179
      pz      :     3.057420  p :    10.150264
      px      :     3.205010
      py      :     3.887834
      dz2     :     0.028493  d :     0.062887
      dxz     :     0.011149
      dyz     :     0.006382
      dx2y2   :     0.012795
      dxy     :     0.004067
  8 C s       :     3.025696  s :     3.025696
      pz      :     0.719373  p :     2.727272
      px      :     1.036222
      py      :     0.971676
      dz2     :     0.023625  d :     0.070962
      dxz     :     0.012215
      dyz     :     0.017079
      dx2y2   :     0.008230
      dxy     :     0.009812
  9 O s       :     3.724162  s :     3.724162
      pz      :     1.299732  p :     4.565426
      px      :     1.393434
      py      :     1.872259
      dz2     :     0.004833  d :     0.012969
      dxz     :     0.002516
      dyz     :     0.001604
      dx2y2   :     0.003110
      dxy     :     0.000905
 10 C s       :     2.904287  s :     2.904287
      pz      :     0.997496  p :     2.903291
      px      :     0.934165
      py      :     0.971630
      dz2     :     0.007816  d :     0.034700
      dxz     :     0.004912
      dyz     :     0.005694
      dx2y2   :     0.007970
      dxy     :     0.008309
 11 H s       :     0.961904  s :     0.961904
      pz      :     0.005535  p :     0.023468
      px      :     0.003900
      py      :     0.014033
 12 H s       :     0.962120  s :     0.962120
      pz      :     0.005543  p :     0.023447
      px      :     0.003830
      py      :     0.014074
 13 H s       :     0.957468  s :     0.957468
      pz      :     0.013434  p :     0.023178
      px      :     0.004482
      py      :     0.005262
 14 H s       :     0.971974  s :     0.971974
      pz      :     0.007007  p :     0.022355
      px      :     0.003799
      py      :     0.011548
 15 H s       :     0.943371  s :     0.943371
      pz      :     0.004208  p :     0.020828
      px      :     0.010867
      py      :     0.005752
 16 H s       :     0.907958  s :     0.907958
      pz      :     0.004365  p :     0.030664
      px      :     0.017245
      py      :     0.009055
 17 H s       :     0.986942  s :     0.986942
      pz      :     0.002635  p :     0.019759
      px      :     0.011185
      py      :     0.005939
 18 H s       :     0.762164  s :     0.762164
      pz      :     0.016566  p :     0.068824
      px      :     0.032238
      py      :     0.020020
 19 H s       :     0.973237  s :     0.973237
      pz      :     0.007172  p :     0.022339
      px      :     0.003818
      py      :     0.011349
 20 H s       :     0.960782  s :     0.960782
      pz      :     0.013719  p :     0.023487
      px      :     0.004464
      py      :     0.005304


                     *******************************
                     * LOEWDIN POPULATION ANALYSIS *
                     *******************************

----------------------
LOEWDIN ATOMIC CHARGES
----------------------
   0 C :   -0.200676
   1 S :    0.433032
   2 C :   -0.201041
   3 C :   -0.083878
   4 C :   -0.079535
   5 C :   -0.033953
   6 C :   -0.137212
   7 S :    0.148478
   8 C :    0.056591
   9 O :   -0.128036
  10 C :   -0.039147
  11 H :    0.023450
  12 H :    0.023281
  13 H :    0.033427
  14 H :    0.030114
  15 H :    0.028787
  16 H :   -0.028941
  17 H :    0.018969
  18 H :    0.072511
  19 H :    0.031553
  20 H :    0.032228

-------------------------------
LOEWDIN REDUCED ORBITAL CHARGES
-------------------------------
  0 C s       :     2.929372  s :     2.929372
      pz      :     1.115817  p :     3.187149
      px      :     1.044466
      py      :     1.026866
      dz2     :     0.006150  d :     0.084155
      dxz     :     0.014946
      dyz     :     0.004612
      dx2y2   :     0.023624
      dxy     :     0.034823
  1 S s       :     5.502876  s :     5.502876
      pz      :     3.589796  p :     9.923579
      px      :     3.359029
      py      :     2.974755
      dz2     :     0.015841  d :     0.140513
      dxz     :     0.011073
      dyz     :     0.030846
      dx2y2   :     0.018063
      dxy     :     0.064690
  2 C s       :     2.929847  s :     2.929847
      pz      :     1.115081  p :     3.186992
      px      :     1.044166
      py      :     1.027745
      dz2     :     0.006143  d :     0.084202
      dxz     :     0.015010
      dyz     :     0.004605
      dx2y2   :     0.023729
      dxy     :     0.034716
  3 C s       :     2.861750  s :     2.861750
      pz      :     1.011110  p :     3.113065
      px      :     1.055929
      py      :     1.046026
      dz2     :     0.007861  d :     0.109063
      dxz     :     0.014530
      dyz     :     0.012827
      dx2y2   :     0.041411
      dxy     :     0.032435
  4 C s       :     2.861246  s :     2.861246
      pz      :     1.007974  p :     3.109301
      px      :     1.056181
      py      :     1.045146
      dz2     :     0.007941  d :     0.108988
      dxz     :     0.014597
      dyz     :     0.012823
      dx2y2   :     0.041236
      dxy     :     0.032391
  5 C s       :     2.835066  s :     2.835066
      pz      :     1.065582  p :     3.107851
      px      :     1.003535
      py      :     1.038733
      dz2     :     0.022323  d :     0.091037
      dxz     :     0.012053
      dyz     :     0.013907
      dx2y2   :     0.019586
      dxy     :     0.023168
  6 C s       :     2.913797  s :     2.913797
      pz      :     0.985067  p :     3.123424
      px      :     1.067464
      py      :     1.070893
      dz2     :     0.026013  d :     0.099991
      dxz     :     0.012231
      dyz     :     0.019810
      dx2y2   :     0.019673
      dxy     :     0.022264
  7 S s       :     5.587549  s :     5.587549
      pz      :     3.090490  p :    10.183788
      px      :     3.240859
      py      :     3.852440
      dz2     :     0.036552  d :     0.080185
      dxz     :     0.013409
      dyz     :     0.007687
      dx2y2   :     0.017582
      dxy     :     0.004956
  8 C s       :     2.852063  s :     2.852063
      pz      :     0.839673  p :     2.932315
      px      :     1.057851
      py      :     1.034791
      dz2     :     0.050616  d :     0.159031
      dxz     :     0.024407
      dyz     :     0.040027
      dx2y2   :     0.020591
      dxy     :     0.023389
  9 O s       :     3.443088  s :     3.443088
      pz      :     1.346902  p :     4.660724
      px      :     1.475954
      py      :     1.837867
      dz2     :     0.009975  d :     0.024224
      dxz     :     0.004963
      dyz     :     0.002694
      dx2y2   :     0.006048
      dxy     :     0.000545
 10 C s       :     2.836470  s :     2.836470
      pz      :     1.067472  p :     3.113459
      px      :     1.009368
      py      :     1.036619
      dz2     :     0.020318  d :     0.089217
      dxz     :     0.011499
      dyz     :     0.014976
      dx2y2   :     0.019373
      dxy     :     0.023051
 11 H s       :     0.903113  s :     0.903113
      pz      :     0.017986  p :     0.073437
      px      :     0.012453
      py      :     0.042999
 12 H s       :     0.903297  s :     0.903297
      pz      :     0.017990  p :     0.073422
      px      :     0.012342
      py      :     0.043090
 13 H s       :     0.899400  s :     0.899400
      pz      :     0.039842  p :     0.067173
      px      :     0.013380
      py      :     0.013951
 14 H s       :     0.903265  s :     0.903265
      pz      :     0.019268  p :     0.066620
      px      :     0.012169
      py      :     0.035183
 15 H s       :     0.901781  s :     0.901781
      pz      :     0.016062  p :     0.069432
      px      :     0.033177
      py      :     0.020192
 16 H s       :     0.949398  s :     0.949398
      pz      :     0.010726  p :     0.079543
      px      :     0.045195
      py      :     0.023622
 17 H s       :     0.917163  s :     0.917163
      pz      :     0.010445  p :     0.063868
      px      :     0.033979
      py      :     0.019444
 18 H s       :     0.745357  s :     0.745357
      pz      :     0.039052  p :     0.182133
      px      :     0.089421
      py      :     0.053659
 19 H s       :     0.902312  s :     0.902312
      pz      :     0.019613  p :     0.066136
      px      :     0.012406
      py      :     0.034116
 20 H s       :     0.899673  s :     0.899673
      pz      :     0.040145  p :     0.068099
      px      :     0.013672
      py      :     0.014282


                      *****************************
                      * MAYER POPULATION ANALYSIS *
                      *****************************

  NA   - Mulliken gross atomic population
  ZA   - Total nuclear charge
  QA   - Mulliken gross atomic charge
  VA   - Mayer's total valence
  BVA  - Mayer's bonded valence
  FA   - Mayer's free valence

  ATOM       NA         ZA         QA         VA         BVA        FA
  0 C      6.1341     6.0000    -0.1341     3.7978     3.7978    -0.0000
  1 S     15.8970    16.0000     0.1030     2.5269     2.5269    -0.0000
  2 C      6.1341     6.0000    -0.1341     3.7928     3.7928     0.0000
  3 C      6.0889     6.0000    -0.0889     4.0438     4.0438     0.0000
  4 C      6.0694     6.0000    -0.0694     4.0541     4.0541     0.0000
  5 C      5.8132     6.0000     0.1868     3.8751     3.8751     0.0000
  6 C      6.1648     6.0000    -0.1648     3.9484     3.9484     0.0000
  7 S     16.0633    16.0000    -0.0633     2.0670     2.0670     0.0000
  8 C      5.8239     6.0000     0.1761     4.0521     4.0521    -0.0000
  9 O      8.3026     8.0000    -0.3026     2.1101     2.1101    -0.0000
 10 C      5.8423     6.0000     0.1577     3.8819     3.8819    -0.0000
 11 H      0.9854     1.0000     0.0146     0.9999     0.9999     0.0000
 12 H      0.9856     1.0000     0.0144     0.9997     0.9997    -0.0000
 13 H      0.9806     1.0000     0.0194     1.0015     1.0015     0.0000
 14 H      0.9943     1.0000     0.0057     1.0050     1.0050     0.0000
 15 H      0.9642     1.0000     0.0358     0.9812     0.9812     0.0000
 16 H      0.9386     1.0000     0.0614     0.9833     0.9833    -0.0000
 17 H      1.0067     1.0000    -0.0067     0.9897     0.9897    -0.0000
 18 H      0.8310     1.0000     0.1690     1.0238     1.0238     0.0000
 19 H      0.9956     1.0000     0.0044     0.9968     0.9968     0.0000
 20 H      0.9843     1.0000     0.0157     1.0127     1.0127    -0.0000

  Mayer bond orders larger than 0.100000
B(  0-C ,  1-S ) :   1.1669 B(  0-C ,  4-C ) :   1.5507 B(  0-C , 11-H ) :   0.9652 
B(  1-S ,  2-C ) :   1.1691 B(  2-C ,  3-C ) :   1.5452 B(  2-C , 12-H ) :   0.9645 
B(  3-C ,  4-C ) :   1.2848 B(  3-C , 10-C ) :   1.0144 B(  4-C ,  5-C ) :   1.0353 
B(  5-C ,  6-C ) :   1.0085 B(  5-C , 13-H ) :   0.9062 B(  5-C , 14-H ) :   0.9138 
B(  6-C ,  7-S ) :   1.0337 B(  6-C ,  8-C ) :   0.9458 B(  6-C , 15-H ) :   0.9158 
B(  7-S , 16-H ) :   0.9459 B(  8-C ,  9-O ) :   1.0403 B(  8-C , 10-C ) :   1.0561 
B(  8-C , 17-H ) :   0.9176 B(  9-O , 18-H ) :   0.9748 B( 10-C , 19-H ) :   0.9127 
B( 10-C , 20-H ) :   0.9048 

-------
TIMINGS
-------

Total SCF time: 0 days 0 hours 0 min 47 sec 

Total time                  ....      47.440 sec
Sum of individual times     ....      47.302 sec  ( 99.7%)

Fock matrix formation       ....      44.950 sec  ( 94.8%)
  Split-RI-J                ....       3.912 sec  (  8.7% of F)
  Chain of spheres X        ....      37.301 sec  ( 83.0% of F)
  COS-X 1 center corr.      ....       0.000 sec  (  0.0% of F)
  XC integration            ....       3.693 sec  (  8.2% of F)
    Basis function eval.    ....       1.365 sec  ( 37.0% of XC)
    Density eval.           ....       0.826 sec  ( 22.4% of XC)
    XC-Functional eval.     ....       0.239 sec  (  6.5% of XC)
    XC-Potential eval.      ....       1.145 sec  ( 31.0% of XC)
Diagonalization             ....       0.006 sec  (  0.0%)
Density matrix formation    ....       0.007 sec  (  0.0%)
Population analysis         ....       0.005 sec  (  0.0%)
Initial guess               ....       0.006 sec  (  0.0%)
Orbital Transformation      ....       0.000 sec  (  0.0%)
Orbital Orthonormalization  ....       0.004 sec  (  0.0%)
DIIS solution               ....       0.001 sec  (  0.0%)
SOSCF solution              ....       0.023 sec  (  0.0%)
Grid generation             ....       2.303 sec  (  4.9%)


-------------------------------------------------------------------------------
                          DFT DISPERSION CORRECTION                            
                                                                               
                              DFTD3 V3.1  Rev 1                                
                          USING Becke-Johnson damping                          
-------------------------------------------------------------------------------
Gaussians B3LYP functional is recognized, using regular B3LYP params
Active option DFTDOPT                   ...         4   

molecular C6(AA) [au] = 6365.149933 


            DFT-D V3
 parameters
 s6 scaling factor         :     1.0000 
 a1 scaling factor         :     0.3981 
 s8 scaling factor         :     1.9889 
 a2 scaling factor         :     4.4211 
 ad hoc parameters k1-k3   :    16.0000     1.3333    -4.0000 

 Edisp/kcal,au: -31.048186808765  -0.049478429857 
 E6   /kcal   : -14.027251050 
 E8   /kcal   : -17.020935759 
 % E8         :  54.821029851 

-------------------------   ----------------
Dispersion correction           -0.049478430
-------------------------   ----------------


-------------------------   --------------------
FINAL SINGLE POINT ENERGY     -1182.017289678210
-------------------------   --------------------

                                *** OPTIMIZATION RUN DONE ***

                            ***************************************
                            *     ORCA property calculations      *
                            ***************************************

                                    ---------------------
                                    Active property flags
                                    ---------------------
   (+) Dipole Moment


------------------------------------------------------------------------------
                       ORCA ELECTRIC PROPERTIES CALCULATION
------------------------------------------------------------------------------

Dipole Moment Calculation                       ... on
Quadrupole Moment Calculation                   ... off
Polarizability Calculation                      ... off
GBWName                                         ... 619.gbw
Electron density file                           ... 619.scfp
The origin for moment calculation is the CENTER OF MASS  = (-0.827850,  0.169572  0.453494)

-------------
DIPOLE MOMENT
-------------
                                X             Y             Z
Electronic contribution:      5.96214       0.76665       1.78260
Nuclear contribution   :     -5.33368      -0.80896      -1.91687
                        -----------------------------------------
Total Dipole Moment    :      0.62846      -0.04232      -0.13427
                        -----------------------------------------
Magnitude (a.u.)       :      0.64403
Magnitude (Debye)      :      1.63700



--------------------
Rotational spectrum 
--------------------
 
Rotational constants in cm-1:     0.047517     0.019625     0.017419 
Rotational constants in MHz :  1424.514410   588.341915   522.217086 

 Dipole components along the rotational axes: 
x,y,z [a.u.] :    -0.643127    -0.022274     0.025892 
x,y,z [Debye]:    -1.634698    -0.056616     0.065812 

 

Timings for individual modules:

Sum of individual times         ...      842.152 sec (=  14.036 min)
GTO integral calculation        ...        2.930 sec (=   0.049 min)   0.3 %
SCF iterations                  ...      650.860 sec (=  10.848 min)  77.3 %
SCF Gradient evaluation         ...      187.420 sec (=   3.124 min)  22.3 %
Geometry relaxation             ...        0.942 sec (=   0.016 min)   0.1 %
                             ****ORCA TERMINATED NORMALLY****
TOTAL RUN TIME: 0 days 0 hours 14 minutes 3 seconds 509 msec
