
                                 *****************
                                 * O   R   C   A *
                                 *****************

           --- An Ab Initio, DFT and Semiempirical electronic structure package ---

                  #######################################################
                  #                        -***-                        #
                  #          Department of theory and spectroscopy      #
                  #               Directorship: Frank Neese             #
                  #        Max Planck Institute fuer Kohlenforschung    #
                  #                Kaiser Wilhelm Platz 1               #
                  #                 D-45470 Muelheim/Ruhr               #
                  #                      Germany                        #
                  #                                                     #
                  #                  All rights reserved                #
                  #                        -***-                        #
                  #######################################################


                         Program Version 4.2.0 -  RELEASE  -


 With contributions from (in alphabetic order):
   Daniel Aravena         : Magnetic Suceptibility
   Michael Atanasov       : Ab Initio Ligand Field Theory (pilot matlab implementation)
   Alexander A. Auer      : GIAO ZORA, VPT2
   Ute Becker             : Parallelization
   Giovanni Bistoni       : ED, misc. LED, open-shell LED, HFLED
   Martin Brehm           : Molecular dynamics
   Dmytro Bykov           : SCF Hessian
   Vijay G. Chilkuri      : MRCI spin determinant printing, contributions to CSF-ICE
   Dipayan Datta          : RHF DLPNO-CCSD density
   Achintya Kumar Dutta   : EOM-CC, STEOM-CC
   Dmitry Ganyushin       : Spin-Orbit,Spin-Spin,Magnetic field MRCI
   Miquel Garcia          : C-PCM Hessian, Gaussian charge scheme
   Yang Guo               : DLPNO-NEVPT2, CIM, IAO-localization
   Andreas Hansen         : Spin unrestricted coupled pair/coupled cluster methods
   Benjamin Helmich-Paris : CASSCF linear response (MC-RPA)
   Lee Huntington         : MR-EOM, pCC
   Robert Izsak           : Overlap fitted RIJCOSX, COSX-SCS-MP3, EOM
   Christian Kollmar      : KDIIS, OOCD, Brueckner-CCSD(T), CCSD density
   Simone Kossmann        : Meta GGA functionals, TD-DFT gradient, OOMP2, MP2 Hessian
   Martin Krupicka        : AUTO-CI
   Lucas Lang             : DCDCAS
   Dagmar Lenk            : GEPOL surface, SMD
   Dimitrios Liakos       : Extrapolation schemes; Compound Job, initial MDCI parallelization
   Dimitrios Manganas     : Further ROCIS development; embedding schemes
   Dimitrios Pantazis     : SARC Basis sets
   Taras Petrenko         : DFT Hessian,TD-DFT gradient, ASA, ECA, R-Raman, ABS, FL, XAS/XES, NRVS
   Peter Pinski           : DLPNO-MP2, DLPNO-MP2 Gradient
   Christoph Reimann      : Effective Core Potentials
   Marius Retegan         : Local ZFS, SOC
   Christoph Riplinger    : Optimizer, TS searches, QM/MM, DLPNO-CCSD(T), (RO)-DLPNO pert. Triples
   Tobias Risthaus        : Range-separated hybrids, TD-DFT gradient, RPA, STAB
   Michael Roemelt        : Original ROCIS implementation
   Masaaki Saitow         : Open-shell DLPNO-CCSD energy and density
   Barbara Sandhoefer     : DKH picture change effects
   Avijit Sen             : IP-ROCIS
   Kantharuban Sivalingam : CASSCF convergence, NEVPT2, FIC-MRCI
   Bernardo de Souza      : ESD, SOC TD-DFT
   Georgi Stoychev        : AutoAux, RI-MP2 NMR
   Willem Van den Heuvel  : Paramagnetic NMR
   Boris Wezisla          : Elementary symmetry handling
   Frank Wennmohs         : Technical directorship


 We gratefully acknowledge several colleagues who have allowed us to
 interface, adapt or use parts of their codes:
   Stefan Grimme, W. Hujo, H. Kruse,             : VdW corrections, initial TS optimization,
                  C. Bannwarth                     DFT functionals, gCP, sTDA/sTD-DF
   Ed Valeev, F. Pavosevic, A. Kumar             : LibInt (2-el integral package), F12 methods
   Garnet Chan, S. Sharma, J. Yang, R. Olivares  : DMRG
   Ulf Ekstrom                                   : XCFun DFT Library
   Mihaly Kallay                                 : mrcc  (arbitrary order and MRCC methods)
   Andreas Klamt, Michael Diedenhofen            : otool_cosmo (COSMO solvation model)
   Jiri Pittner, Ondrej Demel                    : Mk-CCSD
   Frank Weinhold                                : gennbo (NPA and NBO analysis)
   Christopher J. Cramer and Donald G. Truhlar   : smd solvation model
   Lars Goerigk                                  : TD-DFT with DH, B97 family of functionals
   V. Asgeirsson, H. Jonsson                     : NEB implementation
   FAccTs GmbH                                   : IRC, NEB, NEB-TS, Multilevel, MM, QM/MM, CI optimization
   S Lehtola, MJT Oliveira, MAL Marques          : LibXC Library


 Your calculation uses the libint2 library for the computation of 2-el integrals
 For citations please refer to: http://libint.valeyev.net

 Your ORCA version has been built with support for libXC version: 4.2.3
 For citations please refer to: https://tddft.org/programs/libxc/

 This ORCA versions uses:
   CBLAS   interface :  Fast vector & matrix operations
   LAPACKE interface :  Fast linear algebra routines
   SCALAPACK package :  Parallel linear algebra routines


Your calculation utilizes the atom-pairwise dispersion correction
with the Becke-Johnson damping scheme (D3BJ)
Cite in your paper:
S.Grimme, S.Ehrlich, L.Goerigk, J Comput Chem, (2011), 32, 1456–1465 
S.Grimme, J.Antony, S.Ehrlich and H.Krieg, J.Chem.Phys., 132, (2010), 154104 
   

----- Orbital basis set information -----
Your calculation utilizes the basis: def2-SVP
   F. Weigend and R. Ahlrichs, Phys. Chem. Chem. Phys. 7, 3297 (2005).

----- AuxJ basis set information -----
Your calculation utilizes the auxiliary basis: def2/J
   F. Weigend, Phys. Chem. Chem. Phys. 8, 1057 (2006).

================================================================================
                                        WARNINGS
                       Please study these warnings very carefully!
================================================================================


WARNING: Geometry Optimization
  ===> : Switching off AutoStart
         For restart on a previous wavefunction, please use MOREAD

INFO   : the flag for use of LIBINT has been found!

================================================================================
                                       INPUT FILE
================================================================================
NAME = 622.inp
|  1> # ORCA input file
|  2> # SCF done        -16.836369217025          0.000358562002
|  3> ! B3LYP/G D3BJ Opt RIJCOSX def2-SVP def2/J
|  4> * xyz 0 1
|  5>    C        2.09821        -0.10912         1.18763
|  6>    C        3.04569         0.14182         0.28636
|  7>    C        3.44737        -0.79052        -0.73273
|  8>    C        4.41386        -0.54485        -1.63266
|  9>    C        4.82103        -1.47987        -2.64718
| 10>    C        5.78993        -1.24050        -3.52854
| 11>    H        1.82239         0.60823         1.94105
| 12>    H        1.56779        -1.04717         1.20153
| 13>    H        3.56449         1.09231         0.29675
| 14>    H        2.92618        -1.73957        -0.75155
| 15>    H        4.93578         0.40378        -1.61307
| 16>    H        4.29209        -2.42458        -2.66741
| 17>    H        6.33247        -0.30921        -3.53040
| 18>    H        6.07407        -1.96178        -4.27499
| 19> *
| 20> 
| 21>                          ****END OF INPUT****
================================================================================

                       *****************************
                       * Geometry Optimization Run *
                       *****************************

Geometry optimization settings:
Update method            Update   .... BFGS
Choice of coordinates    CoordSys .... Z-matrix Internals
Initial Hessian          InHess   .... Almoef's Model

Convergence Tolerances:
Energy Change            TolE     ....  5.0000e-06 Eh
Max. Gradient            TolMAXG  ....  3.0000e-04 Eh/bohr
RMS Gradient             TolRMSG  ....  1.0000e-04 Eh/bohr
Max. Displacement        TolMAXD  ....  4.0000e-03 bohr
RMS Displacement         TolRMSD  ....  2.0000e-03 bohr
Strict Convergence                ....  False
------------------------------------------------------------------------------
                        ORCA OPTIMIZATION COORDINATE SETUP
------------------------------------------------------------------------------

The optimization will be done in new redundant internal coordinates
Making redundant internal coordinates   ...  (new redundants) done
Evaluating the initial hessian          ...  (Almloef) done
Evaluating the coordinates              ...  done
Calculating the B-matrix                .... done
Calculating the G-matrix                .... done
Diagonalizing the G-matrix              .... done
Small eigenvalue found = 1.906e-02
The first mode is                       ....   15
The number of degrees of freedom        ....   36

    -----------------------------------------------------------------
                    Redundant Internal Coordinates


    -----------------------------------------------------------------
         Definition                    Initial Value    Approx d2E/dq
    -----------------------------------------------------------------
      1. B(C   1,C   0)                  1.3315         0.774499   
      2. B(C   2,C   1)                  1.4385         0.522918   
      3. B(C   3,C   2)                  1.3433         0.741855   
      4. B(C   4,C   3)                  1.4385         0.522817   
      5. B(C   5,C   4)                  1.3315         0.774623   
      6. B(H   6,C   0)                  1.0762         0.378760   
      7. B(H   7,C   0)                  1.0777         0.376719   
      8. B(H   8,C   1)                  1.0829         0.369603   
      9. B(H   9,C   2)                  1.0829         0.369605   
     10. B(H  10,C   3)                  1.0829         0.369609   
     11. B(H  11,C   4)                  1.0829         0.369621   
     12. B(H  12,C   5)                  1.0778         0.376605   
     13. B(H  13,C   5)                  1.0762         0.378851   
     14. A(H   6,C   0,H   7)          116.4225         0.295256   
     15. A(C   1,C   0,H   6)          122.0449         0.369731   
     16. A(C   1,C   0,H   7)          121.5323         0.369388   
     17. A(C   2,C   1,H   8)          116.2261         0.344432   
     18. A(C   0,C   1,H   8)          119.9881         0.368181   
     19. A(C   0,C   1,C   2)          123.7856         0.438167   
     20. A(C   3,C   2,H   9)          119.6654         0.365473   
     21. A(C   1,C   2,H   9)          116.4843         0.344432   
     22. A(C   1,C   2,C   3)          123.8501         0.434781   
     23. A(C   2,C   3,C   4)          123.8678         0.434765   
     24. A(C   4,C   3,H  10)          116.4704         0.344422   
     25. A(C   2,C   3,H  10)          119.6614         0.365474   
     26. A(C   5,C   4,H  11)          119.9937         0.368194   
     27. A(C   3,C   4,H  11)          116.2296         0.344424   
     28. A(C   3,C   4,C   5)          123.7764         0.438165   
     29. A(H  12,C   5,H  13)          116.4242         0.295253   
     30. A(C   4,C   5,H  13)          122.0570         0.369757   
     31. A(C   4,C   5,H  12)          121.5189         0.369379   
     32. D(H   8,C   1,C   0,H   7)   -179.8607         0.043053   
     33. D(C   2,C   1,C   0,H   7)     -0.0594         0.043053   
     34. D(C   2,C   1,C   0,H   6)    179.7539         0.043053   
     35. D(H   8,C   1,C   0,H   6)     -0.0474         0.043053   
     36. D(C   3,C   2,C   1,H   8)      0.6256         0.018653   
     37. D(H   9,C   2,C   1,C   0)      0.6299         0.018653   
     38. D(C   3,C   2,C   1,C   0)   -179.1826         0.018653   
     39. D(H   9,C   2,C   1,H   8)   -179.5619         0.018653   
     40. D(H  10,C   3,C   2,H   9)   -179.9307         0.039167   
     41. D(H  10,C   3,C   2,C   1)     -0.1238         0.039167   
     42. D(C   4,C   3,C   2,H   9)     -0.1721         0.039167   
     43. D(C   4,C   3,C   2,C   1)    179.6347         0.039167   
     44. D(H  11,C   4,C   3,C   2)      0.6275         0.018645   
     45. D(C   5,C   4,C   3,H  10)      0.5767         0.018645   
     46. D(C   5,C   4,C   3,C   2)   -179.1889         0.018645   
     47. D(H  11,C   4,C   3,H  10)   -179.6069         0.018645   
     48. D(H  13,C   5,C   4,H  11)      0.0196         0.043068   
     49. D(H  13,C   5,C   4,C   3)    179.8295         0.043068   
     50. D(H  12,C   5,C   4,H  11)   -179.9757         0.043068   
     51. D(H  12,C   5,C   4,C   3)     -0.1659         0.043068   
    -----------------------------------------------------------------

Number of atoms                         .... 14
Number of degrees of freedom            .... 51

         *************************************************************
         *                GEOMETRY OPTIMIZATION CYCLE   1            *
         *************************************************************
---------------------------------
CARTESIAN COORDINATES (ANGSTROEM)
---------------------------------
  C      2.098210   -0.109120    1.187630
  C      3.045690    0.141820    0.286360
  C      3.447370   -0.790520   -0.732730
  C      4.413860   -0.544850   -1.632660
  C      4.821030   -1.479870   -2.647180
  C      5.789930   -1.240500   -3.528540
  H      1.822390    0.608230    1.941050
  H      1.567790   -1.047170    1.201530
  H      3.564490    1.092310    0.296750
  H      2.926180   -1.739570   -0.751550
  H      4.935780    0.403780   -1.613070
  H      4.292090   -2.424580   -2.667410
  H      6.332470   -0.309210   -3.530400
  H      6.074070   -1.961780   -4.274990

----------------------------
CARTESIAN COORDINATES (A.U.)
----------------------------
  NO LB      ZA    FRAG     MASS         X           Y           Z
   0 C     6.0000    0    12.011    3.965042   -0.206207    2.244295
   1 C     6.0000    0    12.011    5.755520    0.268001    0.541142
   2 C     6.0000    0    12.011    6.514585   -1.493866   -1.384659
   3 C     6.0000    0    12.011    8.340987   -1.029617   -3.085280
   4 C     6.0000    0    12.011    9.110426   -2.796549   -5.002445
   5 C     6.0000    0    12.011   10.941382   -2.344205   -6.667974
   6 H     1.0000    0     1.008    3.443818    1.149388    3.668053
   7 H     1.0000    0     1.008    2.962694   -1.978865    2.270563
   8 H     1.0000    0     1.008    6.735910    2.064167    0.560776
   9 H     1.0000    0     1.008    5.529679   -3.287311   -1.420224
  10 H     1.0000    0     1.008    9.327272    0.763034   -3.048261
  11 H     1.0000    0     1.008    8.110875   -4.581792   -5.040674
  12 H     1.0000    0     1.008   11.966634   -0.584322   -6.671489
  13 H     1.0000    0     1.008   11.478329   -3.707227   -8.078560

--------------------------------
INTERNAL COORDINATES (ANGSTROEM)
--------------------------------
 C      0   0   0     0.000000000000     0.00000000     0.00000000
 C      1   0   0     1.331531767139     0.00000000     0.00000000
 C      2   1   0     1.438453727480   123.78555024     0.00000000
 C      3   2   1     1.343253763777   123.85005626   180.81741926
 C      4   3   2     1.438506391957   123.86775108   179.63468538
 C      5   4   3     1.331488136072   123.77644179   180.81109576
 H      1   2   3     1.076247829870   122.04488550   179.75394134
 H      1   2   3     1.077718139821   121.53233959   359.94061577
 H      2   1   3     1.082909337018   119.98808489   180.19867076
 H      3   2   1     1.082907711211   116.48425891     0.62988759
 H      4   3   2     1.082904950307   119.66139910   359.87615781
 H      5   4   3     1.082896006364   116.22955923     0.62752583
 H      6   5   4     1.077800619456   121.51885576   359.83414565
 H      6   5   4     1.076182131658   122.05696183   179.82948186

---------------------------
INTERNAL COORDINATES (A.U.)
---------------------------
 C      0   0   0     0.000000000000     0.00000000     0.00000000
 C      1   0   0     2.516230378509     0.00000000     0.00000000
 C      2   1   0     2.718283601255   123.78555024     0.00000000
 C      3   2   1     2.538381741897   123.85005626   180.81741926
 C      4   3   2     2.718383122693   123.86775108   179.63468538
 C      5   4   3     2.516147927741   123.77644179   180.81109576
 H      1   2   3     2.033813650681   122.04488550   179.75394134
 H      1   2   3     2.036592133821   121.53233959   359.94061577
 H      2   1   3     2.046402074830   119.98808489   180.19867076
 H      3   2   1     2.046399002500   116.48425891     0.62988759
 H      4   3   2     2.046393785148   119.66139910   359.87615781
 H      5   4   3     2.046376883546   116.22955923     0.62752583
 H      6   5   4     2.036747997743   121.51885576   359.83414565
 H      6   5   4     2.033689499053   122.05696183   179.82948186

---------------------
BASIS SET INFORMATION
---------------------
There are 2 groups of distinct atoms

 Group   1 Type C   : 7s4p1d contracted to 3s2p1d pattern {511/31/1}
 Group   2 Type H   : 4s1p contracted to 2s1p pattern {31/1}

Atom   0C    basis set group =>   1
Atom   1C    basis set group =>   1
Atom   2C    basis set group =>   1
Atom   3C    basis set group =>   1
Atom   4C    basis set group =>   1
Atom   5C    basis set group =>   1
Atom   6H    basis set group =>   2
Atom   7H    basis set group =>   2
Atom   8H    basis set group =>   2
Atom   9H    basis set group =>   2
Atom  10H    basis set group =>   2
Atom  11H    basis set group =>   2
Atom  12H    basis set group =>   2
Atom  13H    basis set group =>   2
---------------------------------
AUXILIARY/J BASIS SET INFORMATION
---------------------------------
There are 2 groups of distinct atoms

 Group   1 Type C   : 12s5p4d2f1g contracted to 6s4p3d1f1g pattern {711111/2111/211/2/1}
 Group   2 Type H   : 5s2p1d contracted to 3s1p1d pattern {311/2/1}

Atom   0C    basis set group =>   1
Atom   1C    basis set group =>   1
Atom   2C    basis set group =>   1
Atom   3C    basis set group =>   1
Atom   4C    basis set group =>   1
Atom   5C    basis set group =>   1
Atom   6H    basis set group =>   2
Atom   7H    basis set group =>   2
Atom   8H    basis set group =>   2
Atom   9H    basis set group =>   2
Atom  10H    basis set group =>   2
Atom  11H    basis set group =>   2
Atom  12H    basis set group =>   2
Atom  13H    basis set group =>   2
------------------------------------------------------------------------------
                           ORCA GTO INTEGRAL CALCULATION
                           -- RI-GTO INTEGRALS CHOSEN --
------------------------------------------------------------------------------

                         BASIS SET STATISTICS AND STARTUP INFO

Gaussian basis set:
 # of primitive gaussian shells          ...  112
 # of primitive gaussian functions       ...  200
 # of contracted shells                  ...   60
 # of contracted basis functions         ...  124
 Highest angular momentum                ...    2
 Maximum contraction depth               ...    5
Auxiliary gaussian basis set:
 # of primitive gaussian shells          ...  208
 # of primitive gaussian functions       ...  548
 # of contracted shells                  ...  130
 # of contracted aux-basis functions     ...  382
 Highest angular momentum                ...    4
 Maximum contraction depth               ...    7
Ratio of auxiliary to basis functions    ...  3.08
Integral package used                  ... LIBINT
 One Electron integrals                  ... done
 Ordering auxiliary basis shells         ... done
 Integral threshhold             Thresh  ...  2.500e-11
 Primitive cut-off               TCut    ...  2.500e-12
 Pre-screening matrix                    ... done
 Shell pair data                         ... 
 Ordering of the shell pairs             ... done (   0.000 sec) 1692 of 1830 pairs
 Determination of significant pairs      ... done (   0.000 sec)
 Creation of shell pair data             ... done (   0.000 sec)
 Storage of shell pair data              ... done (   0.000 sec)
 Shell pair data done in (   0.001 sec)
 Computing two index integrals           ... done
 Cholesky decomposition of the V-matrix  ... done


Timings:
 Total evaluation time                   ...   0.142 sec (  0.002 min)
 One electron matrix time                ...   0.009 sec (  0.000 min) =  6.4%
 Schwartz matrix evaluation time         ...   0.092 sec (  0.002 min) = 64.8%
 Two index repulsion integral time       ...   0.003 sec (  0.000 min) =  2.4%
 Cholesky decomposition of V             ...   0.020 sec (  0.000 min) = 14.1%
 Three index repulsion integral time     ...   0.000 sec (  0.000 min) =  0.0%

-------------------------------------------------------------------------------
                                 ORCA SCF
-------------------------------------------------------------------------------

------------
SCF SETTINGS
------------
Hamiltonian:
 Density Functional     Method          .... DFT(GTOs)
 Exchange Functional    Exchange        .... B88
   X-Alpha parameter    XAlpha          ....  0.666667
   Becke's b parameter  XBeta           ....  0.004200
 Correlation Functional Correlation     .... LYP
 LDA part of GGA corr.  LDAOpt          .... VWN-3
 Gradients option       PostSCFGGA      .... off
 Hybrid DFT is turned on
   Fraction HF Exchange ScalHFX         ....  0.200000
   Scaling of DF-GGA-X  ScalDFX         ....  0.720000
   Scaling of DF-GGA-C  ScalDFC         ....  0.810000
   Scaling of DF-LDA-C  ScalLDAC        ....  1.000000
   Perturbative correction              ....  0.000000
   Density functional embedding theory  .... OFF
   NL short-range parameter             ....  4.800000
 RI-approximation to the Coulomb term is turned on
   Number of auxiliary basis functions  .... 382
   RIJ-COSX (HFX calculated with COS-X)).... on


General Settings:
 Integral files         IntName         .... 622
 Hartree-Fock type      HFTyp           .... RHF
 Total Charge           Charge          ....    0
 Multiplicity           Mult            ....    1
 Number of Electrons    NEL             ....   44
 Basis Dimension        Dim             ....  124
 Nuclear Repulsion      ENuc            ....    195.3738149358 Eh

Convergence Acceleration:
 DIIS                   CNVDIIS         .... on
   Start iteration      DIISMaxIt       ....    12
   Startup error        DIISStart       ....  0.200000
   # of expansion vecs  DIISMaxEq       ....     5
   Bias factor          DIISBfac        ....   1.050
   Max. coefficient     DIISMaxC        ....  10.000
 Newton-Raphson         CNVNR           .... off
 SOSCF                  CNVSOSCF        .... on
   Start iteration      SOSCFMaxIt      ....   150
   Startup grad/error   SOSCFStart      ....  0.003300
 Level Shifting         CNVShift        .... on
   Level shift para.    LevelShift      ....    0.2500
   Turn off err/grad.   ShiftErr        ....    0.0010
 Zerner damping         CNVZerner       .... off
 Static damping         CNVDamp         .... on
   Fraction old density DampFac         ....    0.7000
   Max. Damping (<1)    DampMax         ....    0.9800
   Min. Damping (>=0)   DampMin         ....    0.0000
   Turn off err/grad.   DampErr         ....    0.1000
 Fernandez-Rico         CNVRico         .... off

SCF Procedure:
 Maximum # iterations   MaxIter         ....   125
 SCF integral mode      SCFMode         .... Direct
   Integral package                     .... LIBINT
 Reset frequency        DirectResetFreq ....    20
 Integral Threshold     Thresh          ....  2.500e-11 Eh
 Primitive CutOff       TCut            ....  2.500e-12 Eh

Convergence Tolerance:
 Convergence Check Mode ConvCheckMode   .... Total+1el-Energy
 Convergence forced     ConvForced      .... 0
 Energy Change          TolE            ....  1.000e-08 Eh
 1-El. energy change                    ....  1.000e-05 Eh
 Orbital Gradient       TolG            ....  1.000e-05
 Orbital Rotation angle TolX            ....  1.000e-05
 DIIS Error             TolErr          ....  5.000e-07


Diagonalization of the overlap matrix:
Smallest eigenvalue                        ... 1.099e-03
Time for diagonalization                   ...    0.045 sec
Threshold for overlap eigenvalues          ... 1.000e-08
Number of eigenvalues below threshold      ... 0
Time for construction of square roots      ...    0.001 sec
Total time needed                          ...    0.045 sec

-------------------
DFT GRID GENERATION
-------------------

General Integration Accuracy     IntAcc      ...  4.340
Radial Grid Type                 RadialGrid  ... Gauss-Chebyshev
Angular Grid (max. acc.)         AngularGrid ... Lebedev-110
Angular grid pruning method      GridPruning ... 3 (G Style)
Weight generation scheme         WeightScheme... Becke
Basis function cutoff            BFCut       ...    1.0000e-11
Integration weight cutoff        WCut        ...    1.0000e-14
Grids for H and He will be reduced by one unit

# of grid points (after initial pruning)     ...  16288 (   0.0 sec)
# of grid points (after weights+screening)   ...  15392 (   0.0 sec)
nearest neighbour list constructed           ...    0.0 sec
Grid point re-assignment to atoms done       ...    0.0 sec
Grid point division into batches done        ...    0.0 sec
Reduced shell lists constructed in    0.1 sec

Total number of grid points                  ...    15392
Total number of batches                      ...      248
Average number of points per batch           ...       62
Average number of grid points per atom       ...     1099
Average number of shells per batch           ...    42.79 (71.32%)
Average number of basis functions per batch  ...    85.82 (69.21%)
Average number of large shells per batch     ...    34.47 (80.55%)
Average number of large basis fcns per batch ...    69.18 (80.61%)
Maximum spatial batch extension              ...  25.60, 18.94, 19.30 au
Average spatial batch extension              ...   4.70,  4.15,  4.42 au

Time for grid setup =    0.106 sec

------------------------------
INITIAL GUESS: MODEL POTENTIAL
------------------------------
Loading Hartree-Fock densities                     ... done
Calculating cut-offs                               ... done
Setting up the integral package                    ... done
Initializing the effective Hamiltonian             ... done
Starting the Coulomb interaction                   ... done (   0.0 sec)
Reading the grid                                   ... done
Mapping shells                                     ... done
Starting the XC term evaluation                    ... done (   0.1 sec)
  promolecular density results
     # of electrons  =     43.999413555
     EX              =    -33.179144856
     EC              =     -1.414976044
     EX+EC           =    -34.594120901
Transforming the Hamiltonian                       ... done (   0.0 sec)
Diagonalizing the Hamiltonian                      ... done (   0.0 sec)
Back transforming the eigenvectors                 ... done (   0.0 sec)
Now organizing SCF variables                       ... done
                      ------------------
                      INITIAL GUESS DONE (   0.3 sec)
                      ------------------
--------------------
COSX GRID GENERATION
--------------------

General Integration Accuracy     IntAcc      ...  3.340
Radial Grid Type                 RadialGrid  ... Gauss-Chebyshev
Angular Grid (max. acc.)         AngularGrid ... Lebedev-50
Angular grid pruning method      GridPruning ... 3 (G Style)
Weight generation scheme         WeightScheme... Becke
Basis function cutoff            BFCut       ...    1.0000e-11
Integration weight cutoff        WCut        ...    1.0000e-14
Grids for H and He will be reduced by one unit

# of grid points (after initial pruning)     ...   6040 (   0.0 sec)
# of grid points (after weights+screening)   ...   5714 (   0.0 sec)
nearest neighbour list constructed           ...    0.0 sec
Grid point re-assignment to atoms done       ...    0.0 sec
Grid point division into batches done        ...    0.0 sec
Reduced shell lists constructed in    0.0 sec

Total number of grid points                  ...     5714
Total number of batches                      ...       96
Average number of points per batch           ...       59
Average number of grid points per atom       ...      408
Average number of shells per batch           ...    45.66 (76.10%)
Average number of basis functions per batch  ...    92.59 (74.67%)
Average number of large shells per batch     ...    37.13 (81.33%)
Average number of large basis fcns per batch ...    75.53 (81.57%)
Maximum spatial batch extension              ...  25.32, 15.86, 17.53 au
Average spatial batch extension              ...   6.56,  5.38,  5.87 au

Overlap Fitting                  UseSFitting ... on
Constructing numerical overlap ... done (      0.0 sec)
Inverting numerical overlap    ... done (      0.0 sec)
Obtaining analytic overlap     ... done (      0.0 sec)
Final contraction and storage  ... done (      0.0 sec)


General Integration Accuracy     IntAcc      ...  3.670
Radial Grid Type                 RadialGrid  ... Gauss-Chebyshev
Angular Grid (max. acc.)         AngularGrid ... Lebedev-50
Angular grid pruning method      GridPruning ... 3 (G Style)
Weight generation scheme         WeightScheme... Becke
Basis function cutoff            BFCut       ...    1.0000e-11
Integration weight cutoff        WCut        ...    1.0000e-14
Grids for H and He will be reduced by one unit

# of grid points (after initial pruning)     ...   7724 (   0.0 sec)
# of grid points (after weights+screening)   ...   7309 (   0.0 sec)
nearest neighbour list constructed           ...    0.0 sec
Grid point re-assignment to atoms done       ...    0.0 sec
Grid point division into batches done        ...    0.0 sec
Reduced shell lists constructed in    0.0 sec

Total number of grid points                  ...     7309
Total number of batches                      ...      120
Average number of points per batch           ...       60
Average number of grid points per atom       ...      522
Average number of shells per batch           ...    44.87 (74.78%)
Average number of basis functions per batch  ...    90.70 (73.15%)
Average number of large shells per batch     ...    36.21 (80.70%)
Average number of large basis fcns per batch ...    73.07 (80.56%)
Maximum spatial batch extension              ...  27.71, 16.94, 18.56 au
Average spatial batch extension              ...   6.12,  5.11,  5.63 au

Overlap Fitting                  UseSFitting ... on
Constructing numerical overlap ... done (      0.0 sec)
Inverting numerical overlap    ... done (      0.0 sec)
Obtaining analytic overlap     ... done (      0.0 sec)
Final contraction and storage  ... done (      0.0 sec)


General Integration Accuracy     IntAcc      ...  4.010
Radial Grid Type                 RadialGrid  ... Gauss-Chebyshev
Angular Grid (max. acc.)         AngularGrid ... Lebedev-110
Angular grid pruning method      GridPruning ... 3 (G Style)
Weight generation scheme         WeightScheme... Becke
Basis function cutoff            BFCut       ...    1.0000e-11
Integration weight cutoff        WCut        ...    1.0000e-14
Grids for H and He will be reduced by one unit

# of grid points (after initial pruning)     ...  14152 (   0.0 sec)
# of grid points (after weights+screening)   ...  13397 (   0.0 sec)
nearest neighbour list constructed           ...    0.0 sec
Grid point re-assignment to atoms done       ...    0.0 sec
Grid point division into batches done        ...    0.0 sec
Reduced shell lists constructed in    0.1 sec

Total number of grid points                  ...    13397
Total number of batches                      ...      218
Average number of points per batch           ...       61
Average number of grid points per atom       ...      957
Average number of shells per batch           ...    43.15 (71.92%)
Average number of basis functions per batch  ...    86.82 (70.02%)
Average number of large shells per batch     ...    34.71 (80.43%)
Average number of large basis fcns per batch ...    69.68 (80.26%)
Maximum spatial batch extension              ...  24.23, 16.90, 17.99 au
Average spatial batch extension              ...   4.85,  4.16,  4.47 au

Overlap Fitting                  UseSFitting ... on
Constructing numerical overlap ... done (      0.0 sec)
Inverting numerical overlap    ... done (      0.0 sec)
Obtaining analytic overlap     ... done (      0.0 sec)
Final contraction and storage  ... done (      0.0 sec)

Time for X-Grid setup             =    0.328 sec
--------------
SCF ITERATIONS
--------------
ITER       Energy         Delta-E        Max-DP      RMS-DP      [F,P]     Damp
               ***  Starting incremental Fock matrix formation  ***
  0   -233.0660179011   0.000000000000 0.06190659  0.00239655  0.1477237 0.7000
  1   -233.1380827576  -0.072064856577 0.04081575  0.00177746  0.0834851 0.7000
                               ***Turning on DIIS***
  2   -233.1712410295  -0.033158271861 0.06447769  0.00322636  0.0370491 0.0000
  3   -233.2167105164  -0.045469486855 0.02825779  0.00117484  0.0409855 0.0000
  4   -233.2289092441  -0.012198727733 0.00532389  0.00033213  0.0094746 0.0000
                      *** Initiating the SOSCF procedure ***
                           *** Shutting down DIIS ***
                      *** Re-Reading the Fockian *** 
                      *** Removing any level shift *** 
ITER      Energy       Delta-E        Grad      Rot      Max-DP    RMS-DP
  5   -233.22955304  -0.0006438004  0.000824  0.000824  0.001993  0.000122
               *** Restarting incremental Fock matrix formation ***
  6   -233.22958764  -0.0000345976  0.000433  0.001770  0.001281  0.000077
  7   -233.22958713   0.0000005128  0.000497  0.000966  0.000836  0.000029
  8   -233.22959199  -0.0000048634  0.000171  0.000459  0.000395  0.000023
  9   -233.22959201  -0.0000000200  0.000147  0.000207  0.000262  0.000012
 10   -233.22959250  -0.0000004851  0.000010  0.000024  0.000031  0.000001
 11   -233.22959249   0.0000000036  0.000009  0.000011  0.000018  0.000001
                 **** Energy Check signals convergence ****
              ***Rediagonalizing the Fockian in SOSCF/NRSCF***

               *****************************************************
               *                     SUCCESS                       *
               *           SCF CONVERGED AFTER  12 CYCLES          *
               *****************************************************

Setting up the final grid:

General Integration Accuracy     IntAcc      ...  4.670
Radial Grid Type                 RadialGrid  ... Gauss-Chebyshev
Angular Grid (max. acc.)         AngularGrid ... Lebedev-302
Angular grid pruning method      GridPruning ... 3 (G Style)
Weight generation scheme         WeightScheme... Becke
Basis function cutoff            BFCut       ...    1.0000e-11
Integration weight cutoff        WCut        ...    1.0000e-14
Grids for H and He will be reduced by one unit

# of grid points (after initial pruning)     ...  64424 (   0.0 sec)
# of grid points (after weights+screening)   ...  60349 (   0.1 sec)
nearest neighbour list constructed           ...    0.0 sec
Grid point re-assignment to atoms done       ...    0.0 sec
Grid point division into batches done        ...    0.2 sec
Reduced shell lists constructed in    0.4 sec

Total number of grid points                  ...    60349
Total number of batches                      ...      952
Average number of points per batch           ...       63
Average number of grid points per atom       ...     4311
Average number of shells per batch           ...    39.17 (65.28%)
Average number of basis functions per batch  ...    78.41 (63.23%)
Average number of large shells per batch     ...    30.86 (78.80%)
Average number of large basis fcns per batch ...    61.48 (78.41%)
Maximum spatial batch extension              ...  20.91, 18.86, 18.39 au
Average spatial batch extension              ...   2.91,  2.77,  2.88 au

Final grid set up in    0.5 sec
Final integration                            ... done (   0.5 sec)
Change in XC energy                          ...    -0.000660372
Integrated number of electrons               ...    44.000004603
Previous integrated no of electrons          ...    43.996625989
Old exchange energy                            =     -6.772134776 Eh
New exchange energy                            =     -6.772830582 Eh
Exchange energy change after final integration =     -0.000695807 Eh
Total energy after final integration           =   -233.230948676 Eh
Final COS-X integration done in                =     2.180 sec

----------------
TOTAL SCF ENERGY
----------------

Total Energy       :         -233.23094868 Eh           -6346.53677 eV

Components:
Nuclear Repulsion  :          195.37381494 Eh            5316.39178 eV
Electronic Energy  :         -428.60476361 Eh          -11662.92855 eV
One Electron Energy:         -698.66530692 Eh          -19011.64953 eV
Two Electron Energy:          270.06054330 Eh            7348.72099 eV

Virial components:
Potential Energy   :         -463.92880143 Eh          -12624.14449 eV
Kinetic Energy     :          230.69785275 Eh            6277.60772 eV
Virial Ratio       :            2.01098015


DFT components:
N(Alpha)           :       22.000002301413 electrons
N(Beta)            :       22.000002301413 electrons
N(Total)           :       44.000004602826 electrons
E(X)               :      -26.865252297786 Eh       
E(C)               :       -1.844889142560 Eh       
E(XC)              :      -28.710141440346 Eh       
DFET-embed. en.    :        0.000000000000 Eh       

---------------
SCF CONVERGENCE
---------------

  Last Energy change         ...   -3.0277e-09  Tolerance :   1.0000e-08
  Last MAX-Density change    ...    1.5543e-15  Tolerance :   1.0000e-07
  Last RMS-Density change    ...    4.3766e-17  Tolerance :   5.0000e-09
  Last Orbital Gradient      ...    4.5044e-07  Tolerance :   1.0000e-05
  Last Orbital Rotation      ...    7.1165e-07  Tolerance :   1.0000e-05

             **** THE GBW FILE WAS UPDATED (622.gbw) ****
             **** DENSITY FILE WAS UPDATED (622.scfp) ****
             **** ENERGY FILE WAS UPDATED (622.en.tmp) ****
             **** THE GBW FILE WAS UPDATED (622.gbw) ****
             **** DENSITY FILE WAS UPDATED (622.scfp) ****
----------------
ORBITAL ENERGIES
----------------

  NO   OCC          E(Eh)            E(eV) 
   0   2.0000     -10.191752      -277.3317 
   1   2.0000     -10.191716      -277.3307 
   2   2.0000     -10.191005      -277.3113 
   3   2.0000     -10.190386      -277.2945 
   4   2.0000     -10.184359      -277.1305 
   5   2.0000     -10.184355      -277.1304 
   6   2.0000      -0.819148       -22.2901 
   7   2.0000      -0.777851       -21.1664 
   8   2.0000      -0.717578       -19.5263 
   9   2.0000      -0.619288       -16.8517 
  10   2.0000      -0.560462       -15.2509 
  11   2.0000      -0.552118       -15.0239 
  12   2.0000      -0.491581       -13.3766 
  13   2.0000      -0.465323       -12.6621 
  14   2.0000      -0.434167       -11.8143 
  15   2.0000      -0.409882       -11.1535 
  16   2.0000      -0.386445       -10.5157 
  17   2.0000      -0.365229        -9.9384 
  18   2.0000      -0.349630        -9.5139 
  19   2.0000      -0.349119        -9.5000 
  20   2.0000      -0.297048        -8.0831 
  21   2.0000      -0.218417        -5.9434 
  22   0.0000      -0.052770        -1.4359 
  23   0.0000       0.038316         1.0426 
  24   0.0000       0.066313         1.8045 
  25   0.0000       0.086198         2.3456 
  26   0.0000       0.089489         2.4351 
  27   0.0000       0.092793         2.5250 
  28   0.0000       0.108396         2.9496 
  29   0.0000       0.125940         3.4270 
  30   0.0000       0.151411         4.1201 
  31   0.0000       0.162340         4.4175 
  32   0.0000       0.176510         4.8031 
  33   0.0000       0.291979         7.9452 
  34   0.0000       0.296567         8.0700 
  35   0.0000       0.315241         8.5781 
  36   0.0000       0.335989         9.1427 
  37   0.0000       0.367863        10.0101 
  38   0.0000       0.382924        10.4199 
  39   0.0000       0.407677        11.0935 
  40   0.0000       0.418722        11.3940 
  41   0.0000       0.420323        11.4376 
  42   0.0000       0.445681        12.1276 
  43   0.0000       0.463058        12.6004 
  44   0.0000       0.492552        13.4030 
  45   0.0000       0.516773        14.0621 
  46   0.0000       0.534209        14.5366 
  47   0.0000       0.541888        14.7455 
  48   0.0000       0.541970        14.7478 
  49   0.0000       0.544705        14.8222 
  50   0.0000       0.633207        17.2304 
  51   0.0000       0.647653        17.6235 
  52   0.0000       0.648643        17.6505 
  53   0.0000       0.649123        17.6635 
  54   0.0000       0.656144        17.8546 
  55   0.0000       0.670718        18.2512 
  56   0.0000       0.683825        18.6078 
  57   0.0000       0.686930        18.6923 
  58   0.0000       0.704220        19.1628 
  59   0.0000       0.710208        19.3257 
  60   0.0000       0.736807        20.0495 
  61   0.0000       0.817590        22.2477 
  62   0.0000       0.817632        22.2489 
  63   0.0000       0.851844        23.1798 
  64   0.0000       0.884301        24.0630 
  65   0.0000       1.026541        27.9336 
  66   0.0000       1.111236        30.2383 
  67   0.0000       1.121284        30.5117 
  68   0.0000       1.162179        31.6245 
  69   0.0000       1.176578        32.0163 
  70   0.0000       1.184152        32.2224 
  71   0.0000       1.191408        32.4199 
  72   0.0000       1.225003        33.3340 
  73   0.0000       1.247461        33.9452 
  74   0.0000       1.264767        34.4161 
  75   0.0000       1.280287        34.8384 
  76   0.0000       1.307851        35.5884 
  77   0.0000       1.605122        43.6776 
  78   0.0000       1.616952        43.9995 
  79   0.0000       1.640494        44.6401 
  80   0.0000       1.641386        44.6644 
  81   0.0000       1.642290        44.6890 
  82   0.0000       1.684319        45.8326 
  83   0.0000       1.701299        46.2947 
  84   0.0000       1.714180        46.6452 
  85   0.0000       1.750463        47.6325 
  86   0.0000       1.777983        48.3814 
  87   0.0000       1.790510        48.7223 
  88   0.0000       1.811709        49.2991 
  89   0.0000       1.829854        49.7929 
  90   0.0000       1.881345        51.1940 
  91   0.0000       1.882645        51.2294 
  92   0.0000       1.942066        52.8463 
  93   0.0000       1.967489        53.5381 
  94   0.0000       1.973936        53.7135 
  95   0.0000       2.039956        55.5100 
  96   0.0000       2.058248        56.0078 
  97   0.0000       2.061940        56.1082 
  98   0.0000       2.075609        56.4802 
  99   0.0000       2.111556        57.4583 
 100   0.0000       2.189994        59.5928 
 101   0.0000       2.210623        60.1541 
 102   0.0000       2.240527        60.9679 
 103   0.0000       2.280583        62.0578 
 104   0.0000       2.335514        63.5526 
 105   0.0000       2.370211        64.4967 
 106   0.0000       2.413037        65.6621 
 107   0.0000       2.449022        66.6413 
 108   0.0000       2.491514        67.7976 
 109   0.0000       2.554079        69.5000 
 110   0.0000       2.579328        70.1871 
 111   0.0000       2.581418        70.2440 
 112   0.0000       2.601400        70.7877 
 113   0.0000       2.747480        74.7627 
 114   0.0000       2.765840        75.2623 
 115   0.0000       2.772043        75.4311 
 116   0.0000       2.832683        77.0812 
 117   0.0000       2.841329        77.3165 
 118   0.0000       2.955410        80.4208 
 119   0.0000       2.962054        80.6016 
 120   0.0000       3.118511        84.8590 
 121   0.0000       3.306582        89.9767 
 122   0.0000       3.392425        92.3126 
 123   0.0000       3.442820        93.6839 

                    ********************************
                    * MULLIKEN POPULATION ANALYSIS *
                    ********************************

-----------------------
MULLIKEN ATOMIC CHARGES
-----------------------
   0 C :   -0.010611
   1 C :    0.013651
   2 C :    0.017066
   3 C :    0.016578
   4 C :    0.013930
   5 C :   -0.010805
   6 H :    0.016123
   7 H :    0.008401
   8 H :   -0.019568
   9 H :   -0.024980
  10 H :   -0.024934
  11 H :   -0.019546
  12 H :    0.008603
  13 H :    0.016091
Sum of atomic charges:   -0.0000000

--------------------------------
MULLIKEN REDUCED ORBITAL CHARGES
--------------------------------
  0 C s       :     3.091873  s :     3.091873
      pz      :     0.979591  p :     2.891513
      px      :     0.986551
      py      :     0.925371
      dz2     :     0.006102  d :     0.027224
      dxz     :     0.004389
      dyz     :     0.005981
      dx2y2   :     0.004677
      dxy     :     0.006077
  1 C s       :     3.136262  s :     3.136262
      pz      :     0.953548  p :     2.812421
      px      :     0.943712
      py      :     0.915161
      dz2     :     0.009748  d :     0.037666
      dxz     :     0.006133
      dyz     :     0.007564
      dx2y2   :     0.006424
      dxy     :     0.007797
  2 C s       :     3.160510  s :     3.160510
      pz      :     0.938443  p :     2.786240
      px      :     0.944237
      py      :     0.903560
      dz2     :     0.009168  d :     0.036184
      dxz     :     0.006132
      dyz     :     0.007101
      dx2y2   :     0.006418
      dxy     :     0.007364
  3 C s       :     3.160660  s :     3.160660
      pz      :     0.939048  p :     2.786577
      px      :     0.944069
      py      :     0.903460
      dz2     :     0.009144  d :     0.036185
      dxz     :     0.006120
      dyz     :     0.007085
      dx2y2   :     0.006429
      dxy     :     0.007407
  4 C s       :     3.136130  s :     3.136130
      pz      :     0.953295  p :     2.812273
      px      :     0.943271
      py      :     0.915707
      dz2     :     0.009603  d :     0.037667
      dxz     :     0.006157
      dyz     :     0.007377
      dx2y2   :     0.006500
      dxy     :     0.008031
  5 C s       :     3.092084  s :     3.092084
      pz      :     0.979846  p :     2.891494
      px      :     0.985938
      py      :     0.925710
      dz2     :     0.005940  d :     0.027227
      dxz     :     0.004438
      dyz     :     0.005775
      dx2y2   :     0.004745
      dxy     :     0.006330
  6 H s       :     0.959506  s :     0.959506
      pz      :     0.009789  p :     0.024371
      px      :     0.005325
      py      :     0.009257
  7 H s       :     0.967257  s :     0.967257
      pz      :     0.004601  p :     0.024342
      px      :     0.007285
      py      :     0.012456
  8 H s       :     0.996258  s :     0.996258
      pz      :     0.003995  p :     0.023310
      px      :     0.006654
      py      :     0.012660
  9 H s       :     1.001541  s :     1.001541
      pz      :     0.004048  p :     0.023439
      px      :     0.006865
      py      :     0.012526
 10 H s       :     1.001495  s :     1.001495
      pz      :     0.004052  p :     0.023439
      px      :     0.006868
      py      :     0.012518
 11 H s       :     0.996230  s :     0.996230
      pz      :     0.004012  p :     0.023316
      px      :     0.006745
      py      :     0.012559
 12 H s       :     0.967059  s :     0.967059
      pz      :     0.004609  p :     0.024338
      px      :     0.007390
      py      :     0.012338
 13 H s       :     0.959535  s :     0.959535
      pz      :     0.009718  p :     0.024374
      px      :     0.005344
      py      :     0.009312


                     *******************************
                     * LOEWDIN POPULATION ANALYSIS *
                     *******************************

----------------------
LOEWDIN ATOMIC CHARGES
----------------------
   0 C :   -0.043280
   1 C :   -0.024141
   2 C :   -0.022040
   3 C :   -0.022073
   4 C :   -0.024062
   5 C :   -0.043333
   6 H :    0.021507
   7 H :    0.018929
   8 H :    0.025336
   9 H :    0.023695
  10 H :    0.023695
  11 H :    0.025320
  12 H :    0.018962
  13 H :    0.021483

-------------------------------
LOEWDIN REDUCED ORBITAL CHARGES
-------------------------------
  0 C s       :     2.875134  s :     2.875134
      pz      :     1.031881  p :     3.097300
      px      :     1.028578
      py      :     1.036841
      dz2     :     0.014326  d :     0.070846
      dxz     :     0.012908
      dyz     :     0.015733
      dx2y2   :     0.011480
      dxy     :     0.016399
  1 C s       :     2.860832  s :     2.860832
      pz      :     1.020846  p :     3.066373
      px      :     1.017074
      py      :     1.028453
      dz2     :     0.023053  d :     0.096935
      dxz     :     0.017222
      dyz     :     0.020198
      dx2y2   :     0.015858
      dxy     :     0.020604
  2 C s       :     2.861240  s :     2.861240
      pz      :     1.017957  p :     3.067120
      px      :     1.018500
      py      :     1.030663
      dz2     :     0.021535  d :     0.093681
      dxz     :     0.017220
      dyz     :     0.019205
      dx2y2   :     0.015950
      dxy     :     0.019771
  3 C s       :     2.861250  s :     2.861250
      pz      :     1.017877  p :     3.067147
      px      :     1.018457
      py      :     1.030813
      dz2     :     0.021462  d :     0.093677
      dxz     :     0.017195
      dyz     :     0.019143
      dx2y2   :     0.015980
      dxy     :     0.019897
  4 C s       :     2.860832  s :     2.860832
      pz      :     1.018266  p :     3.066295
      px      :     1.020403
      py      :     1.027626
      dz2     :     0.022615  d :     0.096935
      dxz     :     0.017304
      dyz     :     0.019665
      dx2y2   :     0.016136
      dxy     :     0.021216
  5 C s       :     2.875143  s :     2.875143
      pz      :     1.030134  p :     3.097338
      px      :     1.030839
      py      :     1.036365
      dz2     :     0.013864  d :     0.070852
      dxz     :     0.013050
      dyz     :     0.015168
      dx2y2   :     0.011713
      dxy     :     0.017056
  6 H s       :     0.908050  s :     0.908050
      pz      :     0.028089  p :     0.070442
      px      :     0.015478
      py      :     0.026876
  7 H s       :     0.910792  s :     0.910792
      pz      :     0.013191  p :     0.070279
      px      :     0.020747
      py      :     0.036341
  8 H s       :     0.907757  s :     0.907757
      pz      :     0.012077  p :     0.066907
      px      :     0.018944
      py      :     0.035885
  9 H s       :     0.908238  s :     0.908238
      pz      :     0.012310  p :     0.068067
      px      :     0.019575
      py      :     0.036182
 10 H s       :     0.908238  s :     0.908238
      pz      :     0.012341  p :     0.068067
      px      :     0.019588
      py      :     0.036138
 11 H s       :     0.907771  s :     0.907771
      pz      :     0.012115  p :     0.066909
      px      :     0.019161
      py      :     0.035632
 12 H s       :     0.910770  s :     0.910770
      pz      :     0.013289  p :     0.070267
      px      :     0.020957
      py      :     0.036021
 13 H s       :     0.908063  s :     0.908063
      pz      :     0.027939  p :     0.070453
      px      :     0.015456
      py      :     0.027059


                      *****************************
                      * MAYER POPULATION ANALYSIS *
                      *****************************

  NA   - Mulliken gross atomic population
  ZA   - Total nuclear charge
  QA   - Mulliken gross atomic charge
  VA   - Mayer's total valence
  BVA  - Mayer's bonded valence
  FA   - Mayer's free valence

  ATOM       NA         ZA         QA         VA         BVA        FA
  0 C      6.0106     6.0000    -0.0106     3.9161     3.9161    -0.0000
  1 C      5.9863     6.0000     0.0137     4.0230     4.0230    -0.0000
  2 C      5.9829     6.0000     0.0171     3.8719     3.8719     0.0000
  3 C      5.9834     6.0000     0.0166     3.8725     3.8725    -0.0000
  4 C      5.9861     6.0000     0.0139     4.0225     4.0225    -0.0000
  5 C      6.0108     6.0000    -0.0108     3.9158     3.9158    -0.0000
  6 H      0.9839     1.0000     0.0161     0.9740     0.9740    -0.0000
  7 H      0.9916     1.0000     0.0084     0.9825     0.9825     0.0000
  8 H      1.0196     1.0000    -0.0196     0.9845     0.9845     0.0000
  9 H      1.0250     1.0000    -0.0250     0.9935     0.9935     0.0000
 10 H      1.0249     1.0000    -0.0249     0.9935     0.9935    -0.0000
 11 H      1.0195     1.0000    -0.0195     0.9845     0.9845    -0.0000
 12 H      0.9914     1.0000     0.0086     0.9825     0.9825    -0.0000
 13 H      0.9839     1.0000     0.0161     0.9740     0.9740     0.0000

  Mayer bond orders larger than 0.100000
B(  0-C ,  1-C ) :   1.8788 B(  0-C ,  3-C ) :   0.1110 B(  0-C ,  6-H ) :   0.9480 
B(  0-C ,  7-H ) :   0.9542 B(  1-C ,  2-C ) :   1.1300 B(  1-C ,  8-H ) :   0.9699 
B(  2-C ,  3-C ) :   1.6818 B(  2-C ,  5-C ) :   0.1110 B(  2-C ,  9-H ) :   0.9762 
B(  3-C ,  4-C ) :   1.1302 B(  3-C , 10-H ) :   0.9762 B(  4-C ,  5-C ) :   1.8783 
B(  4-C , 11-H ) :   0.9701 B(  5-C , 12-H ) :   0.9542 B(  5-C , 13-H ) :   0.9481 


-------
TIMINGS
-------

Total SCF time: 0 days 0 hours 0 min 21 sec 

Total time                  ....      21.111 sec
Sum of individual times     ....      20.979 sec  ( 99.4%)

Fock matrix formation       ....      19.750 sec  ( 93.6%)
  Split-RI-J                ....       2.242 sec  ( 11.4% of F)
  Chain of spheres X        ....      15.160 sec  ( 76.8% of F)
  COS-X 1 center corr.      ....       0.000 sec  (  0.0% of F)
  XC integration            ....       2.322 sec  ( 11.8% of F)
    Basis function eval.    ....       0.970 sec  ( 41.8% of XC)
    Density eval.           ....       0.413 sec  ( 17.8% of XC)
    XC-Functional eval.     ....       0.229 sec  (  9.8% of XC)
    XC-Potential eval.      ....       0.620 sec  ( 26.7% of XC)
Diagonalization             ....       0.011 sec  (  0.1%)
Density matrix formation    ....       0.002 sec  (  0.0%)
Population analysis         ....       0.002 sec  (  0.0%)
Initial guess               ....       0.228 sec  (  1.1%)
Orbital Transformation      ....       0.000 sec  (  0.0%)
Orbital Orthonormalization  ....       0.000 sec  (  0.0%)
DIIS solution               ....       0.003 sec  (  0.0%)
SOSCF solution              ....       0.007 sec  (  0.0%)
Grid generation             ....       0.975 sec  (  4.6%)


-------------------------------------------------------------------------------
                          DFT DISPERSION CORRECTION                            
                                                                               
                              DFTD3 V3.1  Rev 1                                
                          USING Becke-Johnson damping                          
-------------------------------------------------------------------------------
Gaussians B3LYP functional is recognized, using regular B3LYP params
Active option DFTDOPT                   ...         4   

molecular C6(AA) [au] = 1967.512752 


            DFT-D V3
 parameters
 s6 scaling factor         :     1.0000 
 a1 scaling factor         :     0.3981 
 s8 scaling factor         :     1.9889 
 a2 scaling factor         :     4.4211 
 ad hoc parameters k1-k3   :    16.0000     1.3333    -4.0000 

 Edisp/kcal,au: -11.330063339817  -0.018055603301 
 E6   /kcal   :  -5.411966424 
 E8   /kcal   :  -5.918096916 
 % E8         :  52.233573091 

-------------------------   ----------------
Dispersion correction           -0.018055603
-------------------------   ----------------


-------------------------   --------------------
FINAL SINGLE POINT ENERGY      -233.249004279552
-------------------------   --------------------

------------------------------------------------------------------------------
                         ORCA SCF GRADIENT CALCULATION
------------------------------------------------------------------------------

Gradient of the Kohn-Sham DFT energy:
Kohn-Sham wavefunction type      ... RKS
Hartree-Fock exchange scaling    ...    0.200
Number of operators              ...    1
Number of atoms                  ...   14
Basis set dimensions             ...  124
Integral neglect threshold       ... 2.5e-11
Integral primitive cutoff        ... 2.5e-12

Nuclear repulsion gradient       ... done
One Electron Gradient            ... done
Pre-screening matrix             ... done
RI-J gradient                    ... done
COSX-gradient                    ... done
Exchange-correlation gradient    ... done
Dispersion correction            ... done

------------------
CARTESIAN GRADIENT
------------------

   1   C   :    0.003691809   -0.000961884   -0.005673781
   2   C   :   -0.003101548    0.001419483    0.004353702
   3   C   :    0.000712722   -0.003459127   -0.003207679
   4   C   :   -0.000647606    0.003421046    0.003356962
   5   C   :    0.003105632   -0.001403454   -0.004483409
   6   C   :   -0.003701920    0.000802669    0.005795728
   7   H   :    0.002630455   -0.008557345   -0.008034806
   8   H   :    0.005406362    0.010651812    0.000085037
   9   H   :   -0.004008671   -0.008516831   -0.000815525
  10   H   :    0.003754245    0.008730613    0.001084376
  11   H   :   -0.003800807   -0.008718675   -0.001120859
  12   H   :    0.004047168    0.008510485    0.000867282
  13   H   :   -0.005469473   -0.010576233   -0.000158884
  14   H   :   -0.002646719    0.008601446    0.008069472

Difference to translation invariance:
           :   -0.0000283516   -0.0000559953    0.0001176168

Norm of the cartesian gradient     ...    0.0337711982
RMS gradient                       ...    0.0052110090
MAX gradient                       ...    0.0106518116

-------
TIMINGS
-------

Total SCF gradient time            ...        5.185 sec

One electron gradient       ....       0.048 sec  (  0.9%)
Prescreening matrices       ....       0.041 sec  (  0.8%)
RI-J Coulomb gradient       ....       0.463 sec  (  8.9%)
COSX gradient               ....       2.213 sec  ( 42.7%)
XC gradient                 ....       2.150 sec  ( 41.5%)
------------------------------------------------------------------------------
                         ORCA GEOMETRY RELAXATION STEP
------------------------------------------------------------------------------

Reading the OPT-File                    .... done
Getting information on internals        .... done
Copying old internal coords+grads       .... done
Making the new internal coordinates     .... (new redundants).... done
Validating the new internal coordinates .... (new redundants).... done
Calculating the B-matrix                .... done
Calculating the G,G- and P matrices     .... done
Transforming gradient to internals      .... done
Projecting the internal gradient        .... done
Number of atoms                         ....  14
Number of internal coordinates          ....  51
Current Energy                          ....  -233.249004280 Eh
Current gradient norm                   ....     0.033771198 Eh/bohr
Maximum allowed component of the step   ....  0.300
Current trust radius                    ....  0.300
Evaluating the initial hessian          ....  (Almloef) done
Projecting the Hessian                  .... done
Forming the augmented Hessian           .... done
Diagonalizing the augmented Hessian     .... done
Last element of RFO vector              ....  0.995049999
Lowest eigenvalues of augmented Hessian:
 -0.004348892  0.018648278  0.018655525  0.029211338  0.029215992
Length of the computed step             ....  0.099869904
The final length of the internal step   ....  0.099869904
Converting the step to cartesian space:
 Initial RMS(Int)=    0.0139845837
Transforming coordinates:
 Iter   0:  RMS(Cart)=    0.0334486734 RMS(Int)=    1.7586535319
 Iter   1:  RMS(Cart)=    0.0001143441 RMS(Int)=    0.0000642624
 Iter   2:  RMS(Cart)=    0.0000020983 RMS(Int)=    0.0000013784
 Iter   3:  RMS(Cart)=    0.0000000318 RMS(Int)=    0.0000000208
done
Storing new coordinates                 .... done

                                .--------------------.
          ----------------------|Geometry convergence|-------------------------
          Item                value                   Tolerance       Converged
          ---------------------------------------------------------------------
          RMS gradient        0.0065191892            0.0001000000      NO
          MAX gradient        0.0179160850            0.0003000000      NO
          RMS step            0.0139845837            0.0020000000      NO
          MAX step            0.0314324458            0.0040000000      NO
          ........................................................
          Max(Bonds)      0.0166      Max(Angles)    0.56
          Max(Dihed)        0.51      Max(Improp)    0.00
          ---------------------------------------------------------------------

The optimization has not yet converged - more geometry cycles are needed


    ---------------------------------------------------------------------------
                         Redundant Internal Coordinates
                            (Angstroem and degrees)

        Definition                    Value    dE/dq     Step     New-Value
    ----------------------------------------------------------------------------
     1. B(C   1,C   0)                1.3315 -0.017851  0.0121    1.3437   
     2. B(C   2,C   1)                1.4385 -0.012231  0.0123    1.4507   
     3. B(C   3,C   2)                1.3433 -0.014730  0.0104    1.3537   
     4. B(C   4,C   3)                1.4385 -0.012190  0.0122    1.4507   
     5. B(C   5,C   4)                1.3315 -0.017916  0.0122    1.3437   
     6. B(H   6,C   0)                1.0762 -0.011980  0.0165    1.0928   
     7. B(H   7,C   0)                1.0777 -0.011978  0.0166    1.0944   
     8. B(H   8,C   1)                1.0829 -0.009374  0.0133    1.0962   
     9. B(H   9,C   2)                1.0829 -0.009488  0.0134    1.0963   
    10. B(H  10,C   3)                1.0829 -0.009495  0.0134    1.0963   
    11. B(H  11,C   4)                1.0829 -0.009394  0.0133    1.0962   
    12. B(H  12,C   5)                1.0778 -0.011931  0.0166    1.0944   
    13. B(H  13,C   5)                1.0762 -0.012033  0.0166    1.0928   
    14. A(H   6,C   0,H   7)          116.42 -0.000862    0.15    116.58   
    15. A(C   1,C   0,H   6)          122.04  0.000629   -0.11    121.94   
    16. A(C   1,C   0,H   7)          121.53  0.000232   -0.05    121.49   
    17. A(C   2,C   1,H   8)          116.23  0.001057   -0.13    116.09   
    18. A(C   0,C   1,H   8)          119.99  0.002987   -0.42    119.57   
    19. A(C   0,C   1,C   2)          123.79 -0.004044    0.56    124.34   
    20. A(C   3,C   2,H   9)          119.67  0.002606   -0.38    119.28   
    21. A(C   1,C   2,H   9)          116.48 -0.000059    0.03    116.52   
    22. A(C   1,C   2,C   3)          123.85 -0.002548    0.35    124.20   
    23. A(C   2,C   3,C   4)          123.87 -0.002474    0.34    124.21   
    24. A(C   4,C   3,H  10)          116.47 -0.000106    0.04    116.51   
    25. A(C   2,C   3,H  10)          119.66  0.002579   -0.38    119.28   
    26. A(C   5,C   4,H  11)          119.99  0.003005   -0.42    119.57   
    27. A(C   3,C   4,H  11)          116.23  0.001071   -0.14    116.09   
    28. A(C   3,C   4,C   5)          123.78 -0.004076    0.56    124.34   
    29. A(H  12,C   5,H  13)          116.42 -0.000882    0.16    116.58   
    30. A(C   4,C   5,H  13)          122.06  0.000660   -0.11    121.95   
    31. A(C   4,C   5,H  12)          121.52  0.000222   -0.04    121.47   
    32. D(H   8,C   1,C   0,H   7)   -179.86  0.000150   -0.20   -180.07   
    33. D(C   2,C   1,C   0,H   7)     -0.06  0.000021   -0.00     -0.06   
    34. D(C   2,C   1,C   0,H   6)    179.75 -0.000360    0.46    180.21   
    35. D(H   8,C   1,C   0,H   6)     -0.05 -0.000231    0.26      0.21   
    36. D(C   3,C   2,C   1,H   8)      0.63  0.000132   -0.31      0.32   
    37. D(H   9,C   2,C   1,C   0)      0.63  0.000066   -0.18      0.45   
    38. D(C   3,C   2,C   1,C   0)   -179.18  0.000252   -0.51   -179.69   
    39. D(H   9,C   2,C   1,H   8)   -179.56 -0.000054    0.01   -179.55   
    40. D(H  10,C   3,C   2,H   9)   -179.93  0.000103   -0.18   -180.11   
    41. D(H  10,C   3,C   2,C   1)     -0.12 -0.000094    0.15      0.03   
    42. D(C   4,C   3,C   2,H   9)     -0.17  0.000063   -0.11     -0.29   
    43. D(C   4,C   3,C   2,C   1)    179.63 -0.000134    0.22    179.85   
    44. D(H  11,C   4,C   3,C   2)      0.63  0.000131   -0.35      0.28   
    45. D(C   5,C   4,C   3,H  10)      0.58  0.000178   -0.42      0.16   
    46. D(C   5,C   4,C   3,C   2)   -179.19  0.000210   -0.48   -179.67   
    47. D(H  11,C   4,C   3,H  10)   -179.61  0.000098   -0.29   -179.90   
    48. D(H  13,C   5,C   4,H  11)      0.02  0.000257   -0.33     -0.31   
    49. D(H  13,C   5,C   4,C   3)    179.83  0.000171   -0.19    179.64   
    50. D(H  12,C   5,C   4,H  11)   -179.98  0.000013   -0.03   -180.01   
    51. D(H  12,C   5,C   4,C   3)     -0.17 -0.000073    0.10     -0.06   
    ----------------------------------------------------------------------------

         *************************************************************
         *                GEOMETRY OPTIMIZATION CYCLE   2            *
         *************************************************************
---------------------------------
CARTESIAN COORDINATES (ANGSTROEM)
---------------------------------
  C      2.076256   -0.101355    1.211208
  C      3.037558    0.142753    0.304713
  C      3.448689   -0.793417   -0.724448
  C      4.421804   -0.546824   -1.632601
  C      4.835179   -1.484078   -2.659895
  C      5.804997   -1.244520   -3.558497
  H      1.795310    0.634806    1.968399
  H      1.530803   -1.049990    1.224548
  H      3.563269    1.104527    0.319468
  H      2.922139   -1.754679   -0.750349
  H      4.947136    0.415140   -1.607802
  H      4.304293   -2.442931   -2.679607
  H      6.354820   -0.298333   -3.567241
  H      6.089099   -1.982128   -4.313104

----------------------------
CARTESIAN COORDINATES (A.U.)
----------------------------
  NO LB      ZA    FRAG     MASS         X           Y           Z
   0 C     6.0000    0    12.011    3.923556   -0.191533    2.288851
   1 C     6.0000    0    12.011    5.740153    0.269764    0.575823
   2 C     6.0000    0    12.011    6.517077   -1.499341   -1.369009
   3 C     6.0000    0    12.011    8.355998   -1.033348   -3.085169
   4 C     6.0000    0    12.011    9.137164   -2.804500   -5.026473
   5 C     6.0000    0    12.011   10.969854   -2.351803   -6.724585
   6 H     1.0000    0     1.008    3.392644    1.199609    3.719734
   7 H     1.0000    0     1.008    2.892798   -1.984193    2.314059
   8 H     1.0000    0     1.008    6.733602    2.087253    0.603707
   9 H     1.0000    0     1.008    5.522043   -3.315863   -1.417954
  10 H     1.0000    0     1.008    9.348733    0.784500   -3.038306
  11 H     1.0000    0     1.008    8.133935   -4.616471   -5.063723
  12 H     1.0000    0     1.008   12.008869   -0.563767   -6.741108
  13 H     1.0000    0     1.008   11.506729   -3.745678   -8.150586

--------------------------------
INTERNAL COORDINATES (ANGSTROEM)
--------------------------------
 C      0   0   0     0.000000000000     0.00000000     0.00000000
 C      1   0   0     1.343660253274     0.00000000     0.00000000
 C      2   1   0     1.450729227749   124.34089932     0.00000000
 C      3   2   1     1.353699406143   124.20040952   180.31167051
 C      4   3   2     1.450743159822   124.20786354   179.85158367
 C      5   4   3     1.343659026372   124.33621297   180.33179481
 H      1   2   3     1.092795383195   121.93823244   180.21237207
 H      1   2   3     1.094351473885   121.48656150   359.93871420
 H      2   1   3     1.096174339238   119.56632007   179.99605381
 H      3   2   1     1.096334529224   116.51647615     0.44562416
 H      4   3   2     1.096341425754   119.28232583     0.03048830
 H      5   4   3     1.096188265900   116.09412665     0.27828832
 H      6   5   4     1.094373220970   121.47422530   359.93748627
 H      6   5   4     1.092799556953   121.94538245   179.63794780

---------------------------
INTERNAL COORDINATES (A.U.)
---------------------------
 C      0   0   0     0.000000000000     0.00000000     0.00000000
 C      1   0   0     2.539149895723     0.00000000     0.00000000
 C      2   1   0     2.741480934921   124.34089932     0.00000000
 C      3   2   1     2.558121145262   124.20040952   180.31167051
 C      4   3   2     2.741507262723   124.20786354   179.85158367
 C      5   4   3     2.539147577214   124.33621297   180.33179481
 H      1   2   3     2.065083994653   121.93823244   180.21237207
 H      1   2   3     2.068024579895   121.48656150   359.93871420
 H      2   1   3     2.071469296191   119.56632007   179.99605381
 H      3   2   1     2.071772011394   116.51647615     0.44562416
 H      4   3   2     2.071785043947   119.28232583     0.03048830
 H      5   4   3     2.071495613769   116.09412665     0.27828832
 H      6   5   4     2.068065675930   121.47422530   359.93748627
 H      6   5   4     2.065091881912   121.94538245   179.63794780

 One Electron integrals                  ... done
 Pre-screening matrix                    ... done

Diagonalization of the overlap matrix:
Smallest eigenvalue                        ... 1.190e-03
Time for diagonalization                   ...    0.003 sec
Threshold for overlap eigenvalues          ... 1.000e-08
Number of eigenvalues below threshold      ... 0
Time for construction of square roots      ...    0.001 sec
Total time needed                          ...    0.004 sec

-------------------
DFT GRID GENERATION
-------------------

General Integration Accuracy     IntAcc      ...  4.340
Radial Grid Type                 RadialGrid  ... Gauss-Chebyshev
Angular Grid (max. acc.)         AngularGrid ... Lebedev-110
Angular grid pruning method      GridPruning ... 3 (G Style)
Weight generation scheme         WeightScheme... Becke
Basis function cutoff            BFCut       ...    1.0000e-11
Integration weight cutoff        WCut        ...    1.0000e-14
Grids for H and He will be reduced by one unit

# of grid points (after initial pruning)     ...  16288 (   0.0 sec)
# of grid points (after weights+screening)   ...  15403 (   0.0 sec)
nearest neighbour list constructed           ...    0.0 sec
Grid point re-assignment to atoms done       ...    0.0 sec
Grid point division into batches done        ...    0.0 sec
Reduced shell lists constructed in    0.1 sec

Total number of grid points                  ...    15403
Total number of batches                      ...      248
Average number of points per batch           ...       62
Average number of grid points per atom       ...     1100
Average number of shells per batch           ...    42.60 (71.00%)
Average number of basis functions per batch  ...    85.49 (68.95%)
Average number of large shells per batch     ...    34.17 (80.21%)
Average number of large basis fcns per batch ...    68.45 (80.07%)
Maximum spatial batch extension              ...  25.60, 18.95, 19.29 au
Average spatial batch extension              ...   4.70,  4.12,  4.46 au

Time for grid setup =    0.106 sec

--------------------
COSX GRID GENERATION
--------------------

General Integration Accuracy     IntAcc      ...  3.340
Radial Grid Type                 RadialGrid  ... Gauss-Chebyshev
Angular Grid (max. acc.)         AngularGrid ... Lebedev-50
Angular grid pruning method      GridPruning ... 3 (G Style)
Weight generation scheme         WeightScheme... Becke
Basis function cutoff            BFCut       ...    1.0000e-11
Integration weight cutoff        WCut        ...    1.0000e-14
Grids for H and He will be reduced by one unit

# of grid points (after initial pruning)     ...   6040 (   0.0 sec)
# of grid points (after weights+screening)   ...   5720 (   0.0 sec)
nearest neighbour list constructed           ...    0.0 sec
Grid point re-assignment to atoms done       ...    0.0 sec
Grid point division into batches done        ...    0.0 sec
Reduced shell lists constructed in    0.0 sec

Total number of grid points                  ...     5720
Total number of batches                      ...       96
Average number of points per batch           ...       59
Average number of grid points per atom       ...      409
Average number of shells per batch           ...    45.44 (75.74%)
Average number of basis functions per batch  ...    92.14 (74.31%)
Average number of large shells per batch     ...    36.97 (81.35%)
Average number of large basis fcns per batch ...    75.18 (81.58%)
Maximum spatial batch extension              ...  25.32, 15.84, 17.53 au
Average spatial batch extension              ...   6.60,  5.51,  5.94 au

Overlap Fitting                  UseSFitting ... on
Constructing numerical overlap ... done (      0.0 sec)
Inverting numerical overlap    ... done (      0.0 sec)
Obtaining analytic overlap     ... done (      0.0 sec)
Final contraction and storage  ... done (      0.0 sec)


General Integration Accuracy     IntAcc      ...  3.670
Radial Grid Type                 RadialGrid  ... Gauss-Chebyshev
Angular Grid (max. acc.)         AngularGrid ... Lebedev-50
Angular grid pruning method      GridPruning ... 3 (G Style)
Weight generation scheme         WeightScheme... Becke
Basis function cutoff            BFCut       ...    1.0000e-11
Integration weight cutoff        WCut        ...    1.0000e-14
Grids for H and He will be reduced by one unit

# of grid points (after initial pruning)     ...   7724 (   0.0 sec)
# of grid points (after weights+screening)   ...   7312 (   0.0 sec)
nearest neighbour list constructed           ...    0.0 sec
Grid point re-assignment to atoms done       ...    0.0 sec
Grid point division into batches done        ...    0.0 sec
Reduced shell lists constructed in    0.0 sec

Total number of grid points                  ...     7312
Total number of batches                      ...      120
Average number of points per batch           ...       60
Average number of grid points per atom       ...      522
Average number of shells per batch           ...    44.69 (74.49%)
Average number of basis functions per batch  ...    90.40 (72.90%)
Average number of large shells per batch     ...    35.99 (80.53%)
Average number of large basis fcns per batch ...    72.65 (80.37%)
Maximum spatial batch extension              ...  27.71, 16.98, 19.47 au
Average spatial batch extension              ...   6.16,  5.14,  5.70 au

Overlap Fitting                  UseSFitting ... on
Constructing numerical overlap ... done (      0.0 sec)
Inverting numerical overlap    ... done (      0.0 sec)
Obtaining analytic overlap     ... done (      0.0 sec)
Final contraction and storage  ... done (      0.0 sec)


General Integration Accuracy     IntAcc      ...  4.010
Radial Grid Type                 RadialGrid  ... Gauss-Chebyshev
Angular Grid (max. acc.)         AngularGrid ... Lebedev-110
Angular grid pruning method      GridPruning ... 3 (G Style)
Weight generation scheme         WeightScheme... Becke
Basis function cutoff            BFCut       ...    1.0000e-11
Integration weight cutoff        WCut        ...    1.0000e-14
Grids for H and He will be reduced by one unit

# of grid points (after initial pruning)     ...  14152 (   0.0 sec)
# of grid points (after weights+screening)   ...  13400 (   0.0 sec)
nearest neighbour list constructed           ...    0.0 sec
Grid point re-assignment to atoms done       ...    0.0 sec
Grid point division into batches done        ...    0.0 sec
Reduced shell lists constructed in    0.1 sec

Total number of grid points                  ...    13400
Total number of batches                      ...      218
Average number of points per batch           ...       61
Average number of grid points per atom       ...      957
Average number of shells per batch           ...    42.98 (71.64%)
Average number of basis functions per batch  ...    86.51 (69.76%)
Average number of large shells per batch     ...    34.42 (80.09%)
Average number of large basis fcns per batch ...    69.05 (79.82%)
Maximum spatial batch extension              ...  24.23, 16.77, 18.03 au
Average spatial batch extension              ...   4.85,  4.17,  4.52 au

Overlap Fitting                  UseSFitting ... on
Constructing numerical overlap ... done (      0.0 sec)
Inverting numerical overlap    ... done (      0.0 sec)
Obtaining analytic overlap     ... done (      0.0 sec)
Final contraction and storage  ... done (      0.0 sec)

Time for X-Grid setup             =    0.336 sec
--------------
SCF ITERATIONS
--------------
ITER       Energy         Delta-E        Max-DP      RMS-DP      [F,P]     Damp
               ***  Starting incremental Fock matrix formation  ***
  0   -233.2314598282   0.000000000000 0.00722586  0.00022581  0.0049764 0.7000
                      *** Initiating the SOSCF procedure ***
                      *** Re-Reading the Fockian *** 
                      *** Removing any level shift *** 
ITER      Energy       Delta-E        Grad      Rot      Max-DP    RMS-DP
  1   -233.23161462  -0.0001547886  0.000641  0.000641  0.019863  0.000619
               *** Restarting incremental Fock matrix formation ***
  2   -233.23194937  -0.0003347496  0.000992  0.001306  0.003127  0.000113
  3   -233.23195270  -0.0000033328  0.000862  0.000610  0.001381  0.000048
  4   -233.23196654  -0.0000138429  0.000159  0.000593  0.000383  0.000019
  5   -233.23196608   0.0000004634  0.000278  0.000383  0.000226  0.000013
  6   -233.23196694  -0.0000008622  0.000012  0.000031  0.000040  0.000002
  7   -233.23196693   0.0000000145  0.000015  0.000018  0.000023  0.000001
                 **** Energy Check signals convergence ****
              ***Rediagonalizing the Fockian in SOSCF/NRSCF***

               *****************************************************
               *                     SUCCESS                       *
               *           SCF CONVERGED AFTER   8 CYCLES          *
               *****************************************************

Setting up the final grid:

General Integration Accuracy     IntAcc      ...  4.670
Radial Grid Type                 RadialGrid  ... Gauss-Chebyshev
Angular Grid (max. acc.)         AngularGrid ... Lebedev-302
Angular grid pruning method      GridPruning ... 3 (G Style)
Weight generation scheme         WeightScheme... Becke
Basis function cutoff            BFCut       ...    1.0000e-11
Integration weight cutoff        WCut        ...    1.0000e-14
Grids for H and He will be reduced by one unit

# of grid points (after initial pruning)     ...  64424 (   0.0 sec)
# of grid points (after weights+screening)   ...  60391 (   0.1 sec)
nearest neighbour list constructed           ...    0.0 sec
[...]
   3   2.0000     -10.195895      -277.4444 
   4   2.0000     -10.190340      -277.2933 
   5   2.0000     -10.190339      -277.2932 
   6   2.0000      -0.813824       -22.1453 
   7   2.0000      -0.772872       -21.0309 
   8   2.0000      -0.714744       -19.4492 
   9   2.0000      -0.617267       -16.7967 
  10   2.0000      -0.555431       -15.1141 
  11   2.0000      -0.549624       -14.9560 
  12   2.0000      -0.486721       -13.2444 
  13   2.0000      -0.462355       -12.5813 
  14   2.0000      -0.431951       -11.7540 
  15   2.0000      -0.407926       -11.1002 
  16   2.0000      -0.385424       -10.4879 
  17   2.0000      -0.363362        -9.8876 
  18   2.0000      -0.348323        -9.4783 
  19   2.0000      -0.346345        -9.4245 
  20   2.0000      -0.294844        -8.0231 
  21   2.0000      -0.218528        -5.9465 
  22   0.0000      -0.056146        -1.5278 
  23   0.0000       0.034170         0.9298 
  24   0.0000       0.064278         1.7491 
  25   0.0000       0.083996         2.2857 
  26   0.0000       0.085806         2.3349 
  27   0.0000       0.089382         2.4322 
  28   0.0000       0.105208         2.8629 
  29   0.0000       0.123069         3.3489 
  30   0.0000       0.147892         4.0243 
  31   0.0000       0.156388         4.2555 
  32   0.0000       0.171474         4.6660 
  33   0.0000       0.282020         7.6742 
  34   0.0000       0.296367         8.0645 
  35   0.0000       0.313519         8.5313 
  36   0.0000       0.333108         9.0643 
  37   0.0000       0.366231         9.9657 
  38   0.0000       0.382421        10.4062 
  39   0.0000       0.403293        10.9742 
  40   0.0000       0.411488        11.1972 
  41   0.0000       0.414353        11.2751 
  42   0.0000       0.445008        12.1093 
  43   0.0000       0.464298        12.6342 
  44   0.0000       0.492658        13.4059 
  45   0.0000       0.510944        13.9035 
  46   0.0000       0.523651        14.2493 
  47   0.0000       0.535537        14.5727 
  48   0.0000       0.540560        14.7094 
  49   0.0000       0.544555        14.8181 
  50   0.0000       0.630043        17.1443 
  51   0.0000       0.639555        17.4032 
  52   0.0000       0.640508        17.4291 
  53   0.0000       0.646449        17.5908 
  54   0.0000       0.648518        17.6471 
  55   0.0000       0.661140        17.9905 
  56   0.0000       0.673274        18.3207 
  57   0.0000       0.677306        18.4304 
  58   0.0000       0.697416        18.9777 
  59   0.0000       0.700441        19.0600 
  60   0.0000       0.724429        19.7127 
  61   0.0000       0.794956        21.6319 
  62   0.0000       0.803457        21.8632 
  63   0.0000       0.846754        23.0413 
  64   0.0000       0.882301        24.0086 
  65   0.0000       1.014175        27.5971 
  66   0.0000       1.104234        30.0477 
  67   0.0000       1.120663        30.4948 
  68   0.0000       1.160003        31.5653 
  69   0.0000       1.167631        31.7729 
  70   0.0000       1.183353        32.2007 
  71   0.0000       1.190278        32.3891 
  72   0.0000       1.225426        33.3455 
  73   0.0000       1.243983        33.8505 
  74   0.0000       1.262564        34.3561 
  75   0.0000       1.278310        34.7846 
  76   0.0000       1.301698        35.4210 
  77   0.0000       1.590236        43.2725 
  78   0.0000       1.599781        43.5322 
  79   0.0000       1.628051        44.3015 
  80   0.0000       1.633506        44.4499 
  81   0.0000       1.635323        44.4994 
  82   0.0000       1.670654        45.4608 
  83   0.0000       1.686188        45.8835 
  84   0.0000       1.704511        46.3821 
  85   0.0000       1.739708        47.3399 
  86   0.0000       1.764279        48.0085 
  87   0.0000       1.781130        48.4670 
  88   0.0000       1.796198        48.8770 
  89   0.0000       1.814354        49.3711 
  90   0.0000       1.868580        50.8467 
  91   0.0000       1.869733        50.8780 
  92   0.0000       1.929714        52.5102 
  93   0.0000       1.940308        52.7985 
  94   0.0000       1.964211        53.4489 
  95   0.0000       2.033097        55.3234 
  96   0.0000       2.049684        55.7747 
  97   0.0000       2.052568        55.8532 
  98   0.0000       2.061894        56.1070 
  99   0.0000       2.084439        56.7205 
 100   0.0000       2.164653        58.9032 
 101   0.0000       2.194902        59.7263 
 102   0.0000       2.214352        60.2556 
 103   0.0000       2.262001        61.5522 
 104   0.0000       2.306099        62.7521 
 105   0.0000       2.338828        63.6427 
 106   0.0000       2.385093        64.9017 
 107   0.0000       2.412721        65.6535 
 108   0.0000       2.474536        67.3355 
 109   0.0000       2.524831        68.7041 
 110   0.0000       2.551722        69.4359 
 111   0.0000       2.559774        69.6550 
 112   0.0000       2.579152        70.1823 
 113   0.0000       2.720581        74.0308 
 114   0.0000       2.734521        74.4101 
 115   0.0000       2.742768        74.6345 
 116   0.0000       2.803183        76.2785 
 117   0.0000       2.803587        76.2895 
 118   0.0000       2.919565        79.4454 
 119   0.0000       2.927428        79.6594 
 120   0.0000       3.092855        84.1609 
 121   0.0000       3.249506        88.4236 
 122   0.0000       3.350097        91.1608 
 123   0.0000       3.390031        92.2474 

                    ********************************
                    * MULLIKEN POPULATION ANALYSIS *
                    ********************************

-----------------------
MULLIKEN ATOMIC CHARGES
-----------------------
   0 C :   -0.027895
   1 C :    0.004844
   2 C :    0.009932
   3 C :    0.009949
   4 C :    0.004829
   5 C :   -0.027879
   6 H :    0.024419
   7 H :    0.016437
   8 H :   -0.011048
   9 H :   -0.016694
  10 H :   -0.016694
  11 H :   -0.011049
  12 H :    0.016432
  13 H :    0.024417
Sum of atomic charges:   -0.0000000

--------------------------------
MULLIKEN REDUCED ORBITAL CHARGES
--------------------------------
  0 C s       :     3.113014  s :     3.113014
      pz      :     0.979140  p :     2.888798
      px      :     0.984451
      py      :     0.925207
      dz2     :     0.005712  d :     0.026083
      dxz     :     0.004313
      dyz     :     0.005623
      dx2y2   :     0.004542
      dxy     :     0.005894
  1 C s       :     3.142239  s :     3.142239
      pz      :     0.950555  p :     2.816748
      px      :     0.945807
      py      :     0.920387
      dz2     :     0.009337  d :     0.036168
      dxz     :     0.005993
      dyz     :     0.007155
      dx2y2   :     0.006154
      dxy     :     0.007529
  2 C s       :     3.167057  s :     3.167057
      pz      :     0.936283  p :     2.788130
      px      :     0.944820
      py      :     0.907027
      dz2     :     0.008801  d :     0.034880
      dxz     :     0.005990
      dyz     :     0.006831
      dx2y2   :     0.006211
      dxy     :     0.007047
  3 C s       :     3.167039  s :     3.167039
      pz      :     0.936271  p :     2.788132
      px      :     0.944811
      py      :     0.907051
      dz2     :     0.008802  d :     0.034880
      dxz     :     0.005991
      dyz     :     0.006831
      dx2y2   :     0.006210
      dxy     :     0.007046
  4 C s       :     3.142247  s :     3.142247
      pz      :     0.950561  p :     2.816756
      px      :     0.945830
      py      :     0.920365
      dz2     :     0.009341  d :     0.036168
      dxz     :     0.005992
      dyz     :     0.007160
      dx2y2   :     0.006152
      dxy     :     0.007522
  5 C s       :     3.112989  s :     3.112989
      pz      :     0.979136  p :     2.888807
      px      :     0.984464
      py      :     0.925207
      dz2     :     0.005716  d :     0.026083
      dxz     :     0.004312
      dyz     :     0.005629
      dx2y2   :     0.004540
      dxy     :     0.005887
  6 H s       :     0.952107  s :     0.952107
      pz      :     0.009305  p :     0.023474
      px      :     0.005015
      py      :     0.009154
  7 H s       :     0.960156  s :     0.960156
      pz      :     0.004320  p :     0.023407
      px      :     0.007108
      py      :     0.011978
  8 H s       :     0.988398  s :     0.988398
      pz      :     0.003828  p :     0.022650
      px      :     0.006456
      py      :     0.012365
  9 H s       :     0.993931  s :     0.993931
      pz      :     0.003867  p :     0.022764
      px      :     0.006579
      py      :     0.012318
 10 H s       :     0.993930  s :     0.993930
      pz      :     0.003867  p :     0.022764
      px      :     0.006580
      py      :     0.012316
 11 H s       :     0.988399  s :     0.988399
      pz      :     0.003827  p :     0.022650
      px      :     0.006454
      py      :     0.012369
 12 H s       :     0.960162  s :     0.960162
      pz      :     0.004320  p :     0.023407
      px      :     0.007105
      py      :     0.011981
 13 H s       :     0.952109  s :     0.952109
      pz      :     0.009307  p :     0.023474
      px      :     0.005015
      py      :     0.009152


                     *******************************
                     * LOEWDIN POPULATION ANALYSIS *
                     *******************************

----------------------
LOEWDIN ATOMIC CHARGES
----------------------
   0 C :   -0.048817
   1 C :   -0.027976
   2 C :   -0.024818
   3 C :   -0.024817
   4 C :   -0.027977
   5 C :   -0.048816
   6 H :    0.025555
   7 H :    0.022371
   8 H :    0.027696
   9 H :    0.025989
  10 H :    0.025989
  11 H :    0.027696
  12 H :    0.022371
  13 H :    0.025555

-------------------------------
LOEWDIN REDUCED ORBITAL CHARGES
-------------------------------
  0 C s       :     2.888984  s :     2.888984
      pz      :     1.029778  p :     3.092457
      px      :     1.028451
      py      :     1.034228
      dz2     :     0.013202  d :     0.067376
      dxz     :     0.012564
      dyz     :     0.014689
      dx2y2   :     0.011153
      dxy     :     0.015767
  1 C s       :     2.871097  s :     2.871097
      pz      :     1.018661  p :     3.064132
      px      :     1.018765
      py      :     1.026706
      dz2     :     0.021904  d :     0.092747
      dxz     :     0.016827
      dyz     :     0.018992
      dx2y2   :     0.015297
      dxy     :     0.019728
  2 C s       :     2.871203  s :     2.871203
      pz      :     1.016668  p :     3.063778
      px      :     1.017701
      py      :     1.029410
      dz2     :     0.020541  d :     0.089837
      dxz     :     0.016780
      dyz     :     0.018333
      dx2y2   :     0.015409
      dxy     :     0.018774
  3 C s       :     2.871202  s :     2.871202
      pz      :     1.016673  p :     3.063777
      px      :     1.017701
      py      :     1.029404
      dz2     :     0.020544  d :     0.089837
      dxz     :     0.016782
      dyz     :     0.018333
      dx2y2   :     0.015405
      dxy     :     0.018772
  4 C s       :     2.871097  s :     2.871097
      pz      :     1.018730  p :     3.064134
      px      :     1.018676
      py      :     1.026727
      dz2     :     0.021916  d :     0.092747
      dxz     :     0.016824
      dyz     :     0.019006
      dx2y2   :     0.015291
      dxy     :     0.019710
  5 C s       :     2.888983  s :     2.888983
      pz      :     1.029828  p :     3.092457
      px      :     1.028389
      py      :     1.034240
      dz2     :     0.013214  d :     0.067376
      dxz     :     0.012561
      dyz     :     0.014704
      dx2y2   :     0.011146
      dxy     :     0.015750
  6 H s       :     0.906534  s :     0.906534
      pz      :     0.026741  p :     0.067911
      px      :     0.014355
      py      :     0.026815
  7 H s       :     0.909930  s :     0.909930
      pz      :     0.012291  p :     0.067699
      px      :     0.020127
      py      :     0.035281
  8 H s       :     0.907434  s :     0.907434
      pz      :     0.011372  p :     0.064870
      px      :     0.018281
      py      :     0.035216
  9 H s       :     0.908052  s :     0.908052
      pz      :     0.011620  p :     0.065959
      px      :     0.018670
      py      :     0.035669
 10 H s       :     0.908051  s :     0.908051
      pz      :     0.011620  p :     0.065960
      px      :     0.018672
      py      :     0.035667
 11 H s       :     0.907434  s :     0.907434
      pz      :     0.011371  p :     0.064871
      px      :     0.018274
      py      :     0.035225
 12 H s       :     0.909930  s :     0.909930
      pz      :     0.012289  p :     0.067699
      px      :     0.020121
      py      :     0.035289
 13 H s       :     0.906534  s :     0.906534
      pz      :     0.026747  p :     0.067911
      px      :     0.014355
      py      :     0.026809


                      *****************************
                      * MAYER POPULATION ANALYSIS *
                      *****************************

  NA   - Mulliken gross atomic population
  ZA   - Total nuclear charge
  QA   - Mulliken gross atomic charge
  VA   - Mayer's total valence
  BVA  - Mayer's bonded valence
  FA   - Mayer's free valence

  ATOM       NA         ZA         QA         VA         BVA        FA
  0 C      6.0279     6.0000    -0.0279     3.9177     3.9177    -0.0000
  1 C      5.9952     6.0000     0.0048     4.0155     4.0155     0.0000
  2 C      5.9901     6.0000     0.0099     3.8754     3.8754    -0.0000
  3 C      5.9901     6.0000     0.0099     3.8754     3.8754     0.0000
  4 C      5.9952     6.0000     0.0048     4.0155     4.0155     0.0000
  5 C      6.0279     6.0000    -0.0279     3.9177     3.9177     0.0000
  6 H      0.9756     1.0000     0.0244     0.9743     0.9743     0.0000
  7 H      0.9836     1.0000     0.0164     0.9824     0.9824     0.0000
  8 H      1.0110     1.0000    -0.0110     0.9844     0.9844     0.0000
  9 H      1.0167     1.0000    -0.0167     0.9931     0.9931    -0.0000
 10 H      1.0167     1.0000    -0.0167     0.9931     0.9931    -0.0000
 11 H      1.0110     1.0000    -0.0110     0.9844     0.9844     0.0000
 12 H      0.9836     1.0000     0.0164     0.9824     0.9824     0.0000
 13 H      0.9756     1.0000     0.0244     0.9743     0.9743    -0.0000

  Mayer bond orders larger than 0.100000
B(  0-C ,  1-C ) :   1.8791 B(  0-C ,  3-C ) :   0.1112 B(  0-C ,  6-H ) :   0.9478 
B(  0-C ,  7-H ) :   0.9537 B(  1-C ,  2-C ) :   1.1289 B(  1-C ,  8-H ) :   0.9643 
B(  2-C ,  3-C ) :   1.6887 B(  2-C ,  5-C ) :   0.1112 B(  2-C ,  9-H ) :   0.9699 
B(  3-C ,  4-C ) :   1.1289 B(  3-C , 10-H ) :   0.9699 B(  4-C ,  5-C ) :   1.8791 
B(  4-C , 11-H ) :   0.9643 B(  5-C , 12-H ) :   0.9537 B(  5-C , 13-H ) :   0.9478 


-------
TIMINGS
-------

Total SCF time: 0 days 0 hours 0 min 13 sec 

Total time                  ....      13.186 sec
Sum of individual times     ....      13.079 sec  ( 99.2%)

Fock matrix formation       ....      12.046 sec  ( 91.4%)
  Split-RI-J                ....       1.335 sec  ( 11.1% of F)
  Chain of spheres X        ....       9.250 sec  ( 76.8% of F)
  COS-X 1 center corr.      ....       0.000 sec  (  0.0% of F)
  XC integration            ....       1.424 sec  ( 11.8% of F)
    Basis function eval.    ....       0.614 sec  ( 43.1% of XC)
    Density eval.           ....       0.256 sec  ( 18.0% of XC)
    XC-Functional eval.     ....       0.147 sec  ( 10.3% of XC)
    XC-Potential eval.      ....       0.342 sec  ( 24.0% of XC)
Diagonalization             ....       0.002 sec  (  0.0%)
Density matrix formation    ....       0.001 sec  (  0.0%)
Population analysis         ....       0.002 sec  (  0.0%)
Initial guess               ....       0.002 sec  (  0.0%)
Orbital Transformation      ....       0.000 sec  (  0.0%)
Orbital Orthonormalization  ....       0.001 sec  (  0.0%)
DIIS solution               ....       0.000 sec  (  0.0%)
SOSCF solution              ....       0.007 sec  (  0.1%)
Grid generation             ....       1.018 sec  (  7.7%)


-------------------------------------------------------------------------------
                          DFT DISPERSION CORRECTION                            
                                                                               
                              DFTD3 V3.1  Rev 1                                
                          USING Becke-Johnson damping                          
-------------------------------------------------------------------------------
Gaussians B3LYP functional is recognized, using regular B3LYP params
Active option DFTDOPT                   ...         4   

molecular C6(AA) [au] = 1969.660502 


            DFT-D V3
 parameters
 s6 scaling factor         :     1.0000 
 a1 scaling factor         :     0.3981 
 s8 scaling factor         :     1.9889 
 a2 scaling factor         :     4.4211 
 ad hoc parameters k1-k3   :    16.0000     1.3333    -4.0000 

 Edisp/kcal,au: -11.207848120757  -0.017860840973 
 E6   /kcal   :  -5.351461001 
 E8   /kcal   :  -5.856387120 
 % E8         :  52.252556034 

-------------------------   ----------------
Dispersion correction           -0.017860841
-------------------------   ----------------


-------------------------   --------------------
FINAL SINGLE POINT ENERGY      -233.251177682944
-------------------------   --------------------

                                *** OPTIMIZATION RUN DONE ***

                            ***************************************
                            *     ORCA property calculations      *
                            ***************************************

                                    ---------------------
                                    Active property flags
                                    ---------------------
   (+) Dipole Moment


------------------------------------------------------------------------------
                       ORCA ELECTRIC PROPERTIES CALCULATION
------------------------------------------------------------------------------

Dipole Moment Calculation                       ... on
Quadrupole Moment Calculation                   ... off
Polarizability Calculation                      ... off
GBWName                                         ... 622.gbw
Electron density file                           ... 622.scfp
The origin for moment calculation is the CENTER OF MASS  = ( 7.441715, -1.268988 -2.222427)

-------------
DIPOLE MOMENT
-------------
                                X             Y             Z
Electronic contribution:      0.00045      -0.00024       0.00039
Nuclear contribution   :     -0.00046       0.00025      -0.00041
                        -----------------------------------------
Total Dipole Moment    :     -0.00001       0.00001      -0.00002
                        -----------------------------------------
Magnitude (a.u.)       :      0.00003
Magnitude (Debye)      :      0.00007



--------------------
Rotational spectrum 
--------------------
 
Rotational constants in cm-1:     0.886689     0.044126     0.042034 
Rotational constants in MHz : 26582.268127  1322.861609  1260.151171 

 Dipole components along the rotational axes: 
x,y,z [a.u.] :    -0.000005    -0.000005    -0.000028 
x,y,z [Debye]:    -0.000012    -0.000012    -0.000072 

 

Timings for individual modules:

Sum of individual times         ...      120.514 sec (=   2.009 min)
GTO integral calculation        ...        1.554 sec (=   0.026 min)   1.3 %
SCF iterations                  ...       92.468 sec (=   1.541 min)  76.7 %
SCF Gradient evaluation         ...       26.222 sec (=   0.437 min)  21.8 %
Geometry relaxation             ...        0.271 sec (=   0.005 min)   0.2 %
                             ****ORCA TERMINATED NORMALLY****
TOTAL RUN TIME: 0 days 0 hours 2 minutes 1 seconds 280 msec
