
                                 *****************
                                 * O   R   C   A *
                                 *****************

           --- An Ab Initio, DFT and Semiempirical electronic structure package ---

                  #######################################################
                  #                        -***-                        #
                  #          Department of theory and spectroscopy      #
                  #               Directorship: Frank Neese             #
                  #        Max Planck Institute fuer Kohlenforschung    #
                  #                Kaiser Wilhelm Platz 1               #
                  #                 D-45470 Muelheim/Ruhr               #
                  #                      Germany                        #
                  #                                                     #
                  #                  All rights reserved                #
                  #                        -***-                        #
                  #######################################################


                         Program Version 4.2.0 -  RELEASE  -


 With contributions from (in alphabetic order):
   Daniel Aravena         : Magnetic Suceptibility
   Michael Atanasov       : Ab Initio Ligand Field Theory (pilot matlab implementation)
   Alexander A. Auer      : GIAO ZORA, VPT2
   Ute Becker             : Parallelization
   Giovanni Bistoni       : ED, misc. LED, open-shell LED, HFLED
   Martin Brehm           : Molecular dynamics
   Dmytro Bykov           : SCF Hessian
   Vijay G. Chilkuri      : MRCI spin determinant printing, contributions to CSF-ICE
   Dipayan Datta          : RHF DLPNO-CCSD density
   Achintya Kumar Dutta   : EOM-CC, STEOM-CC
   Dmitry Ganyushin       : Spin-Orbit,Spin-Spin,Magnetic field MRCI
   Miquel Garcia          : C-PCM Hessian, Gaussian charge scheme
   Yang Guo               : DLPNO-NEVPT2, CIM, IAO-localization
   Andreas Hansen         : Spin unrestricted coupled pair/coupled cluster methods
   Benjamin Helmich-Paris : CASSCF linear response (MC-RPA)
   Lee Huntington         : MR-EOM, pCC
   Robert Izsak           : Overlap fitted RIJCOSX, COSX-SCS-MP3, EOM
   Christian Kollmar      : KDIIS, OOCD, Brueckner-CCSD(T), CCSD density
   Simone Kossmann        : Meta GGA functionals, TD-DFT gradient, OOMP2, MP2 Hessian
   Martin Krupicka        : AUTO-CI
   Lucas Lang             : DCDCAS
   Dagmar Lenk            : GEPOL surface, SMD
   Dimitrios Liakos       : Extrapolation schemes; Compound Job, initial MDCI parallelization
   Dimitrios Manganas     : Further ROCIS development; embedding schemes
   Dimitrios Pantazis     : SARC Basis sets
   Taras Petrenko         : DFT Hessian,TD-DFT gradient, ASA, ECA, R-Raman, ABS, FL, XAS/XES, NRVS
   Peter Pinski           : DLPNO-MP2, DLPNO-MP2 Gradient
   Christoph Reimann      : Effective Core Potentials
   Marius Retegan         : Local ZFS, SOC
   Christoph Riplinger    : Optimizer, TS searches, QM/MM, DLPNO-CCSD(T), (RO)-DLPNO pert. Triples
   Tobias Risthaus        : Range-separated hybrids, TD-DFT gradient, RPA, STAB
   Michael Roemelt        : Original ROCIS implementation
   Masaaki Saitow         : Open-shell DLPNO-CCSD energy and density
   Barbara Sandhoefer     : DKH picture change effects
   Avijit Sen             : IP-ROCIS
   Kantharuban Sivalingam : CASSCF convergence, NEVPT2, FIC-MRCI
   Bernardo de Souza      : ESD, SOC TD-DFT
   Georgi Stoychev        : AutoAux, RI-MP2 NMR
   Willem Van den Heuvel  : Paramagnetic NMR
   Boris Wezisla          : Elementary symmetry handling
   Frank Wennmohs         : Technical directorship


 We gratefully acknowledge several colleagues who have allowed us to
 interface, adapt or use parts of their codes:
   Stefan Grimme, W. Hujo, H. Kruse,             : VdW corrections, initial TS optimization,
                  C. Bannwarth                     DFT functionals, gCP, sTDA/sTD-DF
   Ed Valeev, F. Pavosevic, A. Kumar             : LibInt (2-el integral package), F12 methods
   Garnet Chan, S. Sharma, J. Yang, R. Olivares  : DMRG
   Ulf Ekstrom                                   : XCFun DFT Library
   Mihaly Kallay                                 : mrcc  (arbitrary order and MRCC methods)
   Andreas Klamt, Michael Diedenhofen            : otool_cosmo (COSMO solvation model)
   Jiri Pittner, Ondrej Demel                    : Mk-CCSD
   Frank Weinhold                                : gennbo (NPA and NBO analysis)
   Christopher J. Cramer and Donald G. Truhlar   : smd solvation model
   Lars Goerigk                                  : TD-DFT with DH, B97 family of functionals
   V. Asgeirsson, H. Jonsson                     : NEB implementation
   FAccTs GmbH                                   : IRC, NEB, NEB-TS, Multilevel, MM, QM/MM, CI optimization
   S Lehtola, MJT Oliveira, MAL Marques          : LibXC Library


 Your calculation uses the libint2 library for the computation of 2-el integrals
 For citations please refer to: http://libint.valeyev.net

 Your ORCA version has been built with support for libXC version: 4.2.3
 For citations please refer to: https://tddft.org/programs/libxc/

 This ORCA versions uses:
   CBLAS   interface :  Fast vector & matrix operations
   LAPACKE interface :  Fast linear algebra routines
   SCALAPACK package :  Parallel linear algebra routines


Your calculation utilizes the atom-pairwise dispersion correction
with the Becke-Johnson damping scheme (D3BJ)
Cite in your paper:
S.Grimme, S.Ehrlich, L.Goerigk, J Comput Chem, (2011), 32, 1456–1465 
S.Grimme, J.Antony, S.Ehrlich and H.Krieg, J.Chem.Phys., 132, (2010), 154104 
   

----- Orbital basis set information -----
Your calculation utilizes the basis: def2-SVP
   F. Weigend and R. Ahlrichs, Phys. Chem. Chem. Phys. 7, 3297 (2005).

----- AuxJ basis set information -----
Your calculation utilizes the auxiliary basis: def2/J
   F. Weigend, Phys. Chem. Chem. Phys. 8, 1057 (2006).

================================================================================
                                        WARNINGS
                       Please study these warnings very carefully!
================================================================================


WARNING: Geometry Optimization
  ===> : Switching off AutoStart
         For restart on a previous wavefunction, please use MOREAD

INFO   : the flag for use of LIBINT has been found!

================================================================================
                                       INPUT FILE
================================================================================
NAME = 741.inp
|  1> # ORCA input file
|  2> # SCF done        -29.202305645010          0.000699157814
|  3> ! B3LYP/G D3BJ Opt RIJCOSX def2-SVP def2/J
|  4> * xyz 0 1
|  5>    C        1.04276         1.27880         0.06548
|  6>    C       -0.28218         0.76411         0.06879
|  7>    C       -1.49896         1.40145         0.05099
|  8>    S       -2.79021         0.28415         0.07524
|  9>    C       -1.73096        -1.05807         0.10966
| 10>    C       -0.41464        -0.66826         0.10187
| 11>    C        0.80882        -1.42157         0.12455
| 12>    N        1.96674        -0.81361         0.11731
| 13>    N        2.08209         0.50455         0.09103
| 14>    C        0.79443        -2.87616         0.15569
| 15>    C        1.89793        -3.60802         0.26446
| 16>    H        1.23084         2.34280         0.04305
| 17>    H       -1.69578         2.45421         0.02690
| 18>    H       -2.14207        -2.04688         0.13425
| 19>    H       -0.17912        -3.34167         0.08759
| 20>    H        2.85958        -3.12974         0.33473
| 21>    H        1.86833        -4.68375         0.28401
| 22> *
| 23> 
| 24>                          ****END OF INPUT****
================================================================================

                       *****************************
                       * Geometry Optimization Run *
                       *****************************

Geometry optimization settings:
Update method            Update   .... BFGS
Choice of coordinates    CoordSys .... Z-matrix Internals
Initial Hessian          InHess   .... Almoef's Model

Convergence Tolerances:
Energy Change            TolE     ....  5.0000e-06 Eh
Max. Gradient            TolMAXG  ....  3.0000e-04 Eh/bohr
RMS Gradient             TolRMSG  ....  1.0000e-04 Eh/bohr
Max. Displacement        TolMAXD  ....  4.0000e-03 bohr
RMS Displacement         TolRMSD  ....  2.0000e-03 bohr
Strict Convergence                ....  False
------------------------------------------------------------------------------
                        ORCA OPTIMIZATION COORDINATE SETUP
------------------------------------------------------------------------------

The optimization will be done in new redundant internal coordinates
Making redundant internal coordinates   ...  (new redundants) done
Evaluating the initial hessian          ...  (Almloef) done
Evaluating the coordinates              ...  done
Calculating the B-matrix                .... done
Calculating the G-matrix                .... done
Diagonalizing the G-matrix              .... done
Small eigenvalue found = 2.413e-02
The first mode is                       ....   37
The number of degrees of freedom        ....   45

    -----------------------------------------------------------------
                    Redundant Internal Coordinates


    -----------------------------------------------------------------
         Definition                    Initial Value    Approx d2E/dq
    -----------------------------------------------------------------
      1. B(C   1,C   0)                  1.4214         0.556723   
      2. B(C   2,C   1)                  1.3737         0.663334   
      3. B(S   3,C   2)                  1.7077         0.524349   
      4. B(C   4,S   3)                  1.7102         0.519593   
      5. B(C   5,C   4)                  1.3728         0.665432   
      6. B(C   5,C   1)                  1.4389         0.522135   
      7. B(C   6,C   5)                  1.4370         0.525802   
      8. B(N   7,C   6)                  1.3078         0.756756   
      9. B(N   8,N   7)                  1.3235         0.639993   
     10. B(N   8,C   0)                  1.2963         0.789608   
     11. B(C   9,C   6)                  1.4550         0.492089   
     12. B(C  10,C   9)                  1.3286         0.782903   
     13. B(H  11,C   0)                  1.0807         0.372577   
     14. B(H  12,C   2)                  1.0713         0.385748   
     15. B(H  13,C   4)                  1.0711         0.385920   
     16. B(H  14,C   9)                  1.0813         0.371841   
     17. B(H  15,C  10)                  1.0763         0.378662   
     18. B(H  16,C  10)                  1.0763         0.378667   
     19. A(C   1,C   0,H  11)          121.2494         0.348550   
     20. A(N   8,C   0,H  11)          116.6743         0.367602   
     21. A(C   1,C   0,N   8)          122.0762         0.441778   
     22. A(C   2,C   1,C   5)          112.3720         0.426020   
     23. A(C   0,C   1,C   2)          131.1189         0.430949   
     24. A(C   0,C   1,C   5)          116.5086         0.412917   
     25. A(C   1,C   2,H  12)          128.2408         0.361181   
     26. A(S   3,C   2,H  12)          120.2890         0.365193   
     27. A(C   1,C   2,S   3)          111.4701         0.450026   
     28. A(C   2,S   3,C   4)           92.6051         0.454593   
     29. A(C   5,C   4,H  13)          129.0682         0.361403   
     30. A(S   3,C   4,H  13)          119.1600         0.364652   
     31. A(S   3,C   4,C   5)          111.7717         0.449540   
     32. A(C   1,C   5,C   4)          111.7810         0.426261   
     33. A(C   4,C   5,C   6)          131.8685         0.426796   
     34. A(C   1,C   5,C   6)          116.3502         0.408754   
     35. A(N   7,C   6,C   9)          118.2685         0.428777   
     36. A(C   5,C   6,C   9)          121.0651         0.404494   
     37. A(C   5,C   6,N   7)          120.6665         0.433911   
     38. A(C   6,N   7,N   8)          122.7023         0.443632   
     39. A(C   0,N   8,N   7)          121.6957         0.447059   
     40. A(C  10,C   9,H  14)          121.0534         0.369246   
     41. A(C   6,C   9,H  14)          115.9738         0.341287   
     42. A(C   6,C   9,C  10)          122.9726         0.434240   
     43. A(H  15,C  10,H  16)          117.8728         0.295485   
     44. A(C   9,C  10,H  16)          121.9513         0.370402   
     45. A(C   9,C  10,H  15)          120.1757         0.370401   
     46. D(C   2,C   1,C   0,H  11)     -0.2081         0.021221   
     47. D(C   5,C   1,C   0,N   8)     -0.0109         0.021221   
     48. D(C   5,C   1,C   0,H  11)   -179.9045         0.021221   
     49. D(C   2,C   1,C   0,N   8)    179.6855         0.021221   
     50. D(S   3,C   2,C   1,C   5)      0.0474         0.030727   
     51. D(S   3,C   2,C   1,C   0)   -179.6588         0.030727   
     52. D(H  12,C   2,C   1,C   0)      0.2302         0.030727   
     53. D(H  12,C   2,C   1,C   5)    179.9364         0.030727   
     54. D(C   4,S   3,C   2,H  12)   -179.8995         0.005595   
     55. D(C   4,S   3,C   2,C   1)     -0.0004         0.005595   
     56. D(H  13,C   4,S   3,C   2)    179.8992         0.005517   
     57. D(C   5,C   4,S   3,C   2)     -0.0487         0.005517   
     58. D(C   6,C   5,C   1,C   0)     -0.1512         0.018596   
     59. D(C   4,C   5,C   1,C   2)     -0.0844         0.018596   
     60. D(C   4,C   5,C   1,C   0)    179.6682         0.018596   
     61. D(C   6,C   5,C   4,H  13)     -0.0756         0.030936   
     62. D(C   6,C   5,C   4,S   3)    179.8658         0.030936   
     63. D(C   1,C   5,C   4,H  13)   -179.8583         0.030936   
     64. D(C   1,C   5,C   4,S   3)      0.0830         0.030936   
     65. D(C   6,C   5,C   1,C   2)   -179.9039         0.018596   
     66. D(C   9,C   6,C   5,C   4)      0.3604         0.018864   
     67. D(C   9,C   6,C   5,C   1)   -179.8647         0.018864   
     68. D(N   7,C   6,C   5,C   4)   -179.6578         0.018864   
     69. D(N   7,C   6,C   5,C   1)      0.1171         0.018864   
     70. D(N   8,N   7,C   6,C   9)   -179.9266         0.043580   
     71. D(N   8,N   7,C   6,C   5)      0.0911         0.043580   
     72. D(C   0,N   8,N   7,C   6)     -0.2712         0.031448   
     73. D(N   7,N   8,C   0,H  11)   -179.8763         0.047905   
     74. D(N   7,N   8,C   0,C   1)      0.2255         0.047905   
     75. D(C  10,C   9,C   6,N   7)      4.5032         0.016489   
     76. D(C  10,C   9,C   6,C   5)   -175.5146         0.016489   
     77. D(H  14,C   9,C   6,N   7)   -175.6819         0.016489   
     78. D(H  14,C   9,C   6,C   5)      4.3004         0.016489   
     79. D(H  16,C  10,C   9,H  14)      0.3123         0.044090   
     80. D(H  16,C  10,C   9,C   6)   -179.8819         0.044090   
     81. D(H  15,C  10,C   9,H  14)   -179.7874         0.044090   
     82. D(H  15,C  10,C   9,C   6)      0.0184         0.044090   
    -----------------------------------------------------------------

Number of atoms                         .... 17
Number of degrees of freedom            .... 82

         *************************************************************
         *                GEOMETRY OPTIMIZATION CYCLE   1            *
         *************************************************************
---------------------------------
CARTESIAN COORDINATES (ANGSTROEM)
---------------------------------
  C      1.042760    1.278800    0.065480
  C     -0.282180    0.764110    0.068790
  C     -1.498960    1.401450    0.050990
  S     -2.790210    0.284150    0.075240
  C     -1.730960   -1.058070    0.109660
  C     -0.414640   -0.668260    0.101870
  C      0.808820   -1.421570    0.124550
  N      1.966740   -0.813610    0.117310
  N      2.082090    0.504550    0.091030
  C      0.794430   -2.876160    0.155690
  C      1.897930   -3.608020    0.264460
  H      1.230840    2.342800    0.043050
  H     -1.695780    2.454210    0.026900
  H     -2.142070   -2.046880    0.134250
  H     -0.179120   -3.341670    0.087590
  H      2.859580   -3.129740    0.334730
  H      1.868330   -4.683750    0.284010

----------------------------
CARTESIAN COORDINATES (A.U.)
----------------------------
  NO LB      ZA    FRAG     MASS         X           Y           Z
   0 C     6.0000    0    12.011    1.970531    2.416582    0.123739
   1 C     6.0000    0    12.011   -0.533243    1.443959    0.129994
   2 C     6.0000    0    12.011   -2.832624    2.648357    0.096357
   3 S    16.0000    0    32.060   -5.272733    0.536966    0.142183
   4 C     6.0000    0    12.011   -3.271040   -1.999463    0.207227
   5 C     6.0000    0    12.011   -0.783556   -1.262828    0.192506
   6 C     6.0000    0    12.011    1.528448   -2.686378    0.235365
   7 N     7.0000    0    14.007    3.716600   -1.537500    0.221684
   8 N     7.0000    0    14.007    3.934580    0.953461    0.172022
   9 C     6.0000    0    12.011    1.501255   -5.435155    0.294211
  10 C     6.0000    0    12.011    3.586568   -6.818170    0.499757
  11 H     1.0000    0     1.008    2.325951    4.427250    0.081353
  12 H     1.0000    0     1.008   -3.204560    4.637785    0.050834
  13 H     1.0000    0     1.008   -4.047926   -3.868043    0.253696
  14 H     1.0000    0     1.008   -0.338488   -6.314841    0.165521
  15 H     1.0000    0     1.008    5.403823   -5.914351    0.632548
  16 H     1.0000    0     1.008    3.530632   -8.851005    0.536701

--------------------------------
INTERNAL COORDINATES (ANGSTROEM)
--------------------------------
 C      0   0   0     0.000000000000     0.00000000     0.00000000
 C      1   0   0     1.421401686998     0.00000000     0.00000000
 C      2   1   0     1.373707641385   131.11886831     0.00000000
 S      3   2   1     1.707710137875   111.47013910   180.34117415
 C      4   3   2     1.710189997427    92.60505740     0.00000000
 C      5   4   3     1.372847720106   111.77173089   359.95131955
 C      6   5   4     1.436956753037   131.86847500   179.86577726
 N      7   6   5     1.307840397602   120.66645636   180.34221066
 N      1   2   3     1.296272623293   122.07621253   179.68548710
 C      7   6   5     1.454994446656   121.06507438     0.36039877
 C     10   7   6     1.328594077399   122.97257559   184.48541981
 H      1   2   3     1.080728083886   121.24939973   359.79192851
 H      3   2   1     1.071271234609   128.24080388     0.23021658
 H      5   4   3     1.071149530318   119.16000625   179.89917195
 H     10   7   6     1.081266282005   115.97380603     4.30036671
 H     11  10   7     1.076317961292   120.17574382     0.00000000
 H     11  10   7     1.076314728785   121.95134012   180.11814893

---------------------------
INTERNAL COORDINATES (A.U.)
---------------------------
 C      0   0   0     0.000000000000     0.00000000     0.00000000
 C      1   0   0     2.686059914719     0.00000000     0.00000000
 C      2   1   0     2.595931230293   131.11886831     0.00000000
 S      3   2   1     3.227104476704   111.47013910   180.34117415
 C      4   3   2     3.231790732109    92.60505740     0.00000000
 C      5   4   3     2.594306214578   111.77173089   359.95131955
 C      6   5   4     2.715454729530   131.86847500   179.86577726
 N      7   6   5     2.471460178347   120.66645636   180.34221066
 N      1   2   3     2.449600252924   122.07621253   179.68548710
 C      7   6   5     2.749541030556   121.06507438     0.36039877
 C     10   7   6     2.510678949434   122.97257559   184.48541981
 H      1   2   3     2.042280103782   121.24939973   359.79192851
 H      3   2   1     2.024409248558   128.24080388     0.23021658
 H      5   4   3     2.024179260779   119.16000625   179.89917195
 H     10   7   6     2.043297150832   115.97380603     4.30036671
 H     11  10   7     2.033946179863   120.17574382     0.00000000
 H     11  10   7     2.033940071310   121.95134012   180.11814893

---------------------
BASIS SET INFORMATION
---------------------
There are 4 groups of distinct atoms

 Group   1 Type C   : 7s4p1d contracted to 3s2p1d pattern {511/31/1}
 Group   2 Type S   : 10s7p1d contracted to 4s3p1d pattern {5311/511/1}
 Group   3 Type N   : 7s4p1d contracted to 3s2p1d pattern {511/31/1}
 Group   4 Type H   : 4s1p contracted to 2s1p pattern {31/1}

Atom   0C    basis set group =>   1
Atom   1C    basis set group =>   1
Atom   2C    basis set group =>   1
Atom   3S    basis set group =>   2
Atom   4C    basis set group =>   1
Atom   5C    basis set group =>   1
Atom   6C    basis set group =>   1
Atom   7N    basis set group =>   3
Atom   8N    basis set group =>   3
Atom   9C    basis set group =>   1
Atom  10C    basis set group =>   1
Atom  11H    basis set group =>   4
Atom  12H    basis set group =>   4
Atom  13H    basis set group =>   4
Atom  14H    basis set group =>   4
Atom  15H    basis set group =>   4
Atom  16H    basis set group =>   4
---------------------------------
AUXILIARY/J BASIS SET INFORMATION
---------------------------------
There are 4 groups of distinct atoms

 Group   1 Type C   : 12s5p4d2f1g contracted to 6s4p3d1f1g pattern {711111/2111/211/2/1}
 Group   2 Type S   : 14s5p5d2f1g contracted to 8s4p3d1f1g pattern {71111111/2111/311/2/1}
 Group   3 Type N   : 12s5p4d2f1g contracted to 6s4p3d1f1g pattern {711111/2111/211/2/1}
 Group   4 Type H   : 5s2p1d contracted to 3s1p1d pattern {311/2/1}

Atom   0C    basis set group =>   1
Atom   1C    basis set group =>   1
Atom   2C    basis set group =>   1
Atom   3S    basis set group =>   2
Atom   4C    basis set group =>   1
Atom   5C    basis set group =>   1
Atom   6C    basis set group =>   1
Atom   7N    basis set group =>   3
Atom   8N    basis set group =>   3
Atom   9C    basis set group =>   1
Atom  10C    basis set group =>   1
Atom  11H    basis set group =>   4
Atom  12H    basis set group =>   4
Atom  13H    basis set group =>   4
Atom  14H    basis set group =>   4
Atom  15H    basis set group =>   4
Atom  16H    basis set group =>   4
------------------------------------------------------------------------------
                           ORCA GTO INTEGRAL CALCULATION
                           -- RI-GTO INTEGRALS CHOSEN --
------------------------------------------------------------------------------

                         BASIS SET STATISTICS AND STARTUP INFO

Gaussian basis set:
 # of primitive gaussian shells          ...  168
 # of primitive gaussian functions       ...  318
 # of contracted shells                  ...   86
 # of contracted basis functions         ...  188
 Highest angular momentum                ...    2
 Maximum contraction depth               ...    5
Auxiliary gaussian basis set:
 # of primitive gaussian shells          ...  315
 # of primitive gaussian functions       ...  873
 # of contracted shells                  ...  197
 # of contracted aux-basis functions     ...  607
 Highest angular momentum                ...    4
 Maximum contraction depth               ...    7
Ratio of auxiliary to basis functions    ...  3.23
Integral package used                  ... LIBINT
 One Electron integrals                  ... done
 Ordering auxiliary basis shells         ... done
 Integral threshhold             Thresh  ...  2.500e-11
 Primitive cut-off               TCut    ...  2.500e-12
 Pre-screening matrix                    ... done
 Shell pair data                         ... 
 Ordering of the shell pairs             ... done (   0.001 sec) 3373 of 3741 pairs
 Determination of significant pairs      ... done (   0.000 sec)
 Creation of shell pair data             ... done (   0.001 sec)
 Storage of shell pair data              ... done (   0.001 sec)
 Shell pair data done in (   0.002 sec)
 Computing two index integrals           ... done
 Cholesky decomposition of the V-matrix  ... done


Timings:
 Total evaluation time                   ...   0.151 sec (  0.003 min)
 One electron matrix time                ...   0.016 sec (  0.000 min) = 10.9%
 Schwartz matrix evaluation time         ...   0.102 sec (  0.002 min) = 67.3%
 Two index repulsion integral time       ...   0.009 sec (  0.000 min) =  5.8%
 Cholesky decomposition of V             ...   0.006 sec (  0.000 min) =  3.7%
 Three index repulsion integral time     ...   0.000 sec (  0.000 min) =  0.0%

-------------------------------------------------------------------------------
                                 ORCA SCF
-------------------------------------------------------------------------------

------------
SCF SETTINGS
------------
Hamiltonian:
 Density Functional     Method          .... DFT(GTOs)
 Exchange Functional    Exchange        .... B88
   X-Alpha parameter    XAlpha          ....  0.666667
   Becke's b parameter  XBeta           ....  0.004200
 Correlation Functional Correlation     .... LYP
 LDA part of GGA corr.  LDAOpt          .... VWN-3
 Gradients option       PostSCFGGA      .... off
 Hybrid DFT is turned on
   Fraction HF Exchange ScalHFX         ....  0.200000
   Scaling of DF-GGA-X  ScalDFX         ....  0.720000
   Scaling of DF-GGA-C  ScalDFC         ....  0.810000
   Scaling of DF-LDA-C  ScalLDAC        ....  1.000000
   Perturbative correction              ....  0.000000
   Density functional embedding theory  .... OFF
   NL short-range parameter             ....  4.800000
 RI-approximation to the Coulomb term is turned on
   Number of auxiliary basis functions  .... 607
   RIJ-COSX (HFX calculated with COS-X)).... on


General Settings:
 Integral files         IntName         .... 741
 Hartree-Fock type      HFTyp           .... RHF
 Total Charge           Charge          ....    0
 Multiplicity           Mult            ....    1
 Number of Electrons    NEL             ....   84
 Basis Dimension        Dim             ....  188
 Nuclear Repulsion      ENuc            ....    632.8105965682 Eh

Convergence Acceleration:
 DIIS                   CNVDIIS         .... on
   Start iteration      DIISMaxIt       ....    12
   Startup error        DIISStart       ....  0.200000
   # of expansion vecs  DIISMaxEq       ....     5
   Bias factor          DIISBfac        ....   1.050
   Max. coefficient     DIISMaxC        ....  10.000
 Newton-Raphson         CNVNR           .... off
 SOSCF                  CNVSOSCF        .... on
   Start iteration      SOSCFMaxIt      ....   150
   Startup grad/error   SOSCFStart      ....  0.003300
 Level Shifting         CNVShift        .... on
   Level shift para.    LevelShift      ....    0.2500
   Turn off err/grad.   ShiftErr        ....    0.0010
 Zerner damping         CNVZerner       .... off
 Static damping         CNVDamp         .... on
   Fraction old density DampFac         ....    0.7000
   Max. Damping (<1)    DampMax         ....    0.9800
   Min. Damping (>=0)   DampMin         ....    0.0000
   Turn off err/grad.   DampErr         ....    0.1000
 Fernandez-Rico         CNVRico         .... off

SCF Procedure:
 Maximum # iterations   MaxIter         ....   125
 SCF integral mode      SCFMode         .... Direct
   Integral package                     .... LIBINT
 Reset frequency        DirectResetFreq ....    20
 Integral Threshold     Thresh          ....  2.500e-11 Eh
 Primitive CutOff       TCut            ....  2.500e-12 Eh

Convergence Tolerance:
 Convergence Check Mode ConvCheckMode   .... Total+1el-Energy
 Convergence forced     ConvForced      .... 0
 Energy Change          TolE            ....  1.000e-08 Eh
 1-El. energy change                    ....  1.000e-05 Eh
 Orbital Gradient       TolG            ....  1.000e-05
 Orbital Rotation angle TolX            ....  1.000e-05
 DIIS Error             TolErr          ....  5.000e-07


Diagonalization of the overlap matrix:
Smallest eigenvalue                        ... 4.934e-04
Time for diagonalization                   ...    0.005 sec
Threshold for overlap eigenvalues          ... 1.000e-08
Number of eigenvalues below threshold      ... 0
Time for construction of square roots      ...    0.001 sec
Total time needed                          ...    0.007 sec

-------------------
DFT GRID GENERATION
-------------------

General Integration Accuracy     IntAcc      ...  4.340
Radial Grid Type                 RadialGrid  ... Gauss-Chebyshev
Angular Grid (max. acc.)         AngularGrid ... Lebedev-110
Angular grid pruning method      GridPruning ... 3 (G Style)
Weight generation scheme         WeightScheme... Becke
Basis function cutoff            BFCut       ...    1.0000e-11
Integration weight cutoff        WCut        ...    1.0000e-14
Grids for H and He will be reduced by one unit

# of grid points (after initial pruning)     ...  23222 (   0.0 sec)
# of grid points (after weights+screening)   ...  21480 (   0.0 sec)
nearest neighbour list constructed           ...    0.0 sec
Grid point re-assignment to atoms done       ...    0.0 sec
Grid point division into batches done        ...    0.0 sec
Reduced shell lists constructed in    0.1 sec

Total number of grid points                  ...    21480
Total number of batches                      ...      343
Average number of points per batch           ...       62
Average number of grid points per atom       ...     1264
Average number of shells per batch           ...    57.15 (66.45%)
Average number of basis functions per batch  ...   124.02 (65.97%)
Average number of large shells per batch     ...    43.75 (76.55%)
Average number of large basis fcns per batch ...    94.02 (75.81%)
Maximum spatial batch extension              ...  18.35, 18.56, 25.60 au
Average spatial batch extension              ...   3.58,  3.48,  4.77 au

Time for grid setup =    0.217 sec

------------------------------
INITIAL GUESS: MODEL POTENTIAL
------------------------------
Loading Hartree-Fock densities                     ... done
Calculating cut-offs                               ... done
Setting up the integral package                    ... done
Initializing the effective Hamiltonian             ... done
Starting the Coulomb interaction                   ... done (   0.1 sec)
Reading the grid                                   ... done
Mapping shells                                     ... done
Starting the XC term evaluation                    ... done (   0.2 sec)
  promolecular density results
     # of electrons  =     84.000535882
     EX              =    -81.113193399
     EC              =     -2.977662137
     EX+EC           =    -84.090855536
Transforming the Hamiltonian                       ... done (   0.0 sec)
Diagonalizing the Hamiltonian                      ... done (   0.0 sec)
Back transforming the eigenvectors                 ... done (   0.0 sec)
Now organizing SCF variables                       ... done
                      ------------------
                      INITIAL GUESS DONE (   0.7 sec)
                      ------------------
--------------------
COSX GRID GENERATION
--------------------

General Integration Accuracy     IntAcc      ...  3.340
Radial Grid Type                 RadialGrid  ... Gauss-Chebyshev
Angular Grid (max. acc.)         AngularGrid ... Lebedev-50
Angular grid pruning method      GridPruning ... 3 (G Style)
Weight generation scheme         WeightScheme... Becke
Basis function cutoff            BFCut       ...    1.0000e-11
Integration weight cutoff        WCut        ...    1.0000e-14
Grids for H and He will be reduced by one unit

# of grid points (after initial pruning)     ...   8398 (   0.0 sec)
# of grid points (after weights+screening)   ...   7872 (   0.0 sec)
nearest neighbour list constructed           ...    0.0 sec
Grid point re-assignment to atoms done       ...    0.0 sec
Grid point division into batches done        ...    0.0 sec
Reduced shell lists constructed in    0.1 sec

Total number of grid points                  ...     7872
Total number of batches                      ...      130
Average number of points per batch           ...       60
Average number of grid points per atom       ...      463
Average number of shells per batch           ...    61.32 (71.30%)
Average number of basis functions per batch  ...   133.78 (71.16%)
Average number of large shells per batch     ...    47.70 (77.79%)
Average number of large basis fcns per batch ...   103.64 (77.47%)
Maximum spatial batch extension              ...  17.34, 15.06, 35.81 au
Average spatial batch extension              ...   4.76,  4.35,  7.03 au

Overlap Fitting                  UseSFitting ... on
Constructing numerical overlap ... done (      0.0 sec)
Inverting numerical overlap    ... done (      0.0 sec)
Obtaining analytic overlap     ... done (      0.0 sec)
Final contraction and storage  ... done (      0.0 sec)


General Integration Accuracy     IntAcc      ...  3.670
Radial Grid Type                 RadialGrid  ... Gauss-Chebyshev
Angular Grid (max. acc.)         AngularGrid ... Lebedev-50
Angular grid pruning method      GridPruning ... 3 (G Style)
Weight generation scheme         WeightScheme... Becke
Basis function cutoff            BFCut       ...    1.0000e-11
Integration weight cutoff        WCut        ...    1.0000e-14
Grids for H and He will be reduced by one unit

# of grid points (after initial pruning)     ...  10546 (   0.0 sec)
# of grid points (after weights+screening)   ...   9867 (   0.0 sec)
nearest neighbour list constructed           ...    0.0 sec
Grid point re-assignment to atoms done       ...    0.0 sec
Grid point division into batches done        ...    0.0 sec
Reduced shell lists constructed in    0.1 sec

Total number of grid points                  ...     9867
Total number of batches                      ...      163
Average number of points per batch           ...       60
Average number of grid points per atom       ...      580
Average number of shells per batch           ...    60.11 (69.90%)
Average number of basis functions per batch  ...   130.82 (69.58%)
Average number of large shells per batch     ...    46.35 (77.10%)
Average number of large basis fcns per batch ...   100.07 (76.49%)
Maximum spatial batch extension              ...  18.23, 17.22, 33.72 au
Average spatial batch extension              ...   4.36,  4.00,  6.72 au

Overlap Fitting                  UseSFitting ... on
Constructing numerical overlap ... done (      0.1 sec)
Inverting numerical overlap    ... done (      0.0 sec)
Obtaining analytic overlap     ... done (      0.0 sec)
Final contraction and storage  ... done (      0.0 sec)


General Integration Accuracy     IntAcc      ...  4.010
Radial Grid Type                 RadialGrid  ... Gauss-Chebyshev
Angular Grid (max. acc.)         AngularGrid ... Lebedev-110
Angular grid pruning method      GridPruning ... 3 (G Style)
Weight generation scheme         WeightScheme... Becke
Basis function cutoff            BFCut       ...    1.0000e-11
Integration weight cutoff        WCut        ...    1.0000e-14
Grids for H and He will be reduced by one unit

# of grid points (after initial pruning)     ...  20320 (   0.0 sec)
# of grid points (after weights+screening)   ...  18850 (   0.1 sec)
nearest neighbour list constructed           ...    0.0 sec
Grid point re-assignment to atoms done       ...    0.0 sec
Grid point division into batches done        ...    0.0 sec
Reduced shell lists constructed in    0.2 sec

Total number of grid points                  ...    18850
Total number of batches                      ...      303
Average number of points per batch           ...       62
Average number of grid points per atom       ...     1109
Average number of shells per batch           ...    57.71 (67.10%)
Average number of basis functions per batch  ...   125.35 (66.67%)
Average number of large shells per batch     ...    44.38 (76.90%)
Average number of large basis fcns per batch ...    95.46 (76.16%)
Maximum spatial batch extension              ...  16.69, 18.27, 24.28 au
Average spatial batch extension              ...   3.69,  3.51,  5.05 au

Overlap Fitting                  UseSFitting ... on
Constructing numerical overlap ... done (      0.1 sec)
Inverting numerical overlap    ... done (      0.0 sec)
Obtaining analytic overlap     ... done (      0.0 sec)
Final contraction and storage  ... done (      0.0 sec)

Time for X-Grid setup             =    0.710 sec
--------------
SCF ITERATIONS
--------------
ITER       Energy         Delta-E        Max-DP      RMS-DP      [F,P]     Damp
               ***  Starting incremental Fock matrix formation  ***
  0   -815.3887448610   0.000000000000 0.06419251  0.00282836  0.1466041 0.7000
  1   -815.5199987653  -0.131253904273 0.05898311  0.00200943  0.0736515 0.7000
                               ***Turning on DIIS***
  2   -815.5702323118  -0.050233546484 0.13793592  0.00328851  0.0299058 0.0000
  3   -815.6352856610  -0.065053349219 0.04630012  0.00170402  0.0451640 0.0000
  4   -815.6613388104  -0.026053149371 0.01759332  0.00049496  0.0125580 0.0000
  5   -815.6628543655  -0.001515555108 0.00620473  0.00020764  0.0060309 0.0000
                      *** Initiating the SOSCF procedure ***
                           *** Shutting down DIIS ***
                      *** Re-Reading the Fockian *** 
                      *** Removing any level shift *** 
ITER      Energy       Delta-E        Grad      Rot      Max-DP    RMS-DP
  6   -815.66307340  -0.0002190339  0.000962  0.000962  0.002288  0.000073
               *** Restarting incremental Fock matrix formation ***
  7   -815.66310664  -0.0000332374  0.000492  0.001994  0.001826  0.000070
  8   -815.66310773  -0.0000010923  0.000334  0.000566  0.000740  0.000031
  9   -815.66311195  -0.0000042184  0.000154  0.000464  0.000613  0.000020
 10   -815.66311202  -0.0000000683  0.000096  0.000218  0.000222  0.000008
 11   -815.66311254  -0.0000005233  0.000042  0.000212  0.000251  0.000007
 12   -815.66311252   0.0000000160  0.000059  0.000112  0.000082  0.000003
 13   -815.66311259  -0.0000000707  0.000007  0.000039  0.000075  0.000002
 14   -815.66311259   0.0000000016  0.000009  0.000021  0.000026  0.000001
 15   -815.66311260  -0.0000000045  0.000004  0.000012  0.000038  0.000001
 16   -815.66311260  -0.0000000068  0.000004  0.000005  0.000019  0.000000
                  ***Gradient check signals convergence***
              ***Rediagonalizing the Fockian in SOSCF/NRSCF***

               *****************************************************
               *                     SUCCESS                       *
               *           SCF CONVERGED AFTER  17 CYCLES          *
               *****************************************************

Setting up the final grid:

General Integration Accuracy     IntAcc      ...  4.670
Radial Grid Type                 RadialGrid  ... Gauss-Chebyshev
Angular Grid (max. acc.)         AngularGrid ... Lebedev-302
Angular grid pruning method      GridPruning ... 3 (G Style)
Weight generation scheme         WeightScheme... Becke
Basis function cutoff            BFCut       ...    1.0000e-11
Integration weight cutoff        WCut        ...    1.0000e-14
Grids for H and He will be reduced by one unit

# of grid points (after initial pruning)     ...  89330 (   0.0 sec)
# of grid points (after weights+screening)   ...  81469 (   0.2 sec)
nearest neighbour list constructed           ...    0.0 sec
Grid point re-assignment to atoms done       ...    0.0 sec
Grid point division into batches done        ...    0.3 sec
Reduced shell lists constructed in    0.8 sec

Total number of grid points                  ...    81469
Total number of batches                      ...     1281
Average number of points per batch           ...       63
Average number of grid points per atom       ...     4792
Average number of shells per batch           ...    51.79 (60.22%)
Average number of basis functions per batch  ...   111.44 (59.28%)
Average number of large shells per batch     ...    39.04 (75.39%)
Average number of large basis fcns per batch ...    83.28 (74.73%)
Maximum spatial batch extension              ...  21.17, 18.48, 23.04 au
Average spatial batch extension              ...   2.49,  2.36,  2.83 au

Final grid set up in    1.0 sec
Final integration                            ... done (   1.0 sec)
Change in XC energy                          ...    -0.000852466
Integrated number of electrons               ...    83.999921822
Previous integrated no of electrons          ...    84.000228565
Old exchange energy                            =    -16.357065258 Eh
New exchange energy                            =    -16.357193660 Eh
Exchange energy change after final integration =     -0.000128402 Eh
Total energy after final integration           =   -815.664093465 Eh
Final COS-X integration done in                =     7.044 sec

----------------
TOTAL SCF ENERGY
----------------

Total Energy       :         -815.66409347 Eh          -22195.34837 eV

Components:
Nuclear Repulsion  :          632.81059657 Eh           17219.65176 eV
Electronic Energy  :        -1448.47469003 Eh          -39415.00014 eV
One Electron Energy:        -2368.99210090 Eh          -64463.55233 eV
Two Electron Energy:          920.51741087 Eh           25048.55219 eV

Virial components:
Potential Energy   :        -1626.58062926 Eh          -44261.50913 eV
Kinetic Energy     :          810.91653579 Eh           22066.16076 eV
Virial Ratio       :            2.00585456


DFT components:
N(Alpha)           :       41.999960911023 electrons
N(Beta)            :       41.999960911023 electrons
N(Total)           :       83.999921822045 electrons
E(X)               :      -65.000928785228 Eh       
E(C)               :       -3.814812467605 Eh       
E(XC)              :      -68.815741252833 Eh       
DFET-embed. en.    :        0.000000000000 Eh       

---------------
SCF CONVERGENCE
---------------

  Last Energy change         ...    6.1706e-09  Tolerance :   1.0000e-08
  Last MAX-Density change    ...    3.5527e-15  Tolerance :   1.0000e-07
  Last RMS-Density change    ...    5.4664e-17  Tolerance :   5.0000e-09
  Last Orbital Gradient      ...    7.7285e-07  Tolerance :   1.0000e-05
  Last Orbital Rotation      ...    3.0589e-06  Tolerance :   1.0000e-05

             **** THE GBW FILE WAS UPDATED (741.gbw) ****
             **** DENSITY FILE WAS UPDATED (741.scfp) ****
             **** ENERGY FILE WAS UPDATED (741.en.tmp) ****
             **** THE GBW FILE WAS UPDATED (741.gbw) ****
             **** DENSITY FILE WAS UPDATED (741.scfp) ****
----------------
ORBITAL ENERGIES
----------------

  NO   OCC          E(Eh)            E(eV) 
   0   2.0000     -88.908585     -2419.3256 
   1   2.0000     -14.341191      -390.2436 
   2   2.0000     -14.337529      -390.1440 
   3   2.0000     -10.237321      -278.5717 
   4   2.0000     -10.233661      -278.4721 
   5   2.0000     -10.232785      -278.4482 
   6   2.0000     -10.228155      -278.3222 
   7   2.0000     -10.216760      -278.0122 
   8   2.0000     -10.215989      -277.9912 
   9   2.0000     -10.196546      -277.4621 
  10   2.0000     -10.191220      -277.3172 
  11   2.0000      -8.003535      -217.7873 
  12   2.0000      -5.971131      -162.4827 
  13   2.0000      -5.966906      -162.3678 
  14   2.0000      -5.966118      -162.3463 
  15   2.0000      -1.009835       -27.4790 
  16   2.0000      -0.911700       -24.8086 
  17   2.0000      -0.846481       -23.0339 
  18   2.0000      -0.792156       -21.5557 
  19   2.0000      -0.760154       -20.6848 
  20   2.0000      -0.746921       -20.3247 
  21   2.0000      -0.668308       -18.1856 
  22   2.0000      -0.628622       -17.1057 
  23   2.0000      -0.603891       -16.4327 
  24   2.0000      -0.567995       -15.4559 
  25   2.0000      -0.556295       -15.1376 
  26   2.0000      -0.500883       -13.6297 
  27   2.0000      -0.485420       -13.2089 
  28   2.0000      -0.472752       -12.8642 
  29   2.0000      -0.447051       -12.1649 
  30   2.0000      -0.433209       -11.7882 
  31   2.0000      -0.430748       -11.7212 
  32   2.0000      -0.401657       -10.9297 
  33   2.0000      -0.394203       -10.7268 
  34   2.0000      -0.385723       -10.4961 
  35   2.0000      -0.372777       -10.1438 
  36   2.0000      -0.341899        -9.3035 
  37   2.0000      -0.303235        -8.2514 
  38   2.0000      -0.290123        -7.8947 
  39   2.0000      -0.275120        -7.4864 
  40   2.0000      -0.231818        -6.3081 
  41   2.0000      -0.218436        -5.9439 
  42   0.0000      -0.089274        -2.4293 
  43   0.0000      -0.028731        -0.7818 
  44   0.0000      -0.004385        -0.1193 
  45   0.0000       0.027288         0.7425 
  46   0.0000       0.054550         1.4844 
  47   0.0000       0.058128         1.5818 
  48   0.0000       0.080909         2.2017 
  49   0.0000       0.100265         2.7283 
  50   0.0000       0.111070         3.0224 
  51   0.0000       0.125490         3.4148 
  52   0.0000       0.142146         3.8680 
  53   0.0000       0.160648         4.3714 
  54   0.0000       0.175289         4.7698 
  55   0.0000       0.216401         5.8886 
  56   0.0000       0.230447         6.2708 
  57   0.0000       0.245988         6.6937 
  58   0.0000       0.265796         7.2327 
  59   0.0000       0.280194         7.6245 
  60   0.0000       0.301054         8.1921 
  61   0.0000       0.309666         8.4264 
  62   0.0000       0.330985         9.0066 
  63   0.0000       0.343691         9.3523 
  64   0.0000       0.354535         9.6474 
  65   0.0000       0.378523        10.3001 
  66   0.0000       0.392800        10.6886 
  67   0.0000       0.424115        11.5407 
  68   0.0000       0.433121        11.7858 
  69   0.0000       0.441459        12.0127 
  70   0.0000       0.455207        12.3868 
  71   0.0000       0.468700        12.7540 
  72   0.0000       0.474161        12.9026 
  73   0.0000       0.494222        13.4485 
  74   0.0000       0.497531        13.5385 
  75   0.0000       0.513390        13.9700 
  76   0.0000       0.522640        14.2218 
  77   0.0000       0.527418        14.3518 
  78   0.0000       0.541914        14.7462 
  79   0.0000       0.557379        15.1670 
  80   0.0000       0.573042        15.5933 
  81   0.0000       0.600997        16.3539 
  82   0.0000       0.619204        16.8494 
  83   0.0000       0.629267        17.1232 
  84   0.0000       0.633639        17.2422 
  85   0.0000       0.654338        17.8055 
  86   0.0000       0.657902        17.9024 
  87   0.0000       0.662330        18.0229 
  88   0.0000       0.673522        18.3275 
  89   0.0000       0.685363        18.6497 
  90   0.0000       0.687752        18.7147 
  91   0.0000       0.698967        19.0199 
  92   0.0000       0.709533        19.3074 
  93   0.0000       0.738523        20.0962 
  94   0.0000       0.740428        20.1481 
  95   0.0000       0.742940        20.2164 
  96   0.0000       0.749126        20.3848 
  97   0.0000       0.757938        20.6245 
  98   0.0000       0.773531        21.0489 
  99   0.0000       0.788907        21.4672 
 100   0.0000       0.822116        22.3709 
 101   0.0000       0.829380        22.5686 
 102   0.0000       0.857318        23.3288 
 103   0.0000       0.901020        24.5180 
 104   0.0000       0.917340        24.9621 
 105   0.0000       0.929628        25.2965 
 106   0.0000       0.955489        26.0002 
 107   0.0000       1.003336        27.3022 
 108   0.0000       1.059212        28.8226 
 109   0.0000       1.084423        29.5087 
 110   0.0000       1.105230        30.0748 
 111   0.0000       1.121142        30.5078 
 112   0.0000       1.145348        31.1665 
 113   0.0000       1.162918        31.6446 
 114   0.0000       1.170424        31.8488 
 115   0.0000       1.192889        32.4602 
 116   0.0000       1.204648        32.7801 
 117   0.0000       1.210725        32.9455 
 118   0.0000       1.238869        33.7113 
 119   0.0000       1.249455        33.9994 
 120   0.0000       1.262179        34.3456 
 121   0.0000       1.282217        34.8909 
 122   0.0000       1.301799        35.4237 
 123   0.0000       1.354059        36.8458 
 124   0.0000       1.396690        38.0059 
 125   0.0000       1.413762        38.4704 
 126   0.0000       1.430211        38.9180 
 127   0.0000       1.539895        41.9027 
 128   0.0000       1.551716        42.2243 
 129   0.0000       1.601957        43.5915 
 130   0.0000       1.634799        44.4851 
 131   0.0000       1.662513        45.2393 
 132   0.0000       1.697075        46.1798 
 133   0.0000       1.699710        46.2514 
 134   0.0000       1.708390        46.4876 
 135   0.0000       1.753539        47.7162 
 136   0.0000       1.773883        48.2698 
 137   0.0000       1.782381        48.5011 
 138   0.0000       1.792916        48.7877 
 139   0.0000       1.800344        48.9899 
 140   0.0000       1.835853        49.9561 
 141   0.0000       1.840661        50.0869 
 142   0.0000       1.863722        50.7144 
 143   0.0000       1.894825        51.5608 
 144   0.0000       1.900895        51.7260 
 145   0.0000       1.929925        52.5159 
 146   0.0000       1.933602        52.6160 
 147   0.0000       1.984411        53.9986 
 148   0.0000       2.014792        54.8253 
 149   0.0000       2.017076        54.8874 
 150   0.0000       2.039810        55.5061 
 151   0.0000       2.095185        57.0129 
 152   0.0000       2.099030        57.1175 
 153   0.0000       2.119558        57.6761 
 154   0.0000       2.138215        58.1838 
 155   0.0000       2.143140        58.3178 
 156   0.0000       2.178150        59.2705 
 157   0.0000       2.268764        61.7362 
 158   0.0000       2.319304        63.1115 
 159   0.0000       2.321552        63.1727 
 160   0.0000       2.334605        63.5278 
 161   0.0000       2.343303        63.7645 
 162   0.0000       2.372049        64.5467 
 163   0.0000       2.415642        65.7330 
 164   0.0000       2.424427        65.9720 
 165   0.0000       2.432075        66.1801 
 166   0.0000       2.471046        67.2406 
 167   0.0000       2.521953        68.6258 
 168   0.0000       2.551877        69.4401 
 169   0.0000       2.586003        70.3687 
 170   0.0000       2.588003        70.4231 
 171   0.0000       2.650211        72.1159 
 172   0.0000       2.703871        73.5761 
 173   0.0000       2.707671        73.6795 
 174   0.0000       2.722710        74.0887 
 175   0.0000       2.776548        75.5537 
 176   0.0000       2.784813        75.7786 
 177   0.0000       2.917419        79.3870 
 178   0.0000       2.956621        80.4537 
 179   0.0000       2.969270        80.7979 
 180   0.0000       2.985184        81.2310 
 181   0.0000       3.018851        82.1471 
 182   0.0000       3.132843        85.2490 
 183   0.0000       3.172201        86.3200 
 184   0.0000       3.261574        88.7519 
 185   0.0000       3.328526        90.5738 
 186   0.0000       3.546593        96.5077 
 187   0.0000       3.680351       100.1474 

                    ********************************
                    * MULLIKEN POPULATION ANALYSIS *
                    ********************************

-----------------------
MULLIKEN ATOMIC CHARGES
-----------------------
   0 C :    0.018218
   1 C :    0.078681
   2 C :   -0.125752
   3 S :    0.161744
   4 C :   -0.135741
   5 C :    0.083347
   6 C :   -0.000581
   7 N :   -0.079128
   8 N :   -0.057967
   9 C :   -0.037420
  10 C :    0.053935
  11 H :   -0.015582
  12 H :    0.020205
  13 H :    0.017234
  14 H :   -0.034702
  15 H :    0.036026
  16 H :    0.017481
Sum of atomic charges:   -0.0000000

--------------------------------
MULLIKEN REDUCED ORBITAL CHARGES
--------------------------------
  0 C s       :     3.207368  s :     3.207368
      pz      :     0.948829  p :     2.720267
      px      :     0.937652
      py      :     0.833786
      dz2     :     0.003475  d :     0.054147
      dxz     :     0.008994
      dyz     :     0.004003
      dx2y2   :     0.022476
      dxy     :     0.015199
  1 C s       :     3.055807  s :     3.055807
      pz      :     0.996864  p :     2.821964
      px      :     0.801523
      py      :     1.023577
      dz2     :     0.003384  d :     0.043548
      dxz     :     0.007728
      dyz     :     0.005777
      dx2y2   :     0.014491
      dxy     :     0.012169
  2 C s       :     3.212385  s :     3.212385
      pz      :     1.115495  p :     2.877781
      px      :     0.911595
      py      :     0.850691
      dz2     :     0.003090  d :     0.035586
      dxz     :     0.006720
      dyz     :     0.003000
      dx2y2   :     0.009460
      dxy     :     0.013316
  3 S s       :     5.834725  s :     5.834725
      pz      :     3.555255  p :     9.880517
      px      :     3.345633
      py      :     2.979629
      dz2     :     0.012774  d :     0.123014
      dxz     :     0.011979
      dyz     :     0.029509
      dx2y2   :     0.019300
      dxy     :     0.049451
  4 C s       :     3.217822  s :     3.217822
      pz      :     1.115207  p :     2.882052
      px      :     0.952272
      py      :     0.814573
      dz2     :     0.003113  d :     0.035867
      dxz     :     0.006632
      dyz     :     0.003139
      dx2y2   :     0.008714
      dxy     :     0.014269
  5 C s       :     3.078215  s :     3.078215
      pz      :     1.003787  p :     2.796131
      px      :     0.791014
      py      :     1.001330
      dz2     :     0.003362  d :     0.042307
      dxz     :     0.007785
      dyz     :     0.005205
      dx2y2   :     0.014376
      dxy     :     0.011579
  6 C s       :     3.109751  s :     3.109751
      pz      :     0.933494  p :     2.828335
      px      :     1.000509
      py      :     0.894332
      dz2     :     0.004049  d :     0.062495
      dxz     :     0.009555
      dyz     :     0.007756
      dx2y2   :     0.022008
      dxy     :     0.019126
  7 N s       :     3.520677  s :     3.520677
      pz      :     1.123220  p :     3.519565
      px      :     1.386543
      py      :     1.009802
      dz2     :     0.004273  d :     0.038885
      dxz     :     0.005150
      dyz     :     0.005647
      dx2y2   :     0.013773
      dxy     :     0.010042
  8 N s       :     3.494466  s :     3.494466
      pz      :     1.095124  p :     3.523071
      px      :     1.478519
      py      :     0.949429
      dz2     :     0.004406  d :     0.040430
      dxz     :     0.005360
      dyz     :     0.006357
      dx2y2   :     0.011608
      dxy     :     0.012698
  9 C s       :     3.176756  s :     3.176756
      pz      :     1.011137  p :     2.826177
      px      :     0.850746
      py      :     0.964293
      dz2     :     0.002550  d :     0.034487
      dxz     :     0.003548
      dyz     :     0.004547
      dx2y2   :     0.013755
      dxy     :     0.010088
 10 C s       :     3.093046  s :     3.093046
      pz      :     0.919223  p :     2.825513
      px      :     0.991548
      py      :     0.914743
      dz2     :     0.001679  d :     0.027505
      dxz     :     0.004037
      dyz     :     0.001731
      dx2y2   :     0.011249
      dxy     :     0.008810
 11 H s       :     0.994212  s :     0.994212
      pz      :     0.004233  p :     0.021370
      px      :     0.002891
      py      :     0.014246
 12 H s       :     0.955418  s :     0.955418
      pz      :     0.005725  p :     0.024378
      px      :     0.003445
      py      :     0.015208
 13 H s       :     0.958468  s :     0.958468
      pz      :     0.005791  p :     0.024297
      px      :     0.005097
      py      :     0.013409
 14 H s       :     1.011252  s :     1.011252
      pz      :     0.004899  p :     0.023450
      px      :     0.012392
      py      :     0.006159
 15 H s       :     0.939072  s :     0.939072
      pz      :     0.004144  p :     0.024902
      px      :     0.013219
      py      :     0.007538
 16 H s       :     0.958138  s :     0.958138
      pz      :     0.004806  p :     0.024380
      px      :     0.004356
      py      :     0.015218


                     *******************************
                     * LOEWDIN POPULATION ANALYSIS *
                     *******************************

----------------------
LOEWDIN ATOMIC CHARGES
----------------------
   0 C :    0.004551
   1 C :   -0.071253
   2 C :   -0.190243
   3 S :    0.510189
   4 C :   -0.191632
   5 C :   -0.063345
   6 C :    0.000620
   7 N :   -0.063736
   8 N :   -0.052225
   9 C :   -0.042389
  10 C :    0.013875
  11 H :    0.022541
  12 H :    0.025021
  13 H :    0.022366
  14 H :    0.021920
  15 H :    0.030237
  16 H :    0.023502

-------------------------------
LOEWDIN REDUCED ORBITAL CHARGES
-------------------------------
  0 C s       :     2.862167  s :     2.862167
      pz      :     0.933276  p :     2.998105
      px      :     1.030967
      py      :     1.033862
      dz2     :     0.008725  d :     0.135177
      dxz     :     0.018047
      dyz     :     0.006386
      dx2y2   :     0.060394
      dxy     :     0.041624
  1 C s       :     2.848127  s :     2.848127
      pz      :     0.984937  p :     3.106118
      px      :     1.069380
      py      :     1.051801
      dz2     :     0.008516  d :     0.117008
      dxz     :     0.016429
      dyz     :     0.012019
      dx2y2   :     0.045162
      dxy     :     0.034883
  2 C s       :     2.919260  s :     2.919260
      pz      :     1.108314  p :     3.184913
      px      :     1.034772
      py      :     1.041827
      dz2     :     0.006451  d :     0.086070
      dxz     :     0.013980
      dyz     :     0.004768
      dx2y2   :     0.025555
      dxy     :     0.035317
  3 S s       :     5.488072  s :     5.488072
      pz      :     3.503035  p :     9.850844
      px      :     3.367472
      py      :     2.980337
      dz2     :     0.016269  d :     0.150895
      dxz     :     0.010980
      dyz     :     0.036249
      dx2y2   :     0.021706
      dxy     :     0.065691
  4 C s       :     2.918144  s :     2.918144
      pz      :     1.109215  p :     3.186984
      px      :     1.051725
      py      :     1.026044
      dz2     :     0.006467  d :     0.086504
      dxz     :     0.013756
      dyz     :     0.005197
      dx2y2   :     0.023356
      dxy     :     0.037729
  5 C s       :     2.846779  s :     2.846779
      pz      :     0.991621  p :     3.101805
      px      :     1.061591
      py      :     1.048593
      dz2     :     0.008441  d :     0.114761
      dxz     :     0.016693
      dyz     :     0.010492
      dx2y2   :     0.045820
      dxy     :     0.033315
  6 C s       :     2.849809  s :     2.849809
      pz      :     0.916009  p :     2.994651
      px      :     1.034570
      py      :     1.044071
      dz2     :     0.009950  d :     0.154920
      dxz     :     0.018621
      dyz     :     0.014635
      dx2y2   :     0.060551
      dxy     :     0.051164
  7 N s       :     3.229819  s :     3.229819
      pz      :     1.123055  p :     3.751341
      px      :     1.463428
      py      :     1.164858
      dz2     :     0.009175  d :     0.082576
      dxz     :     0.006988
      dyz     :     0.010210
      dx2y2   :     0.030790
      dxy     :     0.025412
  8 N s       :     3.234273  s :     3.234273
      pz      :     1.087376  p :     3.732892
      px      :     1.533623
      py      :     1.111893
      dz2     :     0.009267  d :     0.085060
      dxz     :     0.006567
      dyz     :     0.012471
      dx2y2   :     0.027792
      dxy     :     0.028964
  9 C s       :     2.862274  s :     2.862274
      pz      :     0.982933  p :     3.088021
      px      :     1.069240
      py      :     1.035847
      dz2     :     0.006639  d :     0.092095
      dxz     :     0.007015
      dyz     :     0.009970
      dx2y2   :     0.038918
      dxy     :     0.029553
 10 C s       :     2.876351  s :     2.876351
      pz      :     0.905124  p :     3.038631
      px      :     1.083253
      py      :     1.050254
      dz2     :     0.004924  d :     0.071143
      dxz     :     0.007924
      dyz     :     0.003416
      dx2y2   :     0.030514
      dxy     :     0.024365
 11 H s       :     0.909337  s :     0.909337
      pz      :     0.014127  p :     0.068122
      px      :     0.010924
      py      :     0.043070
 12 H s       :     0.897490  s :     0.897490
      pz      :     0.019162  p :     0.077489
      px      :     0.012140
      py      :     0.046187
 13 H s       :     0.899765  s :     0.899765
      pz      :     0.019190  p :     0.077869
      px      :     0.015882
      py      :     0.042797
 14 H s       :     0.909720  s :     0.909720
      pz      :     0.015162  p :     0.068360
      px      :     0.035293
      py      :     0.017905
 15 H s       :     0.896333  s :     0.896333
      pz      :     0.013617  p :     0.073430
      px      :     0.038098
      py      :     0.021714
 16 H s       :     0.906338  s :     0.906338
      pz      :     0.014419  p :     0.070159
      px      :     0.012767
      py      :     0.042974


                      *****************************
                      * MAYER POPULATION ANALYSIS *
                      *****************************

  NA   - Mulliken gross atomic population
  ZA   - Total nuclear charge
  QA   - Mulliken gross atomic charge
  VA   - Mayer's total valence
  BVA  - Mayer's bonded valence
  FA   - Mayer's free valence

  ATOM       NA         ZA         QA         VA         BVA        FA
  0 C      5.9818     6.0000     0.0182     3.9642     3.9642    -0.0000
  1 C      5.9213     6.0000     0.0787     3.8475     3.8475    -0.0000
  2 C      6.1258     6.0000    -0.1258     3.7462     3.7462     0.0000
  3 S     15.8383    16.0000     0.1617     2.6375     2.6375    -0.0000
  4 C      6.1357     6.0000    -0.1357     3.7558     3.7558     0.0000
  5 C      5.9167     6.0000     0.0833     3.8408     3.8408    -0.0000
  6 C      6.0006     6.0000    -0.0006     4.0115     4.0115    -0.0000
  7 N      7.0791     7.0000    -0.0791     3.0586     3.0586    -0.0000
  8 N      7.0580     7.0000    -0.0580     3.0662     3.0662    -0.0000
  9 C      6.0374     6.0000    -0.0374     4.0002     4.0002     0.0000
 10 C      5.9461     6.0000     0.0539     3.9164     3.9164    -0.0000
 11 H      1.0156     1.0000    -0.0156     0.9943     0.9943    -0.0000
 12 H      0.9798     1.0000     0.0202     1.0011     1.0011     0.0000
 13 H      0.9828     1.0000     0.0172     0.9991     0.9991     0.0000
 14 H      1.0347     1.0000    -0.0347     0.9841     0.9841    -0.0000
 15 H      0.9640     1.0000     0.0360     1.0141     1.0141    -0.0000
 16 H      0.9825     1.0000     0.0175     0.9709     0.9709     0.0000

  Mayer bond orders larger than 0.100000
B(  0-C ,  1-C ) :   1.1196 B(  0-C ,  8-N ) :   1.7429 B(  0-C , 11-H ) :   0.9947 
B(  1-C ,  2-C ) :   1.4019 B(  1-C ,  5-C ) :   1.2196 B(  2-C ,  3-S ) :   1.2214 
B(  2-C ,  4-C ) :   0.1036 B(  2-C , 12-H ) :   0.9676 B(  3-S ,  4-C ) :   1.2133 
B(  4-C ,  5-C ) :   1.4498 B(  4-C , 13-H ) :   0.9557 B(  5-C ,  6-C ) :   1.0800 
B(  6-C ,  7-N ) :   1.7138 B(  6-C ,  9-C ) :   1.1068 B(  7-N ,  8-N ) :   1.1574 
B(  9-C , 10-C ) :   1.9327 B(  9-C , 14-H ) :   0.9583 B( 10-C , 15-H ) :   0.9350 
B( 10-C , 16-H ) :   0.9415 

-------
TIMINGS
-------

Total SCF time: 0 days 0 hours 1 min 16 sec 

Total time                  ....      76.798 sec
Sum of individual times     ....      76.670 sec  ( 99.8%)

Fock matrix formation       ....      74.210 sec  ( 96.6%)
  Split-RI-J                ....       7.295 sec  (  9.8% of F)
  Chain of spheres X        ....      60.682 sec  ( 81.8% of F)
  COS-X 1 center corr.      ....       0.000 sec  (  0.0% of F)
  XC integration            ....       6.163 sec  (  8.3% of F)
    Basis function eval.    ....       2.269 sec  ( 36.8% of XC)
    Density eval.           ....       1.325 sec  ( 21.5% of XC)
    XC-Functional eval.     ....       0.465 sec  (  7.5% of XC)
    XC-Potential eval.      ....       1.903 sec  ( 30.9% of XC)
Diagonalization             ....       0.031 sec  (  0.0%)
Density matrix formation    ....       0.011 sec  (  0.0%)
Population analysis         ....       0.004 sec  (  0.0%)
Initial guess               ....       0.434 sec  (  0.6%)
Orbital Transformation      ....       0.000 sec  (  0.0%)
Orbital Orthonormalization  ....       0.000 sec  (  0.0%)
DIIS solution               ....       0.010 sec  (  0.0%)
SOSCF solution              ....       0.029 sec  (  0.0%)
Grid generation             ....       1.941 sec  (  2.5%)


-------------------------------------------------------------------------------
                          DFT DISPERSION CORRECTION                            
                                                                               
                              DFTD3 V3.1  Rev 1                                
                          USING Becke-Johnson damping                          
-------------------------------------------------------------------------------
Gaussians B3LYP functional is recognized, using regular B3LYP params
Active option DFTDOPT                   ...         4   

molecular C6(AA) [au] = 4909.839752 


            DFT-D V3
 parameters
 s6 scaling factor         :     1.0000 
 a1 scaling factor         :     0.3981 
 s8 scaling factor         :     1.9889 
 a2 scaling factor         :     4.4211 
 ad hoc parameters k1-k3   :    16.0000     1.3333    -4.0000 

 Edisp/kcal,au: -23.814421600590  -0.037950692451 
 E6   /kcal   : -10.660455089 
 E8   /kcal   : -13.153966511 
 % E8         :  55.235297048 

-------------------------   ----------------
Dispersion correction           -0.037950692
-------------------------   ----------------


-------------------------   --------------------
FINAL SINGLE POINT ENERGY      -815.702044157698
-------------------------   --------------------

------------------------------------------------------------------------------
                         ORCA SCF GRADIENT CALCULATION
------------------------------------------------------------------------------

Gradient of the Kohn-Sham DFT energy:
Kohn-Sham wavefunction type      ... RKS
Hartree-Fock exchange scaling    ...    0.200
Number of operators              ...    1
Number of atoms                  ...   17
Basis set dimensions             ...  188
Integral neglect threshold       ... 2.5e-11
Integral primitive cutoff        ... 2.5e-12

Nuclear repulsion gradient       ... done
One Electron Gradient            ... done
Pre-screening matrix             ... done
RI-J gradient                    ... done
COSX-gradient                    ... done
Exchange-correlation gradient    ... done
Dispersion correction            ... done

------------------
CARTESIAN GRADIENT
------------------

   1   C   :    0.008248278   -0.000710028    0.000030440
   2   C   :   -0.004430694    0.003204028   -0.000045652
   3   C   :    0.007381649   -0.001341108   -0.000085105
   4   S   :    0.001183297   -0.000226537    0.000028722
   5   C   :    0.009512712    0.001710265    0.000270247
   6   C   :   -0.007886837   -0.003807043    0.000103065
   7   C   :    0.007229963   -0.003495297    0.000362188
   8   N   :   -0.009081949    0.020043493   -0.000440967
   9   N   :   -0.016527551   -0.018530361   -0.000001721
  10   C   :    0.002994326   -0.001389456   -0.000407741
  11   C   :   -0.002115848    0.004346181    0.000246964
  12   H   :   -0.001610044   -0.010450677    0.000205855
  13   H   :    0.002275470   -0.012824158    0.000310273
  14   H   :    0.003843558    0.011935695   -0.000289469
  15   H   :    0.007007316    0.005387746    0.000172301
  16   H   :   -0.009759022   -0.006096687   -0.000517524
  17   H   :    0.001572165    0.011841893   -0.000163140

Difference to translation invariance:
           :   -0.0001632119   -0.0004020521   -0.0002212647

Norm of the cartesian gradient     ...    0.0481550650
RMS gradient                       ...    0.0067430578
MAX gradient                       ...    0.0200434928

-------
TIMINGS
-------

Total SCF gradient time            ...       14.120 sec

One electron gradient       ....       0.129 sec  (  0.9%)
Prescreening matrices       ....       0.111 sec  (  0.8%)
RI-J Coulomb gradient       ....       1.517 sec  ( 10.7%)
COSX gradient               ....       7.405 sec  ( 52.4%)
XC gradient                 ....       4.566 sec  ( 32.3%)
------------------------------------------------------------------------------
                         ORCA GEOMETRY RELAXATION STEP
------------------------------------------------------------------------------

Reading the OPT-File                    .... done
Getting information on internals        .... done
Copying old internal coords+grads       .... done
Making the new internal coordinates     .... (new redundants).... done
Validating the new internal coordinates .... (new redundants).... done
Calculating the B-matrix                .... done
Calculating the G,G- and P matrices     .... done
Transforming gradient to internals      .... done
Projecting the internal gradient        .... done
Number of atoms                         ....  17
Number of internal coordinates          ....  82
Current Energy                          ....  -815.702044158 Eh
Current gradient norm                   ....     0.048155065 Eh/bohr
Maximum allowed component of the step   ....  0.300
Current trust radius                    ....  0.300
Evaluating the initial hessian          ....  (Almloef) done
Projecting the Hessian                  .... done
Forming the augmented Hessian           .... done
Diagonalizing the augmented Hessian     .... done
Last element of RFO vector              ....  0.993182815
Lowest eigenvalues of augmented Hessian:
 -0.005766525  0.015434323  0.016537842  0.020484504  0.022591805
Length of the computed step             ....  0.117367242
The final length of the internal step   ....  0.117367242
Converting the step to cartesian space:
 Initial RMS(Int)=    0.0129610437
Transforming coordinates:
 Iter   0:  RMS(Cart)=    0.0341096153 RMS(Int)=    1.3868706140
 Iter   1:  RMS(Cart)=    0.0003612555 RMS(Int)=    0.6938559295
 Iter   2:  RMS(Cart)=    0.0000073119 RMS(Int)=    0.0000039311
 Iter   3:  RMS(Cart)=    0.0000002105 RMS(Int)=    0.0000000791
 Iter   4:  RMS(Cart)=    0.0000000057 RMS(Int)=    0.0000000036
done
Storing new coordinates                 .... done

                                .--------------------.
          ----------------------|Geometry convergence|-------------------------
          Item                value                   Tolerance       Converged
          ---------------------------------------------------------------------
          RMS gradient        0.0061459778            0.0001000000      NO
          MAX gradient        0.0261123092            0.0003000000      NO
          RMS step            0.0129610437            0.0020000000      NO
          MAX step            0.0414845451            0.0040000000      NO
          ........................................................
          Max(Bonds)      0.0220      Max(Angles)    0.72
          Max(Dihed)        1.48      Max(Improp)    0.00
          ---------------------------------------------------------------------

The optimization has not yet converged - more geometry cycles are needed


    ---------------------------------------------------------------------------
                         Redundant Internal Coordinates
                            (Angstroem and degrees)

        Definition                    Value    dE/dq     Step     New-Value
    ----------------------------------------------------------------------------
     1. B(C   1,C   0)                1.4214 -0.007879  0.0072    1.4286   
     2. B(C   2,C   1)                1.3737 -0.013681  0.0108    1.3845   
     3. B(S   3,C   2)                1.7077 -0.004886  0.0048    1.7125   
     4. B(C   4,S   3)                1.7102 -0.004552  0.0045    1.7147   
     5. B(C   5,C   4)                1.3728 -0.014714  0.0116    1.3845   
     6. B(C   5,C   1)                1.4389 -0.008804  0.0082    1.4471   
     7. B(C   6,C   5)                1.4370 -0.006676  0.0063    1.4432   
     8. B(N   7,C   6)                1.3078 -0.013355  0.0095    1.3173   
     9. B(N   8,N   7)                1.3235 -0.026112  0.0220    1.3454   
    10. B(N   8,C   0)                1.2963 -0.015386  0.0105    1.3068   
    11. B(C   9,C   6)                1.4550 -0.014340  0.0152    1.4702   
    12. B(C  10,C   9)                1.3286 -0.014084  0.0095    1.3380   
    13. B(H  11,C   0)                1.0807 -0.010540  0.0147    1.0955   
    14. B(H  12,C   2)                1.0713 -0.013032  0.0176    1.0889   
    15. B(H  13,C   4)                1.0711 -0.012490  0.0169    1.0880   
    16. B(H  14,C   9)                1.0813 -0.008700  0.0122    1.0935   
    17. B(H  15,C  10)                1.0763 -0.011379  0.0157    1.0920   
    18. B(H  16,C  10)                1.0763 -0.011940  0.0164    1.0928   
    19. A(C   1,C   0,H  11)          121.25  0.000612   -0.09    121.16   
    20. A(N   8,C   0,H  11)          116.67  0.000262   -0.03    116.64   
    21. A(C   1,C   0,N   8)          122.08 -0.000874    0.12    122.20   
    22. A(C   2,C   1,C   5)          112.37  0.000064    0.06    112.43   
    23. A(C   0,C   1,C   2)          131.12  0.001772   -0.16    130.96   
    24. A(C   0,C   1,C   5)          116.51 -0.001836    0.10    116.60   
    25. A(C   1,C   2,H  12)          128.24 -0.001336    0.19    128.43   
    26. A(S   3,C   2,H  12)          120.29 -0.001700    0.24    120.53   
    27. A(C   1,C   2,S   3)          111.47  0.003037   -0.43    111.04   
    28. A(C   2,S   3,C   4)           92.61 -0.006239    0.72     93.33   
    29. A(C   5,C   4,H  13)          129.07 -0.000860    0.10    129.17   
    30. A(S   3,C   4,H  13)          119.16 -0.002869    0.41    119.57   
    31. A(S   3,C   4,C   5)          111.77  0.003730   -0.52    111.25   
    32. A(C   1,C   5,C   4)          111.78 -0.000592    0.16    111.94   
    33. A(C   4,C   5,C   6)          131.87  0.003983   -0.44    131.42   
    34. A(C   1,C   5,C   6)          116.35 -0.003392    0.28    116.63   
    35. A(N   7,C   6,C   9)          118.27 -0.001767    0.26    118.53   
    36. A(C   5,C   6,C   9)          121.07  0.002140   -0.27    120.79   
    37. A(C   5,C   6,N   7)          120.67 -0.000373    0.01    120.68   
    38. A(C   6,N   7,N   8)          122.70  0.002403   -0.17    122.53   
    39. A(C   0,N   8,N   7)          121.70  0.004072   -0.35    121.35   
    40. A(C  10,C   9,H  14)          121.05  0.003940   -0.57    120.48   
    41. A(C   6,C   9,H  14)          115.97  0.000173    0.01    115.98   
    42. A(C   6,C   9,C  10)          122.97 -0.004114    0.56    123.54   
    43. A(H  15,C  10,H  16)          117.87 -0.001635    0.29    118.16   
    44. A(C   9,C  10,H  16)          121.95  0.001071   -0.18    121.77   
    45. A(C   9,C  10,H  15)          120.18  0.000564   -0.10    120.07   
    46. D(C   2,C   1,C   0,H  11)     -0.21  0.000001    0.03     -0.18   
    47. D(C   5,C   1,C   0,N   8)     -0.01 -0.000058    0.11      0.10   
    48. D(C   5,C   1,C   0,H  11)   -179.90  0.000001   -0.00   -179.91   
    49. D(C   2,C   1,C   0,N   8)    179.69 -0.000058    0.14    179.82   
    50. D(S   3,C   2,C   1,C   5)      0.05  0.000051   -0.11     -0.06   
    51. D(S   3,C   2,C   1,C   0)   -179.66  0.000056   -0.13   -179.79   
    52. D(H  12,C   2,C   1,C   0)      0.23 -0.000021    0.04      0.27   
    53. D(H  12,C   2,C   1,C   5)    179.94 -0.000026    0.07    180.00   
    54. D(C   4,S   3,C   2,H  12)   -179.90  0.000045   -0.12   -180.02   
    55. D(C   4,S   3,C   2,C   1)     -0.00 -0.000025    0.03      0.03   
    56. D(H  13,C   4,S   3,C   2)    179.90 -0.000021    0.05    179.95   
    57. D(C   5,C   4,S   3,C   2)     -0.05 -0.000012    0.05      0.01   
    58. D(C   6,C   5,C   1,C   0)     -0.15  0.000021   -0.01     -0.16   
    59. D(C   4,C   5,C   1,C   2)     -0.08 -0.000059    0.15      0.06   
    60. D(C   4,C   5,C   1,C   0)    179.67 -0.000053    0.17    179.84   
    61. D(C   6,C   5,C   4,H  13)     -0.08 -0.000055    0.10      0.03   
    62. D(C   6,C   5,C   4,S   3)    179.87 -0.000066    0.10    179.97   
    63. D(C   1,C   5,C   4,H  13)   -179.86  0.000054   -0.12   -179.98   
    64. D(C   1,C   5,C   4,S   3)      0.08  0.000043   -0.12     -0.04   
    65. D(C   6,C   5,C   1,C   2)   -179.90  0.000015   -0.03   -179.94   
    66. D(C   9,C   6,C   5,C   4)      0.36  0.000209   -0.41     -0.05   
    67. D(C   9,C   6,C   5,C   1)   -179.86  0.000101   -0.18   -180.04   
    68. D(N   7,C   6,C   5,C   4)   -179.66  0.000202   -0.38   -180.04   
    69. D(N   7,C   6,C   5,C   1)      0.12  0.000095   -0.15     -0.03   
    70. D(N   8,N   7,C   6,C   9)   -179.93 -0.000168    0.26   -179.67   
    71. D(N   8,N   7,C   6,C   5)      0.09 -0.000162    0.23      0.32   
    72. D(C   0,N   8,N   7,C   6)     -0.27  0.000099   -0.13     -0.40   
    73. D(N   7,N   8,C   0,H  11)   -179.88 -0.000042    0.06   -179.82   
    74. D(N   7,N   8,C   0,C   1)      0.23  0.000014   -0.05      0.18   
    75. D(C  10,C   9,C   6,N   7)      4.50  0.000600   -1.48      3.02   
    76. D(C  10,C   9,C   6,C   5)   -175.51  0.000594   -1.45   -176.96   
    77. D(H  14,C   9,C   6,N   7)   -175.68  0.000452   -1.24   -176.92   
    78. D(H  14,C   9,C   6,C   5)      4.30  0.000445   -1.21      3.09   
    79. D(H  16,C  10,C   9,H  14)      0.31  0.000148   -0.20      0.11   
    80. D(H  16,C  10,C   9,C   6)   -179.88 -0.000016    0.05   -179.83   
    81. D(H  15,C  10,C   9,H  14)   -179.79  0.000223   -0.29   -180.07   
    82. D(H  15,C  10,C   9,C   6)      0.02  0.000059   -0.04     -0.02   
    ----------------------------------------------------------------------------

         *************************************************************
         *                GEOMETRY OPTIMIZATION CYCLE   2            *
         *************************************************************
---------------------------------
CARTESIAN COORDINATES (ANGSTROEM)
---------------------------------
  C      1.043875    1.305953    0.069294
  C     -0.284112    0.779282    0.069223
  C     -1.513178    1.416292    0.045603
  S     -2.794735    0.280527    0.064456
  C     -1.733868   -1.066027    0.105039
  C     -0.409672   -0.661912    0.104574
  C      0.819400   -1.417860    0.132542
  N      1.985596   -0.805298    0.124956
  N      2.098714    0.535079    0.097674
  C      0.798456   -2.887461    0.170357
  C      1.901130   -3.640494    0.256463
  H      1.225280    2.386030    0.045205
  H     -1.721290    2.484736    0.017494
  H     -2.145063   -2.073102    0.127730
  H     -0.189413   -3.353820    0.122654
  H      2.884371   -3.167691    0.302504
  H      1.852109   -4.731894    0.279834

----------------------------
CARTESIAN COORDINATES (A.U.)
----------------------------
  NO LB      ZA    FRAG     MASS         X           Y           Z
   0 C     6.0000    0    12.011    1.972637    2.467894    0.130947
   1 C     6.0000    0    12.011   -0.536893    1.472629    0.130812
   2 C     6.0000    0    12.011   -2.859492    2.676405    0.086176
[...]
 134   0.0000       1.697429        46.1894 
 135   0.0000       1.741463        47.3876 
 136   0.0000       1.770070        48.1660 
 137   0.0000       1.773433        48.2576 
 138   0.0000       1.791500        48.7492 
 139   0.0000       1.795488        48.8577 
 140   0.0000       1.820855        49.5480 
 141   0.0000       1.827779        49.7364 
 142   0.0000       1.854318        50.4586 
 143   0.0000       1.886572        51.3362 
 144   0.0000       1.891751        51.4772 
 145   0.0000       1.917774        52.1853 
 146   0.0000       1.918922        52.2165 
 147   0.0000       1.976765        53.7905 
 148   0.0000       2.001085        54.4523 
 149   0.0000       2.001600        54.4663 
 150   0.0000       2.022386        55.0319 
 151   0.0000       2.082300        56.6623 
 152   0.0000       2.085854        56.7590 
 153   0.0000       2.099963        57.1429 
 154   0.0000       2.126100        57.8541 
 155   0.0000       2.126937        57.8769 
 156   0.0000       2.164324        58.8942 
 157   0.0000       2.241977        61.0073 
 158   0.0000       2.296020        62.4779 
 159   0.0000       2.308796        62.8255 
 160   0.0000       2.317402        63.0597 
 161   0.0000       2.332352        63.4665 
 162   0.0000       2.349163        63.9240 
 163   0.0000       2.387199        64.9590 
 164   0.0000       2.396235        65.2049 
 165   0.0000       2.414368        65.6983 
 166   0.0000       2.448634        66.6307 
 167   0.0000       2.501299        68.0638 
 168   0.0000       2.526702        68.7551 
 169   0.0000       2.565790        69.8187 
 170   0.0000       2.582178        70.2646 
 171   0.0000       2.622767        71.3691 
 172   0.0000       2.678278        72.8796 
 173   0.0000       2.679913        72.9241 
 174   0.0000       2.696295        73.3699 
 175   0.0000       2.748679        74.7954 
 176   0.0000       2.760900        75.1279 
 177   0.0000       2.894171        78.7544 
 178   0.0000       2.923468        79.5516 
 179   0.0000       2.927015        79.6481 
 180   0.0000       2.957101        80.4668 
 181   0.0000       2.986376        81.2634 
 182   0.0000       3.095670        84.2375 
 183   0.0000       3.137695        85.3810 
 184   0.0000       3.222357        87.6848 
 185   0.0000       3.283597        89.3512 
 186   0.0000       3.506442        95.4151 
 187   0.0000       3.624377        98.6243 

                    ********************************
                    * MULLIKEN POPULATION ANALYSIS *
                    ********************************

-----------------------
MULLIKEN ATOMIC CHARGES
-----------------------
   0 C :    0.019951
   1 C :    0.071571
   2 C :   -0.130218
   3 S :    0.160326
   4 C :   -0.135984
   5 C :    0.072286
   6 C :    0.006153
   7 N :   -0.091188
   8 N :   -0.068973
   9 C :   -0.038132
  10 C :    0.032825
  11 H :   -0.004100
  12 H :    0.033108
  13 H :    0.030259
  14 H :   -0.027338
  15 H :    0.044419
  16 H :    0.025034
Sum of atomic charges:    0.0000000

--------------------------------
MULLIKEN REDUCED ORBITAL CHARGES
--------------------------------
  0 C s       :     3.205898  s :     3.205898
      pz      :     0.947107  p :     2.721576
      px      :     0.933344
      py      :     0.841125
      dz2     :     0.003470  d :     0.052575
      dxz     :     0.008963
      dyz     :     0.003777
      dx2y2   :     0.021508
      dxy     :     0.014857
  1 C s       :     3.062656  s :     3.062656
      pz      :     0.998367  p :     2.823289
      px      :     0.807830
      py      :     1.017092
      dz2     :     0.003355  d :     0.042483
      dxz     :     0.007437
      dyz     :     0.005669
      dx2y2   :     0.014187
      dxy     :     0.011834
  2 C s       :     3.220563  s :     3.220563
      pz      :     1.114985  p :     2.875180
      px      :     0.907924
      py      :     0.852271
      dz2     :     0.003057  d :     0.034475
      dxz     :     0.006447
      dyz     :     0.002979
      dx2y2   :     0.008789
      dxy     :     0.013203
  3 S s       :     5.836373  s :     5.836373
      pz      :     3.555196  p :     9.881418
      px      :     3.348752
      py      :     2.977471
      dz2     :     0.012759  d :     0.121883
      dxz     :     0.011713
      dyz     :     0.029537
      dx2y2   :     0.018796
      dxy     :     0.049078
  4 C s       :     3.221929  s :     3.221929
      pz      :     1.114532  p :     2.879385
      px      :     0.946362
      py      :     0.818491
      dz2     :     0.003078  d :     0.034670
      dxz     :     0.006328
      dyz     :     0.003112
      dx2y2   :     0.008357
      dxy     :     0.013795
  5 C s       :     3.083464  s :     3.083464
      pz      :     1.004220  p :     2.802905
      px      :     0.804155
      py      :     0.994530
      dz2     :     0.003328  d :     0.041345
      dxz     :     0.007453
      dyz     :     0.005197
      dx2y2   :     0.013995
      dxy     :     0.011372
  6 C s       :     3.110168  s :     3.110168
      pz      :     0.933629  p :     2.822934
      px      :     0.990525
      py      :     0.898779
      dz2     :     0.004007  d :     0.060745
      dxz     :     0.009486
      dyz     :     0.007380
      dx2y2   :     0.021336
      dxy     :     0.018536
  7 N s       :     3.546531  s :     3.546531
      pz      :     1.124023  p :     3.508030
      px      :     1.381885
      py      :     1.002122
      dz2     :     0.004204  d :     0.036627
      dxz     :     0.005133
      dyz     :     0.004945
      dx2y2   :     0.013247
      dxy     :     0.009099
  8 N s       :     3.524083  s :     3.524083
      pz      :     1.096579  p :     3.506778
      px      :     1.465013
      py      :     0.945186
      dz2     :     0.004349  d :     0.038113
      dxz     :     0.005321
      dyz     :     0.005548
      dx2y2   :     0.011331
      dxy     :     0.011565
  9 C s       :     3.177454  s :     3.177454
      pz      :     1.012264  p :     2.827441
      px      :     0.859253
      py      :     0.955923
      dz2     :     0.002485  d :     0.033237
      dxz     :     0.003335
      dyz     :     0.004384
      dx2y2   :     0.013237
      dxy     :     0.009797
 10 C s       :     3.113933  s :     3.113933
      pz      :     0.919815  p :     2.826681
      px      :     0.990118
      py      :     0.916749
      dz2     :     0.001658  d :     0.026560
      dxz     :     0.003862
      dyz     :     0.001747
      dx2y2   :     0.010765
      dxy     :     0.008528
 11 H s       :     0.983241  s :     0.983241
      pz      :     0.004020  p :     0.020859
      px      :     0.002715
      py      :     0.014125
 12 H s       :     0.943217  s :     0.943217
      pz      :     0.005478  p :     0.023675
      px      :     0.003287
      py      :     0.014909
 13 H s       :     0.946068  s :     0.946068
      pz      :     0.005543  p :     0.023672
      px      :     0.004752
      py      :     0.013377
 14 H s       :     1.004439  s :     1.004439
      pz      :     0.004760  p :     0.022899
      px      :     0.012214
      py      :     0.005925
 15 H s       :     0.931604  s :     0.931604
      pz      :     0.003974  p :     0.023977
      px      :     0.013082
      py      :     0.006922
 16 H s       :     0.951468  s :     0.951468
      pz      :     0.004646  p :     0.023498
      px      :     0.004058
      py      :     0.014793


                     *******************************
                     * LOEWDIN POPULATION ANALYSIS *
                     *******************************

----------------------
LOEWDIN ATOMIC CHARGES
----------------------
   0 C :    0.005211
   1 C :   -0.072154
   2 C :   -0.193145
   3 S :    0.507319
   4 C :   -0.194797
   5 C :   -0.063417
   6 C :    0.001884
   7 N :   -0.067995
   8 N :   -0.056051
   9 C :   -0.044754
  10 C :    0.005848
  11 H :    0.026444
  12 H :    0.031233
  13 H :    0.028526
  14 H :    0.023714
  15 H :    0.034633
  16 H :    0.027500

-------------------------------
LOEWDIN REDUCED ORBITAL CHARGES
-------------------------------
  0 C s       :     2.871152  s :     2.871152
      pz      :     0.931810  p :     2.993277
      px      :     1.029429
      py      :     1.032038
      dz2     :     0.008541  d :     0.130359
      dxz     :     0.017811
      dyz     :     0.005962
      dx2y2   :     0.057676
      dxy     :     0.040370
  1 C s       :     2.854056  s :     2.854056
      pz      :     0.987199  p :     3.104423
      px      :     1.066316
      py      :     1.050907
      dz2     :     0.008358  d :     0.113675
      dxz     :     0.015675
      dyz     :     0.011732
      dx2y2   :     0.043922
      dxy     :     0.033988
  2 C s       :     2.930437  s :     2.930437
      pz      :     1.109467  p :     3.180093
      px      :     1.032025
      py      :     1.038602
      dz2     :     0.006243  d :     0.082614
      dxz     :     0.013312
      dyz     :     0.004705
      dx2y2   :     0.023800
      dxy     :     0.034554
  3 S s       :     5.492325  s :     5.492325
      pz      :     3.503426  p :     9.850958
      px      :     3.369633
      py      :     2.977899
      dz2     :     0.016176  d :     0.149399
      dxz     :     0.010717
      dyz     :     0.036172
      dx2y2   :     0.021189
      dxy     :     0.065145
  4 C s       :     2.929332  s :     2.929332
      pz      :     1.110179  p :     3.182644
      px      :     1.047543
      py      :     1.024921
      dz2     :     0.006256  d :     0.082821
      dxz     :     0.013017
      dyz     :     0.005112
      dx2y2   :     0.022450
      dxy     :     0.035987
  5 C s       :     2.852934  s :     2.852934
      pz      :     0.992609  p :     3.098900
      px      :     1.058355
      py      :     1.047935
      dz2     :     0.008269  d :     0.111583
      dxz     :     0.015830
      dyz     :     0.010449
      dx2y2   :     0.044359
      dxy     :     0.032676
  6 C s       :     2.857356  s :     2.857356
      pz      :     0.916830  p :     2.991097
      px      :     1.034026
      py      :     1.040241
      dz2     :     0.009742  d :     0.149663
      dxz     :     0.018369
      dyz     :     0.013755
      dx2y2   :     0.058436
      dxy     :     0.049361
  7 N s       :     3.254976  s :     3.254976
      pz      :     1.125015  p :     3.736774
      px      :     1.462800
      py      :     1.148959
      dz2     :     0.008821  d :     0.076245
      dxz     :     0.006870
      dyz     :     0.008839
      dx2y2   :     0.029100
      dxy     :     0.022615
  8 N s       :     3.261832  s :     3.261832
      pz      :     1.090567  p :     3.715706
      px      :     1.526343
      py      :     1.098796
      dz2     :     0.008948  d :     0.078512
      dxz     :     0.006528
      dyz     :     0.010725
      dx2y2   :     0.026335
      dxy     :     0.025977
  9 C s       :     2.872359  s :     2.872359
      pz      :     0.984493  p :     3.084281
      px      :     1.068157
      py      :     1.031631
      dz2     :     0.006328  d :     0.088113
      dxz     :     0.006465
      dyz     :     0.009403
      dx2y2   :     0.037248
      dxy     :     0.028669
 10 C s       :     2.889169  s :     2.889169
      pz      :     0.907151  p :     3.036793
      px      :     1.082191
      py      :     1.047450
      dz2     :     0.004639  d :     0.068190
      dxz     :     0.007350
      dyz     :     0.003360
      dx2y2   :     0.029217
      dxy     :     0.023626
 11 H s       :     0.907643  s :     0.907643
      pz      :     0.013226  p :     0.065914
      px      :     0.010059
      py      :     0.042628
 12 H s       :     0.894179  s :     0.894179
      pz      :     0.017950  p :     0.074588
      px      :     0.011293
      py      :     0.045346
 13 H s       :     0.896291  s :     0.896291
      pz      :     0.018011  p :     0.075183
      px      :     0.014700
      py      :     0.042472
 14 H s       :     0.909755  s :     0.909755
      pz      :     0.014501  p :     0.066530
      px      :     0.034840
      py      :     0.017189
 15 H s       :     0.894670  s :     0.894670
      pz      :     0.012767  p :     0.070697
      px      :     0.037954
      py      :     0.019975
 16 H s       :     0.904910  s :     0.904910
      pz      :     0.013635  p :     0.067591
      px      :     0.011850
      py      :     0.042105


                      *****************************
                      * MAYER POPULATION ANALYSIS *
                      *****************************

  NA   - Mulliken gross atomic population
  ZA   - Total nuclear charge
  QA   - Mulliken gross atomic charge
  VA   - Mayer's total valence
  BVA  - Mayer's bonded valence
  FA   - Mayer's free valence

  ATOM       NA         ZA         QA         VA         BVA        FA
  0 C      5.9800     6.0000     0.0200     3.9569     3.9569    -0.0000
  1 C      5.9284     6.0000     0.0716     3.8511     3.8511     0.0000
  2 C      6.1302     6.0000    -0.1302     3.7482     3.7482     0.0000
  3 S     15.8397    16.0000     0.1603     2.6393     2.6393     0.0000
  4 C      6.1360     6.0000    -0.1360     3.7590     3.7590     0.0000
  5 C      5.9277     6.0000     0.0723     3.8495     3.8495     0.0000
  6 C      5.9938     6.0000     0.0062     4.0077     4.0077     0.0000
  7 N      7.0912     7.0000    -0.0912     3.0454     3.0454     0.0000
  8 N      7.0690     7.0000    -0.0690     3.0525     3.0525    -0.0000
  9 C      6.0381     6.0000    -0.0381     3.9980     3.9980     0.0000
 10 C      5.9672     6.0000     0.0328     3.9190     3.9190     0.0000
 11 H      1.0041     1.0000    -0.0041     0.9935     0.9935     0.0000
 12 H      0.9669     1.0000     0.0331     0.9997     0.9997     0.0000
 13 H      0.9697     1.0000     0.0303     0.9983     0.9983     0.0000
 14 H      1.0273     1.0000    -0.0273     0.9846     0.9846    -0.0000
 15 H      0.9556     1.0000     0.0444     1.0097     1.0097    -0.0000
 16 H      0.9750     1.0000     0.0250     0.9711     0.9711    -0.0000

  Mayer bond orders larger than 0.100000
B(  0-C ,  1-C ) :   1.1196 B(  0-C ,  8-N ) :   1.7450 B(  0-C , 11-H ) :   0.9883 
B(  1-C ,  2-C ) :   1.3952 B(  1-C ,  5-C ) :   1.2266 B(  2-C ,  3-S ) :   1.2226 
B(  2-C ,  4-C ) :   0.1103 B(  2-C , 12-H ) :   0.9653 B(  3-S ,  4-C ) :   1.2140 
B(  4-C ,  5-C ) :   1.4400 B(  4-C , 13-H ) :   0.9538 B(  5-C ,  6-C ) :   1.0847 
B(  6-C ,  7-N ) :   1.7141 B(  6-C ,  9-C ) :   1.0972 B(  7-N ,  8-N ) :   1.1391 
B(  9-C , 10-C ) :   1.9367 B(  9-C , 14-H ) :   0.9554 B( 10-C , 15-H ) :   0.9359 
B( 10-C , 16-H ) :   0.9404 

-------
TIMINGS
-------

Total SCF time: 0 days 0 hours 0 min 33 sec 

Total time                  ....      33.005 sec
Sum of individual times     ....      32.875 sec  ( 99.6%)

Fock matrix formation       ....      31.094 sec  ( 94.2%)
  Split-RI-J                ....       2.875 sec  (  9.2% of F)
  Chain of spheres X        ....      25.421 sec  ( 81.8% of F)
  COS-X 1 center corr.      ....       0.000 sec  (  0.0% of F)
  XC integration            ....       2.751 sec  (  8.8% of F)
    Basis function eval.    ....       1.053 sec  ( 38.3% of XC)
    Density eval.           ....       0.584 sec  ( 21.2% of XC)
    XC-Functional eval.     ....       0.208 sec  (  7.6% of XC)
    XC-Potential eval.      ....       0.806 sec  ( 29.3% of XC)
Diagonalization             ....       0.005 sec  (  0.0%)
Density matrix formation    ....       0.005 sec  (  0.0%)
Population analysis         ....       0.004 sec  (  0.0%)
Initial guess               ....       0.005 sec  (  0.0%)
Orbital Transformation      ....       0.000 sec  (  0.0%)
Orbital Orthonormalization  ....       0.003 sec  (  0.0%)
DIIS solution               ....       0.001 sec  (  0.0%)
SOSCF solution              ....       0.017 sec  (  0.1%)
Grid generation             ....       1.745 sec  (  5.3%)


-------------------------------------------------------------------------------
                          DFT DISPERSION CORRECTION                            
                                                                               
                              DFTD3 V3.1  Rev 1                                
                          USING Becke-Johnson damping                          
-------------------------------------------------------------------------------
Gaussians B3LYP functional is recognized, using regular B3LYP params
Active option DFTDOPT                   ...         4   

molecular C6(AA) [au] = 4930.089133 


            DFT-D V3
 parameters
 s6 scaling factor         :     1.0000 
 a1 scaling factor         :     0.3981 
 s8 scaling factor         :     1.9889 
 a2 scaling factor         :     4.4211 
 ad hoc parameters k1-k3   :    16.0000     1.3333    -4.0000 

 Edisp/kcal,au: -23.706825141683  -0.037779226598 
 E6   /kcal   : -10.607282879 
 E8   /kcal   : -13.099542263 
 % E8         :  55.256417443 

-------------------------   ----------------
Dispersion correction           -0.037779227
-------------------------   ----------------


-------------------------   --------------------
FINAL SINGLE POINT ENERGY      -815.705489085917
-------------------------   --------------------

                                *** OPTIMIZATION RUN DONE ***

                            ***************************************
                            *     ORCA property calculations      *
                            ***************************************

                                    ---------------------
                                    Active property flags
                                    ---------------------
   (+) Dipole Moment


------------------------------------------------------------------------------
                       ORCA ELECTRIC PROPERTIES CALCULATION
------------------------------------------------------------------------------

Dipole Moment Calculation                       ... on
Quadrupole Moment Calculation                   ... off
Polarizability Calculation                      ... off
GBWName                                         ... 741.gbw
Electron density file                           ... 741.scfp
The origin for moment calculation is the CENTER OF MASS  = (-0.265863, -0.900785  0.204967)

-------------
DIPOLE MOMENT
-------------
                                X             Y             Z
Electronic contribution:     -4.38618       5.22272      -0.22105
Nuclear contribution   :      2.66877      -5.28408       0.18873
                        -----------------------------------------
Total Dipole Moment    :     -1.71741      -0.06136      -0.03233
                        -----------------------------------------
Magnitude (a.u.)       :      1.71881
Magnitude (Debye)      :      4.36887



--------------------
Rotational spectrum 
--------------------
 
Rotational constants in cm-1:     0.060399     0.026348     0.018345 
Rotational constants in MHz :  1810.729612   789.884890   549.977130 

 Dipole components along the rotational axes: 
x,y,z [a.u.] :     1.383561    -1.019838    -0.001885 
x,y,z [Debye]:     3.516733    -2.592222    -0.004790 

 

Timings for individual modules:

Sum of individual times         ...      499.532 sec (=   8.326 min)
GTO integral calculation        ...        1.928 sec (=   0.032 min)   0.4 %
SCF iterations                  ...      401.898 sec (=   6.698 min)  80.5 %
SCF Gradient evaluation         ...       95.135 sec (=   1.586 min)  19.0 %
Geometry relaxation             ...        0.572 sec (=   0.010 min)   0.1 %
                             ****ORCA TERMINATED NORMALLY****
TOTAL RUN TIME: 0 days 0 hours 8 minutes 20 seconds 421 msec
