
                                 *****************
                                 * O   R   C   A *
                                 *****************

           --- An Ab Initio, DFT and Semiempirical electronic structure package ---

                  #######################################################
                  #                        -***-                        #
                  #          Department of theory and spectroscopy      #
                  #               Directorship: Frank Neese             #
                  #        Max Planck Institute fuer Kohlenforschung    #
                  #                Kaiser Wilhelm Platz 1               #
                  #                 D-45470 Muelheim/Ruhr               #
                  #                      Germany                        #
                  #                                                     #
                  #                  All rights reserved                #
                  #                        -***-                        #
                  #######################################################


                         Program Version 4.2.0 -  RELEASE  -


 With contributions from (in alphabetic order):
   Daniel Aravena         : Magnetic Suceptibility
   Michael Atanasov       : Ab Initio Ligand Field Theory (pilot matlab implementation)
   Alexander A. Auer      : GIAO ZORA, VPT2
   Ute Becker             : Parallelization
   Giovanni Bistoni       : ED, misc. LED, open-shell LED, HFLED
   Martin Brehm           : Molecular dynamics
   Dmytro Bykov           : SCF Hessian
   Vijay G. Chilkuri      : MRCI spin determinant printing, contributions to CSF-ICE
   Dipayan Datta          : RHF DLPNO-CCSD density
   Achintya Kumar Dutta   : EOM-CC, STEOM-CC
   Dmitry Ganyushin       : Spin-Orbit,Spin-Spin,Magnetic field MRCI
   Miquel Garcia          : C-PCM Hessian, Gaussian charge scheme
   Yang Guo               : DLPNO-NEVPT2, CIM, IAO-localization
   Andreas Hansen         : Spin unrestricted coupled pair/coupled cluster methods
   Benjamin Helmich-Paris : CASSCF linear response (MC-RPA)
   Lee Huntington         : MR-EOM, pCC
   Robert Izsak           : Overlap fitted RIJCOSX, COSX-SCS-MP3, EOM
   Christian Kollmar      : KDIIS, OOCD, Brueckner-CCSD(T), CCSD density
   Simone Kossmann        : Meta GGA functionals, TD-DFT gradient, OOMP2, MP2 Hessian
   Martin Krupicka        : AUTO-CI
   Lucas Lang             : DCDCAS
   Dagmar Lenk            : GEPOL surface, SMD
   Dimitrios Liakos       : Extrapolation schemes; Compound Job, initial MDCI parallelization
   Dimitrios Manganas     : Further ROCIS development; embedding schemes
   Dimitrios Pantazis     : SARC Basis sets
   Taras Petrenko         : DFT Hessian,TD-DFT gradient, ASA, ECA, R-Raman, ABS, FL, XAS/XES, NRVS
   Peter Pinski           : DLPNO-MP2, DLPNO-MP2 Gradient
   Christoph Reimann      : Effective Core Potentials
   Marius Retegan         : Local ZFS, SOC
   Christoph Riplinger    : Optimizer, TS searches, QM/MM, DLPNO-CCSD(T), (RO)-DLPNO pert. Triples
   Tobias Risthaus        : Range-separated hybrids, TD-DFT gradient, RPA, STAB
   Michael Roemelt        : Original ROCIS implementation
   Masaaki Saitow         : Open-shell DLPNO-CCSD energy and density
   Barbara Sandhoefer     : DKH picture change effects
   Avijit Sen             : IP-ROCIS
   Kantharuban Sivalingam : CASSCF convergence, NEVPT2, FIC-MRCI
   Bernardo de Souza      : ESD, SOC TD-DFT
   Georgi Stoychev        : AutoAux, RI-MP2 NMR
   Willem Van den Heuvel  : Paramagnetic NMR
   Boris Wezisla          : Elementary symmetry handling
   Frank Wennmohs         : Technical directorship


 We gratefully acknowledge several colleagues who have allowed us to
 interface, adapt or use parts of their codes:
   Stefan Grimme, W. Hujo, H. Kruse,             : VdW corrections, initial TS optimization,
                  C. Bannwarth                     DFT functionals, gCP, sTDA/sTD-DF
   Ed Valeev, F. Pavosevic, A. Kumar             : LibInt (2-el integral package), F12 methods
   Garnet Chan, S. Sharma, J. Yang, R. Olivares  : DMRG
   Ulf Ekstrom                                   : XCFun DFT Library
   Mihaly Kallay                                 : mrcc  (arbitrary order and MRCC methods)
   Andreas Klamt, Michael Diedenhofen            : otool_cosmo (COSMO solvation model)
   Jiri Pittner, Ondrej Demel                    : Mk-CCSD
   Frank Weinhold                                : gennbo (NPA and NBO analysis)
   Christopher J. Cramer and Donald G. Truhlar   : smd solvation model
   Lars Goerigk                                  : TD-DFT with DH, B97 family of functionals
   V. Asgeirsson, H. Jonsson                     : NEB implementation
   FAccTs GmbH                                   : IRC, NEB, NEB-TS, Multilevel, MM, QM/MM, CI optimization
   S Lehtola, MJT Oliveira, MAL Marques          : LibXC Library


 Your calculation uses the libint2 library for the computation of 2-el integrals
 For citations please refer to: http://libint.valeyev.net

 Your ORCA version has been built with support for libXC version: 4.2.3
 For citations please refer to: https://tddft.org/programs/libxc/

 This ORCA versions uses:
   CBLAS   interface :  Fast vector & matrix operations
   LAPACKE interface :  Fast linear algebra routines
   SCALAPACK package :  Parallel linear algebra routines


Your calculation utilizes the atom-pairwise dispersion correction
with the Becke-Johnson damping scheme (D3BJ)
Cite in your paper:
S.Grimme, S.Ehrlich, L.Goerigk, J Comput Chem, (2011), 32, 1456–1465 
S.Grimme, J.Antony, S.Ehrlich and H.Krieg, J.Chem.Phys., 132, (2010), 154104 
   

----- Orbital basis set information -----
Your calculation utilizes the basis: def2-SVP
   F. Weigend and R. Ahlrichs, Phys. Chem. Chem. Phys. 7, 3297 (2005).

----- AuxJ basis set information -----
Your calculation utilizes the auxiliary basis: def2/J
   F. Weigend, Phys. Chem. Chem. Phys. 8, 1057 (2006).

================================================================================
                                        WARNINGS
                       Please study these warnings very carefully!
================================================================================


WARNING: Geometry Optimization
  ===> : Switching off AutoStart
         For restart on a previous wavefunction, please use MOREAD

INFO   : the flag for use of LIBINT has been found!

================================================================================
                                       INPUT FILE
================================================================================
NAME = 823.inp
|  1> # ORCA input file
|  2> # SCF done        -37.743849475381          0.000523887636
|  3> ! B3LYP/G D3BJ Opt RIJCOSX def2-SVP def2/J
|  4> * xyz 0 1
|  5>    C       -3.07445         0.11510         0.00364
|  6>    N       -2.38365        -1.06040        -0.13461
|  7>    C       -1.06502        -0.73035        -0.06671
|  8>    N       -0.00248        -1.52242        -0.14776
|  9>    C        1.10409        -0.80144        -0.03161
| 10>    N        2.39687        -1.21187        -0.05636
| 11>    C        3.17464        -0.08059         0.11013
| 12>    N        2.46341         1.00782         0.23521
| 13>    C        1.16105         0.62455         0.15509
| 14>    N        0.08279         1.38929         0.23097
| 15>    C       -1.03672         0.69270         0.11742
| 16>    N       -2.32463         1.15674         0.15221
| 17>    C        4.61377        -0.15006         0.13780
| 18>    C        5.37696         0.92347         0.31790
| 19>    H       -4.14677         0.14714        -0.01249
| 20>    H       -2.75974        -1.98527        -0.25982
| 21>    H        2.71895        -2.15848        -0.17133
| 22>    H        5.04169        -1.13518         0.00489
| 23>    H        4.92221         1.88948         0.44978
| 24>    H        6.45067         0.86103         0.33980
| 25> *
| 26> 
| 27>                          ****END OF INPUT****
================================================================================

                       *****************************
                       * Geometry Optimization Run *
                       *****************************

Geometry optimization settings:
Update method            Update   .... BFGS
Choice of coordinates    CoordSys .... Z-matrix Internals
Initial Hessian          InHess   .... Almoef's Model

Convergence Tolerances:
Energy Change            TolE     ....  5.0000e-06 Eh
Max. Gradient            TolMAXG  ....  3.0000e-04 Eh/bohr
RMS Gradient             TolRMSG  ....  1.0000e-04 Eh/bohr
Max. Displacement        TolMAXD  ....  4.0000e-03 bohr
RMS Displacement         TolRMSD  ....  2.0000e-03 bohr
Strict Convergence                ....  False
------------------------------------------------------------------------------
                        ORCA OPTIMIZATION COORDINATE SETUP
------------------------------------------------------------------------------

The optimization will be done in new redundant internal coordinates
Making redundant internal coordinates   ...  (new redundants) done
Evaluating the initial hessian          ...  (Almloef) done
Evaluating the coordinates              ...  done
Calculating the B-matrix                .... done
Calculating the G-matrix                .... done
Diagonalizing the G-matrix              .... done
Small eigenvalue found = 1.881e-02
The first mode is                       ....   50
The number of degrees of freedom        ....   54

    -----------------------------------------------------------------
                    Redundant Internal Coordinates


    -----------------------------------------------------------------
         Definition                    Initial Value    Approx d2E/dq
    -----------------------------------------------------------------
      1. B(N   1,C   0)                  1.3704         0.601278   
      2. B(C   2,N   1)                  1.3610         0.622499   
      3. B(N   3,C   2)                  1.3278         0.703367   
      4. B(C   4,N   3)                  1.3258         0.708386   
      5. B(N   5,C   4)                  1.3566         0.632665   
      6. B(C   6,N   5)                  1.3829         0.574364   
      7. B(N   7,C   6)                  1.3062         0.761361   
      8. B(C   8,N   7)                  1.3599         0.624917   
      9. B(C   8,C   4)                  1.4393         0.521319   
     10. B(N   9,C   8)                  1.3241         0.712888   
     11. B(C  10,N   9)                  1.3234         0.714667   
     12. B(C  10,C   2)                  1.4352         0.529222   
     13. B(N  11,C  10)                  1.3694         0.603590   
     14. B(N  11,C   0)                  1.2920         0.802039   
     15. B(C  12,C   6)                  1.4411         0.517914   
     16. B(C  13,C  12)                  1.3294         0.780526   
     17. B(H  14,C   0)                  1.0729         0.383419   
     18. B(H  15,N   1)                  1.0062         0.438737   
     19. B(H  16,N   5)                  1.0065         0.438322   
     20. B(H  17,C  12)                  1.0822         0.370514   
     21. B(H  18,C  13)                  1.0758         0.379371   
     22. B(H  19,C  13)                  1.0757         0.379457   
     23. A(N  11,C   0,H  14)          123.8952         0.370410   
     24. A(N   1,C   0,H  14)          121.8627         0.352645   
     25. A(N   1,C   0,N  11)          114.2420         0.446287   
     26. A(C   0,N   1,C   2)          105.9820         0.426370   
     27. A(C   2,N   1,H  15)          126.2442         0.359761   
     28. A(C   0,N   1,H  15)          127.7738         0.357644   
     29. A(N   3,C   2,C  10)          125.7008         0.428745   
     30. A(N   1,C   2,C  10)          105.4239         0.419482   
     31. A(N   1,C   2,N   3)          128.8752         0.438560   
     32. A(C   2,N   3,C   4)          109.7651         0.448937   
     33. A(N   3,C   4,C   8)          125.6738         0.428135   
     34. A(N   5,C   4,C   8)          105.3314         0.419568   
     35. A(N   3,C   4,N   5)          128.9947         0.440409   
     36. A(C   6,N   5,H  16)          127.0959         0.354817   
     37. A(C   4,N   5,H  16)          126.2691         0.360697   
     38. A(C   4,N   5,C   6)          106.6347         0.424118   
     39. A(N   5,C   6,N   7)          112.7643         0.438461   
     40. A(N   7,C   6,C  12)          125.5987         0.433206   
     41. A(N   5,C   6,C  12)          121.6369         0.411934   
     42. A(C   6,N   7,C   8)          106.3181         0.445198   
     43. A(N   7,C   8,N   9)          127.8580         0.439933   
     44. A(C   4,C   8,N   9)          123.1906         0.428622   
     45. A(C   4,C   8,N   7)          108.9513         0.418647   
     46. A(C   8,N   9,C  10)          112.3305         0.450756   
     47. A(N   9,C  10,N  11)          127.9549         0.437383   
     48. A(C   2,C  10,N  11)          108.7059         0.417182   
     49. A(C   2,C  10,N   9)          123.3390         0.429973   
     50. A(C   0,N  11,C  10)          105.6461         0.446597   
     51. A(C  13,C  12,H  17)          121.6478         0.368827   
     52. A(C   6,C  12,H  17)          115.8739         0.344019   
     53. A(C   6,C  12,C  13)          122.4780         0.438020   
     54. A(H  18,C  13,H  19)          118.1336         0.295670   
     55. A(C  12,C  13,H  19)          121.9296         0.370341   
     56. A(C  12,C  13,H  18)          119.9366         0.370327   
     57. D(C   2,N   1,C   0,N  11)      0.0060         0.029141   
     58. D(H  15,N   1,C   0,N  11)    179.9170         0.029141   
     59. D(H  15,N   1,C   0,H  14)     -0.0666         0.029141   
     60. D(C   2,N   1,C   0,H  14)   -179.9777         0.029141   
     61. D(C  10,C   2,N   1,C   0)      0.0058         0.031398   
     62. D(N   3,C   2,N   1,C   0)    179.9656         0.031398   
     63. D(N   3,C   2,N   1,H  15)      0.0528         0.031398   
     64. D(C  10,C   2,N   1,H  15)   -179.9070         0.031398   
     65. D(C   4,N   3,C   2,N   1)   -179.9000         0.037083   
     66. D(C   4,N   3,C   2,C  10)      0.0523         0.037083   
     67. D(C   8,C   4,N   3,C   2)      0.0258         0.037666   
     68. D(N   5,C   4,N   3,C   2)    179.8878         0.037666   
     69. D(H  16,N   5,C   4,N   3)      0.0463         0.032517   
     70. D(C   6,N   5,C   4,C   8)      0.0924         0.032517   
     71. D(C   6,N   5,C   4,N   3)   -179.7914         0.032517   
     72. D(H  16,N   5,C   4,C   8)    179.9301         0.032517   
     73. D(C  12,C   6,N   5,H  16)     -0.0320         0.026427   
     74. D(C  12,C   6,N   5,C   4)    179.8040         0.026427   
     75. D(N   7,C   6,N   5,H  16)   -179.9332         0.026427   
     76. D(N   7,C   6,N   5,C   4)     -0.0972         0.026427   
     77. D(C   8,N   7,C   6,C  12)   -179.8413         0.044171   
     78. D(C   8,N   7,C   6,N   5)      0.0553         0.044171   
     79. D(N   9,C   8,N   7,C   6)    179.9219         0.028685   
     80. D(C   4,C   8,N   7,C   6)      0.0061         0.028685   
     81. D(N   9,C   8,C   4,N   5)   -179.9844         0.018536   
     82. D(N   9,C   8,C   4,N   3)     -0.0955         0.018536   
     83. D(N   7,C   8,C   4,N   5)     -0.0637         0.018536   
     84. D(N   7,C   8,C   4,N   3)    179.8251         0.018536   
     85. D(C  10,N   9,C   8,N   7)   -179.8343         0.038194   
     86. D(C  10,N   9,C   8,C   4)      0.0707         0.038194   
     87. D(N   9,C  10,C   2,N   1)    179.8876         0.019116   
     88. D(N  11,C  10,N   9,C   8)    179.8873         0.038404   
     89. D(C   2,C  10,N   9,C   8)      0.0041         0.038404   
     90. D(N  11,C  10,C   2,N   3)   -179.9766         0.019116   
     91. D(N  11,C  10,C   2,N   1)     -0.0151         0.019116   
     92. D(N   9,C  10,C   2,N   3)     -0.0738         0.019116   
     93. D(C   0,N  11,C  10,N   9)   -179.8785         0.026629   
     94. D(C   0,N  11,C  10,C   2)      0.0184         0.026629   
     95. D(C  10,N  11,C   0,H  14)    179.9679         0.049608   
     96. D(C  10,N  11,C   0,N   1)     -0.0154         0.049608   
     97. D(H  17,C  12,C   6,N   7)   -179.1731         0.018290   
     98. D(H  17,C  12,C   6,N   5)      0.9390         0.018290   
     99. D(C  13,C  12,C   6,N   7)      0.9753         0.018290   
    100. D(C  13,C  12,C   6,N   5)   -178.9126         0.018290   
    101. D(H  19,C  13,C  12,H  17)     -0.0192         0.043795   
    102. D(H  19,C  13,C  12,C   6)    179.8240         0.043795   
    103. D(H  18,C  13,C  12,H  17)   -179.8447         0.043795   
    104. D(H  18,C  13,C  12,C   6)     -0.0015         0.043795   
    -----------------------------------------------------------------

Number of atoms                         .... 20
Number of degrees of freedom            .... 104

         *************************************************************
         *                GEOMETRY OPTIMIZATION CYCLE   1            *
         *************************************************************
---------------------------------
CARTESIAN COORDINATES (ANGSTROEM)
---------------------------------
  C     -3.074450    0.115100    0.003640
  N     -2.383650   -1.060400   -0.134610
  C     -1.065020   -0.730350   -0.066710
  N     -0.002480   -1.522420   -0.147760
  C      1.104090   -0.801440   -0.031610
  N      2.396870   -1.211870   -0.056360
  C      3.174640   -0.080590    0.110130
  N      2.463410    1.007820    0.235210
  C      1.161050    0.624550    0.155090
  N      0.082790    1.389290    0.230970
  C     -1.036720    0.692700    0.117420
  N     -2.324630    1.156740    0.152210
  C      4.613770   -0.150060    0.137800
  C      5.376960    0.923470    0.317900
  H     -4.146770    0.147140   -0.012490
  H     -2.759740   -1.985270   -0.259820
  H      2.718950   -2.158480   -0.171330
  H      5.041690   -1.135180    0.004890
  H      4.922210    1.889480    0.449780
  H      6.450670    0.861030    0.339800

----------------------------
CARTESIAN COORDINATES (A.U.)
----------------------------
  NO LB      ZA    FRAG     MASS         X           Y           Z
   0 C     6.0000    0    12.011   -5.809869    0.217507    0.006879
   1 N     7.0000    0    14.007   -4.504446   -2.003866   -0.254376
   2 C     6.0000    0    12.011   -2.012596   -1.380161   -0.126064
   3 N     7.0000    0    14.007   -0.004687   -2.876957   -0.279226
   4 C     6.0000    0    12.011    2.086428   -1.514502   -0.059734
   5 N     7.0000    0    14.007    4.529428   -2.290102   -0.106505
   6 C     6.0000    0    12.011    5.999200   -0.152293    0.208116
   7 N     7.0000    0    14.007    4.655170    1.904504    0.444482
   8 C     6.0000    0    12.011    2.194067    1.180228    0.293078
   9 N     7.0000    0    14.007    0.156450    2.625378    0.436470
  10 C     6.0000    0    12.011   -1.959117    1.309013    0.221892
  11 N     7.0000    0    14.007   -4.392914    2.185922    0.287635
  12 C     6.0000    0    12.011    8.718762   -0.283572    0.260404
  13 C     6.0000    0    12.011   10.160982    1.745105    0.600744
  14 H     1.0000    0     1.008   -7.836260    0.278054   -0.023603
  15 H     1.0000    0     1.008   -5.215153   -3.751617   -0.490989
  16 H     1.0000    0     1.008    5.138071   -4.078936   -0.323767
  17 H     1.0000    0     1.008    9.527413   -2.145179    0.009241
  18 H     1.0000    0     1.008    9.301629    3.570600    0.849961
  19 H     1.0000    0     1.008   12.190000    1.627111    0.642129

--------------------------------
INTERNAL COORDINATES (ANGSTROEM)
--------------------------------
 C      0   0   0     0.000000000000     0.00000000     0.00000000
 N      1   0   0     1.370444436123     0.00000000     0.00000000
 C      2   1   0     1.361002751430   105.98196909     0.00000000
 N      3   2   1     1.327755715107   128.87524013   179.96564868
 C      4   3   2     1.325820556410   109.76512203   180.09997260
 N      5   4   3     1.356593334718   128.99466309   179.88781929
 C      6   5   4     1.382909805953   106.63470965   180.20861746
 N      7   6   5     1.306188901882   112.76429679   359.90281760
 C      8   7   6     1.359947306663   106.31812847     0.05525119
 N      9   8   7     1.324095793211   127.85797947   179.92194615
 C     10   9   8     1.323417496748   112.33051747   180.16574750
 N      1   2   3     1.292020497864   114.24204301     0.00000000
 C      7   6   5     1.441071430117   121.63687340   179.80398713
 C     13   7   6     1.329421546012   122.47804868   181.08742521
 H      1   2   3     1.072919811030   121.86274409   180.02229388
 H      2   1   3     1.006233446622   127.77377170   179.91106544
 H      6   5   4     1.006490993204   126.26913248     0.04634769
 H     13   7   6     1.082239349174   115.87394725     0.93901667
 H     14  13   7     1.075809098772   119.93663428     0.00000000
 H     14  13   7     1.075746962673   121.92958633   179.82399132

---------------------------
INTERNAL COORDINATES (A.U.)
---------------------------
 C      0   0   0     0.000000000000     0.00000000     0.00000000
 N      1   0   0     2.589764666028     0.00000000     0.00000000
 C      2   1   0     2.571922467716   105.98196909     0.00000000
 N      3   2   1     2.509094674301   128.87524013   179.96564868
 C      4   3   2     2.505437754338   109.76512203   180.09997260
 N      5   4   3     2.563589877719   128.99466309   179.88781929
 C      6   5   4     2.613320801165   106.63470965   180.20861746
 N      7   6   5     2.468339303725   112.76429679   359.90281760
 C      8   7   6     2.569927966157   106.31812847     0.05525119
 N      9   8   7     2.502178424247   127.85797947   179.92194615
 C     10   9   8     2.500896629694   112.33051747   180.16574750
 N      1   2   3     2.441564900375   114.24204301     0.00000000
 C      7   6   5     2.723230342340   121.63687340   179.80398713
 C     13   7   6     2.512242638496   122.47804868   181.08742521
 H      1   2   3     2.027524606505   121.86274409   180.02229388
 H      2   1   3     1.901505640907   127.77377170   179.91106544
 H      6   5   4     1.901992333413   126.26913248     0.04634769
 H     13   7   6     2.045135981292   115.87394725     0.93901667
 H     14  13   7     2.032984569059   119.93663428     0.00000000
 H     14  13   7     2.032867148849   121.92958633   179.82399132

---------------------
BASIS SET INFORMATION
---------------------
There are 3 groups of distinct atoms

 Group   1 Type C   : 7s4p1d contracted to 3s2p1d pattern {511/31/1}
 Group   2 Type N   : 7s4p1d contracted to 3s2p1d pattern {511/31/1}
 Group   3 Type H   : 4s1p contracted to 2s1p pattern {31/1}

Atom   0C    basis set group =>   1
Atom   1N    basis set group =>   2
Atom   2C    basis set group =>   1
Atom   3N    basis set group =>   2
Atom   4C    basis set group =>   1
Atom   5N    basis set group =>   2
Atom   6C    basis set group =>   1
Atom   7N    basis set group =>   2
Atom   8C    basis set group =>   1
Atom   9N    basis set group =>   2
Atom  10C    basis set group =>   1
Atom  11N    basis set group =>   2
Atom  12C    basis set group =>   1
Atom  13C    basis set group =>   1
Atom  14H    basis set group =>   3
Atom  15H    basis set group =>   3
Atom  16H    basis set group =>   3
Atom  17H    basis set group =>   3
Atom  18H    basis set group =>   3
Atom  19H    basis set group =>   3
---------------------------------
AUXILIARY/J BASIS SET INFORMATION
---------------------------------
There are 3 groups of distinct atoms

 Group   1 Type C   : 12s5p4d2f1g contracted to 6s4p3d1f1g pattern {711111/2111/211/2/1}
 Group   2 Type N   : 12s5p4d2f1g contracted to 6s4p3d1f1g pattern {711111/2111/211/2/1}
 Group   3 Type H   : 5s2p1d contracted to 3s1p1d pattern {311/2/1}

Atom   0C    basis set group =>   1
Atom   1N    basis set group =>   2
Atom   2C    basis set group =>   1
Atom   3N    basis set group =>   2
Atom   4C    basis set group =>   1
Atom   5N    basis set group =>   2
Atom   6C    basis set group =>   1
Atom   7N    basis set group =>   2
Atom   8C    basis set group =>   1
Atom   9N    basis set group =>   2
Atom  10C    basis set group =>   1
Atom  11N    basis set group =>   2
Atom  12C    basis set group =>   1
Atom  13C    basis set group =>   1
Atom  14H    basis set group =>   3
Atom  15H    basis set group =>   3
Atom  16H    basis set group =>   3
Atom  17H    basis set group =>   3
Atom  18H    basis set group =>   3
Atom  19H    basis set group =>   3
------------------------------------------------------------------------------
                           ORCA GTO INTEGRAL CALCULATION
                           -- RI-GTO INTEGRALS CHOSEN --
------------------------------------------------------------------------------

                         BASIS SET STATISTICS AND STARTUP INFO

Gaussian basis set:
 # of primitive gaussian shells          ...  198
 # of primitive gaussian functions       ...  378
 # of contracted shells                  ...  102
 # of contracted basis functions         ...  226
 Highest angular momentum                ...    2
 Maximum contraction depth               ...    5
Auxiliary gaussian basis set:
 # of primitive gaussian shells          ...  384
 # of primitive gaussian functions       ... 1076
 # of contracted shells                  ...  240
 # of contracted aux-basis functions     ...  752
 Highest angular momentum                ...    4
 Maximum contraction depth               ...    7
Ratio of auxiliary to basis functions    ...  3.33
Integral package used                  ... LIBINT
 One Electron integrals                  ... done
 Ordering auxiliary basis shells         ... done
 Integral threshhold             Thresh  ...  2.500e-11
 Primitive cut-off               TCut    ...  2.500e-12
 Pre-screening matrix                    ... done
 Shell pair data                         ... 
 Ordering of the shell pairs             ... done (   0.001 sec) 4352 of 5253 pairs
 Determination of significant pairs      ... done (   0.000 sec)
 Creation of shell pair data             ... done (   0.001 sec)
 Storage of shell pair data              ... done (   0.001 sec)
 Shell pair data done in (   0.002 sec)
 Computing two index integrals           ... done
 Cholesky decomposition of the V-matrix  ... done


Timings:
 Total evaluation time                   ...   0.367 sec (  0.006 min)
 One electron matrix time                ...   0.055 sec (  0.001 min) = 14.9%
 Schwartz matrix evaluation time         ...   0.232 sec (  0.004 min) = 63.2%
 Two index repulsion integral time       ...   0.027 sec (  0.000 min) =  7.3%
 Cholesky decomposition of V             ...   0.034 sec (  0.001 min) =  9.4%
 Three index repulsion integral time     ...   0.000 sec (  0.000 min) =  0.0%

-------------------------------------------------------------------------------
                                 ORCA SCF
-------------------------------------------------------------------------------

------------
SCF SETTINGS
------------
Hamiltonian:
 Density Functional     Method          .... DFT(GTOs)
 Exchange Functional    Exchange        .... B88
   X-Alpha parameter    XAlpha          ....  0.666667
   Becke's b parameter  XBeta           ....  0.004200
 Correlation Functional Correlation     .... LYP
 LDA part of GGA corr.  LDAOpt          .... VWN-3
 Gradients option       PostSCFGGA      .... off
 Hybrid DFT is turned on
   Fraction HF Exchange ScalHFX         ....  0.200000
   Scaling of DF-GGA-X  ScalDFX         ....  0.720000
   Scaling of DF-GGA-C  ScalDFC         ....  0.810000
   Scaling of DF-LDA-C  ScalLDAC        ....  1.000000
   Perturbative correction              ....  0.000000
   Density functional embedding theory  .... OFF
   NL short-range parameter             ....  4.800000
 RI-approximation to the Coulomb term is turned on
   Number of auxiliary basis functions  .... 752
   RIJ-COSX (HFX calculated with COS-X)).... on


General Settings:
 Integral files         IntName         .... 823
 Hartree-Fock type      HFTyp           .... RHF
 Total Charge           Charge          ....    0
 Multiplicity           Mult            ....    1
 Number of Electrons    NEL             ....   96
 Basis Dimension        Dim             ....  226
 Nuclear Repulsion      ENuc            ....    821.5735703917 Eh

Convergence Acceleration:
 DIIS                   CNVDIIS         .... on
   Start iteration      DIISMaxIt       ....    12
   Startup error        DIISStart       ....  0.200000
   # of expansion vecs  DIISMaxEq       ....     5
   Bias factor          DIISBfac        ....   1.050
   Max. coefficient     DIISMaxC        ....  10.000
 Newton-Raphson         CNVNR           .... off
 SOSCF                  CNVSOSCF        .... on
   Start iteration      SOSCFMaxIt      ....   150
   Startup grad/error   SOSCFStart      ....  0.003300
 Level Shifting         CNVShift        .... on
   Level shift para.    LevelShift      ....    0.2500
   Turn off err/grad.   ShiftErr        ....    0.0010
 Zerner damping         CNVZerner       .... off
 Static damping         CNVDamp         .... on
   Fraction old density DampFac         ....    0.7000
   Max. Damping (<1)    DampMax         ....    0.9800
   Min. Damping (>=0)   DampMin         ....    0.0000
   Turn off err/grad.   DampErr         ....    0.1000
 Fernandez-Rico         CNVRico         .... off

SCF Procedure:
 Maximum # iterations   MaxIter         ....   125
 SCF integral mode      SCFMode         .... Direct
   Integral package                     .... LIBINT
 Reset frequency        DirectResetFreq ....    20
 Integral Threshold     Thresh          ....  2.500e-11 Eh
 Primitive CutOff       TCut            ....  2.500e-12 Eh

Convergence Tolerance:
 Convergence Check Mode ConvCheckMode   .... Total+1el-Energy
 Convergence forced     ConvForced      .... 0
 Energy Change          TolE            ....  1.000e-08 Eh
 1-El. energy change                    ....  1.000e-05 Eh
 Orbital Gradient       TolG            ....  1.000e-05
 Orbital Rotation angle TolX            ....  1.000e-05
 DIIS Error             TolErr          ....  5.000e-07


Diagonalization of the overlap matrix:
Smallest eigenvalue                        ... 5.352e-04
Time for diagonalization                   ...    0.008 sec
Threshold for overlap eigenvalues          ... 1.000e-08
Number of eigenvalues below threshold      ... 0
Time for construction of square roots      ...    0.003 sec
Total time needed                          ...    0.011 sec

-------------------
DFT GRID GENERATION
-------------------

General Integration Accuracy     IntAcc      ...  4.340
Radial Grid Type                 RadialGrid  ... Gauss-Chebyshev
Angular Grid (max. acc.)         AngularGrid ... Lebedev-110
Angular grid pruning method      GridPruning ... 3 (G Style)
Weight generation scheme         WeightScheme... Becke
Basis function cutoff            BFCut       ...    1.0000e-11
Integration weight cutoff        WCut        ...    1.0000e-14
Grids for H and He will be reduced by one unit

# of grid points (after initial pruning)     ...  28224 (   0.0 sec)
# of grid points (after weights+screening)   ...  26063 (   0.1 sec)
nearest neighbour list constructed           ...    0.0 sec
Grid point re-assignment to atoms done       ...    0.0 sec
Grid point division into batches done        ...    0.0 sec
Reduced shell lists constructed in    0.2 sec

Total number of grid points                  ...    26063
Total number of batches                      ...      418
Average number of points per batch           ...       62
Average number of grid points per atom       ...     1303
Average number of shells per batch           ...    60.32 (59.13%)
Average number of basis functions per batch  ...   132.30 (58.54%)
Average number of large shells per batch     ...    44.19 (73.26%)
Average number of large basis fcns per batch ...    97.13 (73.42%)
Maximum spatial batch extension              ...  18.44, 21.55, 25.60 au
Average spatial batch extension              ...   3.02,  3.58,  4.60 au

Time for grid setup =    0.279 sec

------------------------------
INITIAL GUESS: MODEL POTENTIAL
------------------------------
Loading Hartree-Fock densities                     ... done
Calculating cut-offs                               ... done
Setting up the integral package                    ... done
Initializing the effective Hamiltonian             ... done
Starting the Coulomb interaction                   ... done (   0.2 sec)
Reading the grid                                   ... done
Mapping shells                                     ... done
Starting the XC term evaluation                    ... done (   0.4 sec)
  promolecular density results
     # of electrons  =     95.998559343
     EX              =    -82.490664971
     EC              =     -3.342033671
     EX+EC           =    -85.832698642
Transforming the Hamiltonian                       ... done (   0.0 sec)
Diagonalizing the Hamiltonian                      ... done (   0.0 sec)
Back transforming the eigenvectors                 ... done (   0.0 sec)
Now organizing SCF variables                       ... done
                      ------------------
                      INITIAL GUESS DONE (   0.9 sec)
                      ------------------
--------------------
COSX GRID GENERATION
--------------------

General Integration Accuracy     IntAcc      ...  3.340
Radial Grid Type                 RadialGrid  ... Gauss-Chebyshev
Angular Grid (max. acc.)         AngularGrid ... Lebedev-50
Angular grid pruning method      GridPruning ... 3 (G Style)
Weight generation scheme         WeightScheme... Becke
Basis function cutoff            BFCut       ...    1.0000e-11
Integration weight cutoff        WCut        ...    1.0000e-14
Grids for H and He will be reduced by one unit

# of grid points (after initial pruning)     ...   9956 (   0.0 sec)
# of grid points (after weights+screening)   ...   9308 (   0.0 sec)
nearest neighbour list constructed           ...    0.0 sec
Grid point re-assignment to atoms done       ...    0.0 sec
Grid point division into batches done        ...    0.0 sec
Reduced shell lists constructed in    0.1 sec

Total number of grid points                  ...     9308
Total number of batches                      ...      156
Average number of points per batch           ...       59
Average number of grid points per atom       ...      465
Average number of shells per batch           ...    64.46 (63.19%)
Average number of basis functions per batch  ...   142.69 (63.14%)
Average number of large shells per batch     ...    47.48 (73.66%)
Average number of large basis fcns per batch ...   104.94 (73.55%)
Maximum spatial batch extension              ...  15.25, 20.68, 25.72 au
Average spatial batch extension              ...   3.87,  4.83,  6.46 au

Overlap Fitting                  UseSFitting ... on
Constructing numerical overlap ... done (      0.0 sec)
Inverting numerical overlap    ... done (      0.0 sec)
Obtaining analytic overlap     ... done (      0.0 sec)
Final contraction and storage  ... done (      0.0 sec)


General Integration Accuracy     IntAcc      ...  3.670
Radial Grid Type                 RadialGrid  ... Gauss-Chebyshev
Angular Grid (max. acc.)         AngularGrid ... Lebedev-50
Angular grid pruning method      GridPruning ... 3 (G Style)
Weight generation scheme         WeightScheme... Becke
Basis function cutoff            BFCut       ...    1.0000e-11
Integration weight cutoff        WCut        ...    1.0000e-14
Grids for H and He will be reduced by one unit

# of grid points (after initial pruning)     ...  12500 (   0.0 sec)
# of grid points (after weights+screening)   ...  11661 (   0.0 sec)
nearest neighbour list constructed           ...    0.0 sec
Grid point re-assignment to atoms done       ...    0.0 sec
Grid point division into batches done        ...    0.0 sec
Reduced shell lists constructed in    0.1 sec

Total number of grid points                  ...    11661
Total number of batches                      ...      190
Average number of points per batch           ...       61
Average number of grid points per atom       ...      583
Average number of shells per batch           ...    63.50 (62.25%)
Average number of basis functions per batch  ...   140.10 (61.99%)
Average number of large shells per batch     ...    46.76 (73.64%)
Average number of large basis fcns per batch ...   103.18 (73.64%)
Maximum spatial batch extension              ...  15.60, 18.77, 32.08 au
Average spatial batch extension              ...   3.80,  4.63,  6.35 au

Overlap Fitting                  UseSFitting ... on
Constructing numerical overlap ... done (      0.1 sec)
Inverting numerical overlap    ... done (      0.0 sec)
Obtaining analytic overlap     ... done (      0.0 sec)
Final contraction and storage  ... done (      0.0 sec)


General Integration Accuracy     IntAcc      ...  4.010
Radial Grid Type                 RadialGrid  ... Gauss-Chebyshev
Angular Grid (max. acc.)         AngularGrid ... Lebedev-110
Angular grid pruning method      GridPruning ... 3 (G Style)
Weight generation scheme         WeightScheme... Becke
Basis function cutoff            BFCut       ...    1.0000e-11
Integration weight cutoff        WCut        ...    1.0000e-14
Grids for H and He will be reduced by one unit

# of grid points (after initial pruning)     ...  24560 (   0.0 sec)
# of grid points (after weights+screening)   ...  22721 (   0.1 sec)
nearest neighbour list constructed           ...    0.0 sec
Grid point re-assignment to atoms done       ...    0.0 sec
Grid point division into batches done        ...    0.0 sec
Reduced shell lists constructed in    0.3 sec

Total number of grid points                  ...    22721
Total number of batches                      ...      366
Average number of points per batch           ...       62
Average number of grid points per atom       ...     1136
Average number of shells per batch           ...    61.01 (59.82%)
Average number of basis functions per batch  ...   133.87 (59.24%)
Average number of large shells per batch     ...    44.62 (73.14%)
Average number of large basis fcns per batch ...    98.06 (73.25%)
Maximum spatial batch extension              ...  17.48, 20.28, 24.37 au
Average spatial batch extension              ...   3.19,  3.75,  4.76 au

Overlap Fitting                  UseSFitting ... on
Constructing numerical overlap ... done (      0.1 sec)
Inverting numerical overlap    ... done (      0.0 sec)
Obtaining analytic overlap     ... done (      0.0 sec)
Final contraction and storage  ... done (      0.0 sec)

Time for X-Grid setup             =    0.967 sec
--------------
SCF ITERATIONS
--------------
ITER       Energy         Delta-E        Max-DP      RMS-DP      [F,P]     Damp
               ***  Starting incremental Fock matrix formation  ***
  0   -636.1630983316   0.000000000000 0.08724248  0.00245231  0.2150192 0.7000
  1   -636.3248320358  -0.161733704219 0.05629101  0.00165197  0.0980950 0.7000
                               ***Turning on DIIS***
  2   -636.3864231343  -0.061591098485 0.07781883  0.00266042  0.0405554 0.0000
  3   -636.4828870432  -0.096463908978 0.03916264  0.00114482  0.0499156 0.0000
  4   -636.5048140880  -0.021927044760 0.01090102  0.00033381  0.0147132 0.0000
                      *** Initiating the SOSCF procedure ***
                           *** Shutting down DIIS ***
                      *** Re-Reading the Fockian *** 
                      *** Removing any level shift *** 
ITER      Energy       Delta-E        Grad      Rot      Max-DP    RMS-DP
  5   -636.50638554  -0.0015714546  0.000653  0.000653  0.002143  0.000093
               *** Restarting incremental Fock matrix formation ***
  6   -636.50643987  -0.0000543308  0.000307  0.000849  0.001938  0.000054
  7   -636.50644012  -0.0000002510  0.000456  0.000719  0.001173  0.000020
  8   -636.50644850  -0.0000083716  0.000093  0.000457  0.000466  0.000015
  9   -636.50644804   0.0000004555  0.000150  0.000290  0.000302  0.000007
 10   -636.50644888  -0.0000008395  0.000022  0.000063  0.000119  0.000003
 11   -636.50644886   0.0000000218  0.000036  0.000053  0.000089  0.000002
 12   -636.50644891  -0.0000000470  0.000007  0.000022  0.000026  0.000001
 13   -636.50644890   0.0000000078  0.000007  0.000011  0.000019  0.000001
                  ***Gradient check signals convergence***
              ***Rediagonalizing the Fockian in SOSCF/NRSCF***

               *****************************************************
               *                     SUCCESS                       *
               *           SCF CONVERGED AFTER  14 CYCLES          *
               *****************************************************

Setting up the final grid:

General Integration Accuracy     IntAcc      ...  4.670
Radial Grid Type                 RadialGrid  ... Gauss-Chebyshev
Angular Grid (max. acc.)         AngularGrid ... Lebedev-302
Angular grid pruning method      GridPruning ... 3 (G Style)
Weight generation scheme         WeightScheme... Becke
Basis function cutoff            BFCut       ...    1.0000e-11
Integration weight cutoff        WCut        ...    1.0000e-14
Grids for H and He will be reduced by one unit

# of grid points (after initial pruning)     ... 107332 (   0.1 sec)
# of grid points (after weights+screening)   ...  97563 (   0.3 sec)
nearest neighbour list constructed           ...    0.0 sec
Grid point re-assignment to atoms done       ...    0.0 sec
Grid point division into batches done        ...    0.5 sec
Reduced shell lists constructed in    1.1 sec

Total number of grid points                  ...    97563
Total number of batches                      ...     1536
Average number of points per batch           ...       63
Average number of grid points per atom       ...     4878
Average number of shells per batch           ...    54.26 (53.20%)
Average number of basis functions per batch  ...   118.09 (52.25%)
Average number of large shells per batch     ...    39.25 (72.32%)
Average number of large basis fcns per batch ...    85.64 (72.52%)
Maximum spatial batch extension              ...  19.80, 18.07, 22.94 au
Average spatial batch extension              ...   2.19,  2.40,  2.70 au

Final grid set up in    1.4 sec
Final integration                            ... done (   1.6 sec)
Change in XC energy                          ...    -0.001050251
Integrated number of electrons               ...    95.999995854
Previous integrated no of electrons          ...    95.998993687
Old exchange energy                            =    -16.654164782 Eh
New exchange energy                            =    -16.654374643 Eh
Exchange energy change after final integration =     -0.000209861 Eh
Total energy after final integration           =   -636.507709023 Eh
Final COS-X integration done in                =    10.387 sec

----------------
TOTAL SCF ENERGY
----------------

Total Energy       :         -636.50770902 Eh          -17320.25531 eV

Components:
Nuclear Repulsion  :          821.57357039 Eh           22356.15342 eV
Electronic Energy  :        -1458.08127941 Eh          -39676.40872 eV
One Electron Energy:        -2491.76664040 Eh          -67804.41740 eV
Two Electron Energy:         1033.68536098 Eh           28128.00867 eV

Virial components:
Potential Energy   :        -1267.22875196 Eh          -34483.04743 eV
Kinetic Energy     :          630.72104294 Eh           17162.79212 eV
Virial Ratio       :            2.00917468


DFT components:
N(Alpha)           :       47.999997926834 electrons
N(Beta)            :       47.999997926834 electrons
N(Total)           :       95.999995853668 electrons
E(X)               :      -66.268222606283 Eh       
E(C)               :       -4.284902519997 Eh       
E(XC)              :      -70.553125126280 Eh       
DFET-embed. en.    :        0.000000000000 Eh       

---------------
SCF CONVERGENCE
---------------

  Last Energy change         ...   -1.3148e-08  Tolerance :   1.0000e-08
  Last MAX-Density change    ...    6.2172e-15  Tolerance :   1.0000e-07
  Last RMS-Density change    ...    6.0840e-17  Tolerance :   5.0000e-09
  Last Orbital Gradient      ...    1.1056e-06  Tolerance :   1.0000e-05
  Last Orbital Rotation      ...    3.2073e-06  Tolerance :   1.0000e-05

             **** THE GBW FILE WAS UPDATED (823.gbw) ****
             **** DENSITY FILE WAS UPDATED (823.scfp) ****
             **** ENERGY FILE WAS UPDATED (823.en.tmp) ****
             **** THE GBW FILE WAS UPDATED (823.gbw) ****
             **** DENSITY FILE WAS UPDATED (823.scfp) ****
----------------
ORBITAL ENERGIES
----------------

  NO   OCC          E(Eh)            E(eV) 
   0   2.0000     -14.395893      -391.7322 
   1   2.0000     -14.394779      -391.7019 
   2   2.0000     -14.348498      -390.4425 
   3   2.0000     -14.328468      -389.8974 
   4   2.0000     -14.312075      -389.4514 
   5   2.0000     -14.309937      -389.3932 
   6   2.0000     -10.265079      -279.3270 
   7   2.0000     -10.264630      -279.3148 
   8   2.0000     -10.263180      -279.2753 
   9   2.0000     -10.261422      -279.2275 
  10   2.0000     -10.241866      -278.6953 
  11   2.0000     -10.240657      -278.6624 
  12   2.0000     -10.209297      -277.8091 
  13   2.0000     -10.200334      -277.5652 
  14   2.0000      -1.048065       -28.5193 
  15   2.0000      -1.032608       -28.0987 
  16   2.0000      -0.956073       -26.0161 
  17   2.0000      -0.937188       -25.5022 
  18   2.0000      -0.891828       -24.2679 
  19   2.0000      -0.860120       -23.4051 
  20   2.0000      -0.804521       -21.8921 
  21   2.0000      -0.743422       -20.2295 
  22   2.0000      -0.691477       -18.8160 
  23   2.0000      -0.652016       -17.7422 
  24   2.0000      -0.645040       -17.5524 
  25   2.0000      -0.625974       -17.0336 
  26   2.0000      -0.604767       -16.4565 
  27   2.0000      -0.567254       -15.4358 
  28   2.0000      -0.546426       -14.8690 
  29   2.0000      -0.540228       -14.7004 
  30   2.0000      -0.491986       -13.3876 
  31   2.0000      -0.490530       -13.3480 
  32   2.0000      -0.485930       -13.2228 
  33   2.0000      -0.470389       -12.7999 
  34   2.0000      -0.457388       -12.4462 
  35   2.0000      -0.441055       -12.0017 
  36   2.0000      -0.436012       -11.8645 
  37   2.0000      -0.382083       -10.3970 
  38   2.0000      -0.374792       -10.1986 
  39   2.0000      -0.373247       -10.1566 
  40   2.0000      -0.337529        -9.1846 
  41   2.0000      -0.316548        -8.6137 
  42   2.0000      -0.303127        -8.2485 
  43   2.0000      -0.298696        -8.1279 
  44   2.0000      -0.283323        -7.7096 
  45   2.0000      -0.252874        -6.8811 
  46   2.0000      -0.244271        -6.6469 
  47   2.0000      -0.224466        -6.1080 
  48   0.0000      -0.073993        -2.0135 
  49   0.0000      -0.022252        -0.6055 
  50   0.0000       0.018001         0.4898 
  51   0.0000       0.042268         1.1502 
  52   0.0000       0.044875         1.2211 
  53   0.0000       0.046675         1.2701 
  54   0.0000       0.082722         2.2510 
  55   0.0000       0.092334         2.5125 
  56   0.0000       0.100239         2.7276 
  57   0.0000       0.117051         3.1851 
  58   0.0000       0.146736         3.9929 
  59   0.0000       0.158135         4.3031 
  60   0.0000       0.169844         4.6217 
  61   0.0000       0.199585         5.4310 
  62   0.0000       0.201857         5.4928 
  63   0.0000       0.235578         6.4104 
  64   0.0000       0.248363         6.7583 
  65   0.0000       0.268234         7.2990 
  66   0.0000       0.271744         7.3945 
  67   0.0000       0.275516         7.4972 
  68   0.0000       0.292059         7.9473 
  69   0.0000       0.301051         8.1920 
  70   0.0000       0.322654         8.7799 
  71   0.0000       0.339404         9.2356 
  72   0.0000       0.351285         9.5590 
  73   0.0000       0.385115        10.4795 
  74   0.0000       0.394385        10.7318 
  75   0.0000       0.405383        11.0310 
  76   0.0000       0.414306        11.2739 
  77   0.0000       0.426486        11.6053 
  78   0.0000       0.438762        11.9393 
  79   0.0000       0.449464        12.2305 
  80   0.0000       0.461810        12.5665 
  81   0.0000       0.469193        12.7674 
  82   0.0000       0.481401        13.0996 
  83   0.0000       0.483888        13.1673 
  84   0.0000       0.515186        14.0189 
  85   0.0000       0.530310        14.4305 
  86   0.0000       0.535771        14.5791 
  87   0.0000       0.549183        14.9440 
  88   0.0000       0.559375        15.2214 
  89   0.0000       0.567830        15.4514 
  90   0.0000       0.571971        15.5641 
  91   0.0000       0.590986        16.0815 
  92   0.0000       0.602611        16.3979 
  93   0.0000       0.611113        16.6292 
  94   0.0000       0.638667        17.3790 
  95   0.0000       0.640592        17.4314 
  96   0.0000       0.657477        17.8908 
  97   0.0000       0.663240        18.0477 
  98   0.0000       0.665755        18.1161 
  99   0.0000       0.672533        18.3006 
 100   0.0000       0.677460        18.4346 
 101   0.0000       0.701471        19.0880 
 102   0.0000       0.720052        19.5936 
 103   0.0000       0.722532        19.6611 
 104   0.0000       0.746703        20.3188 
 105   0.0000       0.760213        20.6865 
 106   0.0000       0.776377        21.1263 
 107   0.0000       0.778864        21.1940 
 108   0.0000       0.796702        21.6794 
 109   0.0000       0.826368        22.4866 
 110   0.0000       0.832278        22.6474 
 111   0.0000       0.844617        22.9832 
 112   0.0000       0.845973        23.0201 
 113   0.0000       0.875332        23.8190 
 114   0.0000       0.879195        23.9241 
 115   0.0000       0.891038        24.2464 
 116   0.0000       0.921905        25.0863 
 117   0.0000       0.924261        25.1504 
 118   0.0000       0.932757        25.3816 
 119   0.0000       0.965290        26.2669 
 120   0.0000       1.000911        27.2362 
 121   0.0000       1.028370        27.9834 
 122   0.0000       1.078328        29.3428 
 123   0.0000       1.085661        29.5424 
 124   0.0000       1.125964        30.6390 
 125   0.0000       1.151725        31.3400 
 126   0.0000       1.167220        31.7617 
 127   0.0000       1.179712        32.1016 
 128   0.0000       1.181758        32.1573 
 129   0.0000       1.208356        32.8810 
 130   0.0000       1.209406        32.9096 
 131   0.0000       1.224484        33.3199 
 132   0.0000       1.226488        33.3744 
 133   0.0000       1.253516        34.1099 
 134   0.0000       1.274968        34.6936 
 135   0.0000       1.294487        35.2248 
 136   0.0000       1.309812        35.6418 
 137   0.0000       1.318055        35.8661 
 138   0.0000       1.320033        35.9199 
 139   0.0000       1.355080        36.8736 
 140   0.0000       1.360158        37.0118 
 141   0.0000       1.396482        38.0002 
 142   0.0000       1.411983        38.4220 
 143   0.0000       1.444872        39.3170 
 144   0.0000       1.448664        39.4201 
 145   0.0000       1.490001        40.5450 
 146   0.0000       1.498307        40.7710 
 147   0.0000       1.522574        41.4314 
 148   0.0000       1.527380        41.5621 
 149   0.0000       1.550609        42.1942 
 150   0.0000       1.596795        43.4510 
 151   0.0000       1.648467        44.8571 
 152   0.0000       1.658361        45.1263 
 153   0.0000       1.695533        46.1378 
 154   0.0000       1.699353        46.2417 
 155   0.0000       1.731447        47.1151 
 156   0.0000       1.751411        47.6583 
 157   0.0000       1.785744        48.5926 
 158   0.0000       1.810726        49.2724 
 159   0.0000       1.815442        49.4007 
 160   0.0000       1.820715        49.5442 
 161   0.0000       1.842319        50.1321 
 162   0.0000       1.847365        50.2694 
 163   0.0000       1.862865        50.6911 
 164   0.0000       1.889757        51.4229 
 165   0.0000       1.909962        51.9727 
 166   0.0000       1.911485        52.0141 
 167   0.0000       1.978173        53.8288 
 168   0.0000       1.986043        54.0430 
 169   0.0000       2.009814        54.6898 
 170   0.0000       2.013854        54.7998 
 171   0.0000       2.029410        55.2230 
 172   0.0000       2.038787        55.4782 
 173   0.0000       2.069273        56.3078 
 174   0.0000       2.079040        56.5735 
 175   0.0000       2.099306        57.1250 
 176   0.0000       2.157945        58.7207 
 177   0.0000       2.173690        59.1491 
 178   0.0000       2.175112        59.1878 
 179   0.0000       2.183251        59.4093 
 180   0.0000       2.220815        60.4314 
 181   0.0000       2.307600        62.7930 
 182   0.0000       2.324678        63.2577 
 183   0.0000       2.331526        63.4440 
 184   0.0000       2.337404        63.6040 
 185   0.0000       2.368979        64.4632 
 186   0.0000       2.399468        65.2928 
 187   0.0000       2.427983        66.0688 
 188   0.0000       2.429643        66.1139 
 189   0.0000       2.447591        66.6023 
 190   0.0000       2.453877        66.7734 
 191   0.0000       2.477817        67.4248 
 192   0.0000       2.524130        68.6851 
 193   0.0000       2.565024        69.7978 
 194   0.0000       2.585001        70.3415 
 195   0.0000       2.586332        70.3777 
 196   0.0000       2.643502        71.9333 
 197   0.0000       2.665040        72.5194 
 198   0.0000       2.717927        73.9586 
 199   0.0000       2.737203        74.4831 
 200   0.0000       2.755482        74.9805 
 201   0.0000       2.761448        75.1428 
 202   0.0000       2.770766        75.3964 
 203   0.0000       2.777470        75.5788 
 204   0.0000       2.790339        75.9290 
 205   0.0000       2.806710        76.3744 
 206   0.0000       2.858274        77.7776 
 207   0.0000       2.861304        77.8600 
 208   0.0000       2.870626        78.1137 
 209   0.0000       2.891567        78.6835 
 210   0.0000       2.920201        79.4627 
 211   0.0000       2.923360        79.5487 
 212   0.0000       2.947330        80.2009 
 213   0.0000       2.998630        81.5969 
 214   0.0000       3.015463        82.0549 
 215   0.0000       3.066272        83.4375 
 216   0.0000       3.130813        85.1937 
 217   0.0000       3.202059        87.1324 
 218   0.0000       3.250120        88.4402 
 219   0.0000       3.268709        88.9461 
 220   0.0000       3.287815        89.4660 
 221   0.0000       3.462183        94.2108 
 222   0.0000       3.497954        95.1842 
 223   0.0000       3.533590        96.1539 
 224   0.0000       3.638238        99.0015 
 225   0.0000       3.681906       100.1898 

                    ********************************
                    * MULLIKEN POPULATION ANALYSIS *
                    ********************************

-----------------------
MULLIKEN ATOMIC CHARGES
-----------------------
   0 C :    0.114835
   1 N :   -0.055495
   2 C :   -0.029208
   3 N :   -0.013964
   4 C :   -0.024546
   5 N :   -0.039609
   6 C :    0.030041
   7 N :   -0.058904
   8 C :   -0.100441
   9 N :    0.038439
  10 C :   -0.105957
  11 N :   -0.080620
  12 C :   -0.007497
  13 C :    0.038930
  14 H :    0.011791
  15 H :    0.126713
  16 H :    0.120912
  17 H :   -0.032254
  18 H :    0.042982
  19 H :    0.023851
Sum of atomic charges:    0.0000000

--------------------------------
MULLIKEN REDUCED ORBITAL CHARGES
--------------------------------
  0 C s       :     3.098502  s :     3.098502
      pz      :     0.981558  p :     2.711238
      px      :     0.877469
      py      :     0.852210
      dz2     :     0.005313  d :     0.075425
      dxz     :     0.005701
      dyz     :     0.015775
      dx2y2   :     0.027605
      dxy     :     0.021031
  1 N s       :     3.333477  s :     3.333477
      pz      :     1.569636  p :     3.698262
      px      :     1.108697
      py      :     1.019930
      dz2     :     0.002175  d :     0.023755
      dxz     :     0.004891
      dyz     :     0.002478
      dx2y2   :     0.007114
      dxy     :     0.007098
  2 C s       :     3.064085  s :     3.064085
      pz      :     1.017053  p :     2.885047
      px      :     0.841247
      py      :     1.026747
      dz2     :     0.005829  d :     0.080076
      dxz     :     0.017309
      dyz     :     0.007152
      dx2y2   :     0.030028
      dxy     :     0.019759
  3 N s       :     3.389251  s :     3.389251
      pz      :     1.174637  p :     3.594323
      px      :     0.966360
      py      :     1.453326
      dz2     :     0.003395  d :     0.030390
      dxz     :     0.005450
      dyz     :     0.005039
      dx2y2   :     0.004289
      dxy     :     0.012217
  4 C s       :     3.070773  s :     3.070773
      pz      :     1.008267  p :     2.873210
      px      :     0.844054
      py      :     1.020889
      dz2     :     0.005821  d :     0.080564
      dxz     :     0.017853
      dyz     :     0.006917
      dx2y2   :     0.028985
      dxy     :     0.020989
  5 N s       :     3.326241  s :     3.326241
      pz      :     1.574442  p :     3.690061
      px      :     1.098946
      py      :     1.016673
      dz2     :     0.002178  d :     0.023306
      dxz     :     0.004910
      dyz     :     0.002186
      dx2y2   :     0.006835
      dxy     :     0.007196
  6 C s       :     3.052240  s :     3.052240
      pz      :     0.974653  p :     2.834279
      px      :     0.904805
      py      :     0.954821
      dz2     :     0.005795  d :     0.083440
      dxz     :     0.010769
      dyz     :     0.015214
      dx2y2   :     0.025847
      dxy     :     0.025815
  7 N s       :     3.450885  s :     3.450885
      pz      :     1.189322  p :     3.577217
      px      :     1.028477
      py      :     1.359419
      dz2     :     0.003496  d :     0.030801
      dxz     :     0.004076
      dyz     :     0.006011
      dx2y2   :     0.007954
      dxy     :     0.009264
  8 C s       :     3.105131  s :     3.105131
      pz      :     1.018972  p :     2.911861
      px      :     0.934172
      py      :     0.958717
      dz2     :     0.005401  d :     0.083449
      dxz     :     0.016085
      dyz     :     0.005884
      dx2y2   :     0.032626
      dxy     :     0.023453
  9 N s       :     3.423787  s :     3.423787
      pz      :     1.090884  p :     3.507000
      px      :     0.962188
      py      :     1.453928
      dz2     :     0.003438  d :     0.030775
      dxz     :     0.005382
      dyz     :     0.005160
      dx2y2   :     0.004274
      dxy     :     0.012521
 10 C s       :     3.103995  s :     3.103995
      pz      :     1.025929  p :     2.919366
      px      :     0.935902
      py      :     0.957534
      dz2     :     0.005415  d :     0.082596
      dxz     :     0.015403
      dyz     :     0.005937
      dx2y2   :     0.032476
      dxy     :     0.023364
 11 N s       :     3.472539  s :     3.472539
      pz      :     1.168463  p :     3.576284
      px      :     1.019560
      py      :     1.388262
      dz2     :     0.003624  d :     0.031797
      dxz     :     0.004032
      dyz     :     0.006376
      dx2y2   :     0.007449
      dxy     :     0.010316
 12 C s       :     3.147625  s :     3.147625
      pz      :     1.023164  p :     2.825240
      px      :     0.951971
      py      :     0.850106
      dz2     :     0.002679  d :     0.034631
      dxz     :     0.005270
      dyz     :     0.003597
      dx2y2   :     0.014525
      dxy     :     0.008560
 13 C s       :     3.099831  s :     3.099831
      pz      :     0.925586  p :     2.833841
      px      :     0.927173
      py      :     0.981082
      dz2     :     0.001823  d :     0.027398
      dxz     :     0.002040
      dyz     :     0.003911
      dx2y2   :     0.010989
      dxy     :     0.008635
 14 H s       :     0.966135  s :     0.966135
      pz      :     0.004690  p :     0.022074
      px      :     0.015768
      py      :     0.001616
 15 H s       :     0.829917  s :     0.829917
      pz      :     0.011569  p :     0.043370
      px      :     0.008753
      py      :     0.023048
 16 H s       :     0.835604  s :     0.835604
      pz      :     0.011501  p :     0.043484
      px      :     0.007957
      py      :     0.024026
 17 H s       :     1.008636  s :     1.008636
      pz      :     0.005032  p :     0.023618
      px      :     0.005834
      py      :     0.012753
 18 H s       :     0.932308  s :     0.932308
      pz      :     0.004405  p :     0.024709
      px      :     0.006853
      py      :     0.013451
 19 H s       :     0.951607  s :     0.951607
      pz      :     0.004858  p :     0.024542
      px      :     0.015294
      py      :     0.004390


                     *******************************
                     * LOEWDIN POPULATION ANALYSIS *
                     *******************************

----------------------
LOEWDIN ATOMIC CHARGES
----------------------
   0 C :    0.048786
   1 N :    0.059537
   2 C :   -0.012755
   3 N :   -0.099220
   4 C :   -0.007566
   5 N :    0.063872
   6 C :    0.032475
   7 N :   -0.113349
   8 C :   -0.036088
   9 N :   -0.033408
  10 C :   -0.040470
  11 N :   -0.108255
  12 C :   -0.052752
  13 C :    0.013815
  14 H :    0.018186
  15 H :    0.091762
  16 H :    0.090021
  17 H :    0.023934
  18 H :    0.034993
  19 H :    0.026481

-------------------------------
LOEWDIN REDUCED ORBITAL CHARGES
-------------------------------
  0 C s       :     2.843585  s :     2.843585
      pz      :     0.968510  p :     2.935721
      px      :     1.018649
      py      :     0.948563
      dz2     :     0.011542  d :     0.171909
      dxz     :     0.008702
      dyz     :     0.033250
      dx2y2   :     0.064462
      dxy     :     0.053953
  1 N s       :     3.032816  s :     3.032816
      pz      :     1.505213  p :     3.845938
      px      :     1.180791
      py      :     1.159934
      dz2     :     0.004379  d :     0.061709
      dxz     :     0.010112
      dyz     :     0.004536
      dx2y2   :     0.021129
      dxy     :     0.021552
  2 C s       :     2.826138  s :     2.826138
      pz      :     1.004125  p :     2.996921
      px      :     0.938911
      py      :     1.053885
      dz2     :     0.013353  d :     0.189696
      dxz     :     0.034510
      dyz     :     0.014821
      dx2y2   :     0.077471
      dxy     :     0.049541
  3 N s       :     3.210132  s :     3.210132
      pz      :     1.173619  p :     3.825530
      px      :     1.122832
      py      :     1.529079
      dz2     :     0.006854  d :     0.063558
      dxz     :     0.011889
      dyz     :     0.005603
      dx2y2   :     0.010462
      dxy     :     0.028751
  4 C s       :     2.825973  s :     2.825973
      pz      :     0.995765  p :     2.990376
      px      :     0.944715
      py      :     1.049896
      dz2     :     0.013389  d :     0.191217
      dxz     :     0.035640
      dyz     :     0.014512
      dx2y2   :     0.074670
      dxy     :     0.053005
  5 N s       :     3.031094  s :     3.031094
      pz      :     1.510587  p :     3.844191
      px      :     1.177397
      py      :     1.156206
      dz2     :     0.004435  d :     0.060843
      dxz     :     0.010106
      dyz     :     0.003958
      dx2y2   :     0.020303
      dxy     :     0.022042
  6 C s       :     2.828695  s :     2.828695
      pz      :     0.959827  p :     2.947811
      px      :     1.025910
      py      :     0.962074
      dz2     :     0.012671  d :     0.191020
      dxz     :     0.019494
      dyz     :     0.031451
      dx2y2   :     0.061726
      dxy     :     0.065678
  7 N s       :     3.225264  s :     3.225264
      pz      :     1.197101  p :     3.824731
      px      :     1.159397
      py      :     1.468234
      dz2     :     0.006972  d :     0.063355
      dxz     :     0.008850
      dyz     :     0.007426
      dx2y2   :     0.017924
      dxy     :     0.022183
  8 C s       :     2.833541  s :     2.833541
      pz      :     0.998916  p :     3.006796
      px      :     0.985465
      py      :     1.022415
      dz2     :     0.012253  d :     0.195750
      dxz     :     0.029366
      dyz     :     0.012546
      dx2y2   :     0.083247
      dxy     :     0.058337
  9 N s       :     3.216233  s :     3.216233
      pz      :     1.094110  p :     3.753787
      px      :     1.128291
      py      :     1.531385
      dz2     :     0.006884  d :     0.063388
      dxz     :     0.011624
      dyz     :     0.005770
      dx2y2   :     0.010017
      dxy     :     0.029093
 10 C s       :     2.835019  s :     2.835019
      pz      :     1.005746  p :     3.012074
      px      :     0.984291
      py      :     1.022037
      dz2     :     0.012198  d :     0.193377
      dxz     :     0.027844
      dyz     :     0.012768
      dx2y2   :     0.082304
      dxy     :     0.058263
 11 N s       :     3.232229  s :     3.232229
      pz      :     1.170828  p :     3.811307
      px      :     1.151266
      py      :     1.489213
      dz2     :     0.007085  d :     0.064719
      dxz     :     0.009112
      dyz     :     0.007785
      dx2y2   :     0.016291
      dxy     :     0.024446
 12 C s       :     2.860093  s :     2.860093
      pz      :     0.995206  p :     3.099372
      px      :     1.036137
      py      :     1.068030
      dz2     :     0.006833  d :     0.093287
      dxz     :     0.011981
      dyz     :     0.007283
      dx2y2   :     0.040678
      dxy     :     0.026512
 13 C s       :     2.874886  s :     2.874886
      pz      :     0.914364  p :     3.040625
      px      :     1.050169
      py      :     1.076092
      dz2     :     0.005092  d :     0.070675
      dxz     :     0.004119
      dyz     :     0.007914
      dx2y2   :     0.029759
      dxy     :     0.023791
 14 H s       :     0.911108  s :     0.911108
      pz      :     0.015649  p :     0.070706
      px      :     0.046491
      py      :     0.008566
 15 H s       :     0.783869  s :     0.783869
      pz      :     0.036603  p :     0.124369
      px      :     0.025028
      py      :     0.062738
 16 H s       :     0.785123  s :     0.785123
      pz      :     0.036738  p :     0.124856
      px      :     0.023083
      py      :     0.065035
 17 H s       :     0.907745  s :     0.907745
      pz      :     0.015536  p :     0.068321
      px      :     0.017144
      py      :     0.035641
 18 H s       :     0.892498  s :     0.892498
      pz      :     0.014264  p :     0.072509
      px      :     0.019744
      py      :     0.038501
 19 H s       :     0.903221  s :     0.903221
      pz      :     0.014618  p :     0.070298
      px      :     0.043141
      py      :     0.012540


                      *****************************
                      * MAYER POPULATION ANALYSIS *
                      *****************************

  NA   - Mulliken gross atomic population
  ZA   - Total nuclear charge
  QA   - Mulliken gross atomic charge
  VA   - Mayer's total valence
  BVA  - Mayer's bonded valence
  FA   - Mayer's free valence

  ATOM       NA         ZA         QA         VA         BVA        FA
  0 C      5.8852     6.0000     0.1148     4.0199     4.0199    -0.0000
  1 N      7.0555     7.0000    -0.0555     3.3888     3.3888     0.0000
  2 C      6.0292     6.0000    -0.0292     4.0800     4.0800    -0.0000
  3 N      7.0140     7.0000    -0.0140     3.1894     3.1894    -0.0000
  4 C      6.0245     6.0000    -0.0245     4.0743     4.0743    -0.0000
  5 N      7.0396     7.0000    -0.0396     3.3553     3.3553     0.0000
  6 C      5.9700     6.0000     0.0300     4.1394     4.1394     0.0000
  7 N      7.0589     7.0000    -0.0589     3.1482     3.1482     0.0000
  8 C      6.1004     6.0000    -0.1004     4.2450     4.2450    -0.0000
  9 N      6.9616     7.0000     0.0384     3.1772     3.1772    -0.0000
 10 C      6.1060     6.0000    -0.1060     4.2338     4.2338    -0.0000
 11 N      7.0806     7.0000    -0.0806     3.1589     3.1589     0.0000
 12 C      6.0075     6.0000    -0.0075     3.9801     3.9801     0.0000
 13 C      5.9611     6.0000     0.0389     3.9429     3.9429     0.0000
 14 H      0.9882     1.0000     0.0118     0.9964     0.9964     0.0000
 15 H      0.8733     1.0000     0.1267     1.0018     1.0018     0.0000
 16 H      0.8791     1.0000     0.1209     1.0051     1.0051     0.0000
 17 H      1.0323     1.0000    -0.0323     0.9863     0.9863     0.0000
 18 H      0.9570     1.0000     0.0430     1.0049     1.0049     0.0000
 19 H      0.9761     1.0000     0.0239     0.9727     0.9727     0.0000

  Mayer bond orders larger than 0.100000
B(  0-C ,  1-N ) :   1.1571 B(  0-C , 11-N ) :   1.7000 B(  0-C , 14-H ) :   0.9786 
B(  1-N ,  2-C ) :   1.2016 B(  1-N , 15-H ) :   0.9295 B(  2-C ,  3-N ) :   1.5126 
B(  2-C , 10-C ) :   1.1448 B(  3-N ,  4-C ) :   1.5278 B(  4-C ,  5-N ) :   1.1954 
B(  4-C ,  8-C ) :   1.1210 B(  5-N ,  6-C ) :   1.1452 B(  5-N , 16-H ) :   0.9204 
B(  6-C ,  7-N ) :   1.6569 B(  6-C , 12-C ) :   1.0883 B(  7-N ,  8-C ) :   1.3717 
B(  8-C ,  9-N ) :   1.5107 B(  9-N , 10-C ) :   1.5058 B( 10-C , 11-N ) :   1.3624 
B( 12-C , 13-C ) :   1.9325 B( 12-C , 17-H ) :   0.9448 B( 13-C , 18-H ) :   0.9442 
B( 13-C , 19-H ) :   0.9405 

-------
TIMINGS
-------

Total SCF time: 0 days 0 hours 1 min 37 sec 

Total time                  ....      97.293 sec
Sum of individual times     ....      97.145 sec  ( 99.8%)

Fock matrix formation       ....      93.666 sec  ( 96.3%)
  Split-RI-J                ....       8.765 sec  (  9.4% of F)
  Chain of spheres X        ....      77.230 sec  ( 82.5% of F)
  COS-X 1 center corr.      ....       0.000 sec  (  0.0% of F)
  XC integration            ....       7.617 sec  (  8.1% of F)
    Basis function eval.    ....       2.744 sec  ( 36.0% of XC)
    Density eval.           ....       1.613 sec  ( 21.2% of XC)
    XC-Functional eval.     ....       0.552 sec  (  7.2% of XC)
    XC-Potential eval.      ....       2.474 sec  ( 32.5% of XC)
Diagonalization             ....       0.055 sec  (  0.1%)
Density matrix formation    ....       0.028 sec  (  0.0%)
Population analysis         ....       0.006 sec  (  0.0%)
Initial guess               ....       0.660 sec  (  0.7%)
Orbital Transformation      ....       0.000 sec  (  0.0%)
Orbital Orthonormalization  ....       0.000 sec  (  0.0%)
DIIS solution               ....       0.014 sec  (  0.0%)
SOSCF solution              ....       0.053 sec  (  0.1%)
Grid generation             ....       2.663 sec  (  2.7%)


-------------------------------------------------------------------------------
                          DFT DISPERSION CORRECTION                            
                                                                               
                              DFTD3 V3.1  Rev 1                                
                          USING Becke-Johnson damping                          
-------------------------------------------------------------------------------
Gaussians B3LYP functional is recognized, using regular B3LYP params
Active option DFTDOPT                   ...         4   

molecular C6(AA) [au] = 5370.769159 


            DFT-D V3
 parameters
 s6 scaling factor         :     1.0000 
 a1 scaling factor         :     0.3981 
 s8 scaling factor         :     1.9889 
 a2 scaling factor         :     4.4211 
 ad hoc parameters k1-k3   :    16.0000     1.3333    -4.0000 

 Edisp/kcal,au: -24.772029226980  -0.039476737178 
 E6   /kcal   : -11.504245418 
 E8   /kcal   : -13.267783809 
 % E8         :  53.559535584 

-------------------------   ----------------
Dispersion correction           -0.039476737
-------------------------   ----------------


-------------------------   --------------------
FINAL SINGLE POINT ENERGY      -636.547185759708
-------------------------   --------------------

------------------------------------------------------------------------------
                         ORCA SCF GRADIENT CALCULATION
------------------------------------------------------------------------------

Gradient of the Kohn-Sham DFT energy:
Kohn-Sham wavefunction type      ... RKS
Hartree-Fock exchange scaling    ...    0.200
Number of operators              ...    1
Number of atoms                  ...   20
Basis set dimensions             ...  226
Integral neglect threshold       ... 2.5e-11
Integral primitive cutoff        ... 2.5e-12

Nuclear repulsion gradient       ... done
One Electron Gradient            ... done
Pre-screening matrix             ... done
RI-J gradient                    ... done
COSX-gradient                    ... done
Exchange-correlation gradient    ... done
Dispersion correction            ... done

------------------
CARTESIAN GRADIENT
------------------

   1   C   :    0.005730013   -0.000041013    0.000015056
   2   N   :    0.002467510    0.004220152    0.000446225
   3   C   :   -0.014479873    0.004514605    0.000512025
   4   N   :   -0.000091973    0.002068898    0.000182437
   5   C   :    0.015436901    0.003328556    0.000949359
   6   N   :   -0.004796309    0.001020004   -0.000038958
   7   C   :   -0.002127383    0.001014393    0.000185213
   8   N   :   -0.004306767   -0.012917856   -0.002069092
   9   C   :   -0.001275980    0.002167446    0.000081974
  10   N   :    0.000135581   -0.005195100   -0.000787759
  11   C   :    0.002637499    0.002814022    0.000248118
  12   N   :    0.000428992   -0.017844104   -0.002421290
  13   C   :    0.001049080    0.004341023    0.000040138
  14   C   :   -0.002917848   -0.000882332    0.000204772
  15   H   :    0.014042305    0.001631002    0.000507046
  16   H   :    0.002187308    0.005084216    0.000739951
  17   H   :   -0.001570141    0.005095142    0.000638392
  18   H   :   -0.005458801    0.007540419    0.000890702
  19   H   :    0.005646136   -0.010782697   -0.001331498
  20   H   :   -0.011814582    0.001738577   -0.000063922

Difference to translation invariance:
           :    0.0009216696   -0.0010846480   -0.0010711108

Norm of the cartesian gradient     ...    0.0424725044
RMS gradient                       ...    0.0054831767
MAX gradient                       ...    0.0178441037

-------
TIMINGS
-------

Total SCF gradient time            ...       20.322 sec

One electron gradient       ....       0.251 sec  (  1.2%)
Prescreening matrices       ....       0.137 sec  (  0.7%)
RI-J Coulomb gradient       ....       2.890 sec  ( 14.2%)
COSX gradient               ....      10.639 sec  ( 52.4%)
XC gradient                 ....       5.850 sec  ( 28.8%)
------------------------------------------------------------------------------
                         ORCA GEOMETRY RELAXATION STEP
------------------------------------------------------------------------------

Reading the OPT-File                    .... done
Getting information on internals        .... done
Copying old internal coords+grads       .... done
Making the new internal coordinates     .... (new redundants).... done
Validating the new internal coordinates .... (new redundants).... done
Calculating the B-matrix                .... done
Calculating the G,G- and P matrices     .... done
Transforming gradient to internals      .... done
Projecting the internal gradient        .... done
Number of atoms                         ....  20
Number of internal coordinates          .... 104
Current Energy                          ....  -636.547185760 Eh
Current gradient norm                   ....     0.042472504 Eh/bohr
Maximum allowed component of the step   ....  0.300
Current trust radius                    ....  0.300
Evaluating the initial hessian          ....  (Almloef) done
Projecting the Hessian                  .... done
Forming the augmented Hessian           .... done
Diagonalizing the augmented Hessian     .... done
Last element of RFO vector              ....  0.994040283
Lowest eigenvalues of augmented Hessian:
 -0.005117126  0.018323735  0.024371475  0.026401595  0.027522886
Length of the computed step             ....  0.109666957
The final length of the internal step   ....  0.109666957
Converting the step to cartesian space:
 Initial RMS(Int)=    0.0107537298
Transforming coordinates:
 Iter   0:  RMS(Cart)=    0.0381828737 RMS(Int)=    2.3838928730
 Iter   1:  RMS(Cart)=    0.0002604251 RMS(Int)=    0.0001139702
 Iter   2:  RMS(Cart)=    0.0000051539 RMS(Int)=    0.0000025191
 Iter   3:  RMS(Cart)=    0.0000001029 RMS(Int)=    0.0000000407
 Iter   4:  RMS(Cart)=    0.0000000021 RMS(Int)=    0.0000000014
done
Storing new coordinates                 .... done

                                .--------------------.
          ----------------------|Geometry convergence|-------------------------
          Item                value                   Tolerance       Converged
          ---------------------------------------------------------------------
          RMS gradient        0.0051691064            0.0001000000      NO
          MAX gradient        0.0155453497            0.0003000000      NO
          RMS step            0.0107537298            0.0020000000      NO
          MAX step            0.0358995104            0.0040000000      NO
          ........................................................
          Max(Bonds)      0.0190      Max(Angles)    0.53
          Max(Dihed)        1.49      Max(Improp)    0.00
          ---------------------------------------------------------------------

The optimization has not yet converged - more geometry cycles are needed


    ---------------------------------------------------------------------------
                         Redundant Internal Coordinates
                            (Angstroem and degrees)

        Definition                    Value    dE/dq     Step     New-Value
    ----------------------------------------------------------------------------
     1. B(N   1,C   0)                1.3704 -0.012504  0.0113    1.3817   
     2. B(C   2,N   1)                1.3610 -0.012946  0.0106    1.3716   
     3. B(N   3,C   2)                1.3278 -0.003077  0.0021    1.3299   
     4. B(C   4,N   3)                1.3258 -0.002830  0.0020    1.3278   
     5. B(N   5,C   4)                1.3566 -0.013472  0.0110    1.3676   
     6. B(C   6,N   5)                1.3829 -0.008847  0.0082    1.3911   
     7. B(N   7,C   6)                1.3062 -0.011692  0.0083    1.3145   
     8. B(C   8,N   7)                1.3599 -0.013517  0.0114    1.3714   
     9. B(C   8,C   4)                1.4393 -0.005153  0.0049    1.4442   
    10. B(N   9,C   8)                1.3241 -0.009566  0.0072    1.3313   
    11. B(C  10,N   9)                1.3234 -0.009584  0.0072    1.3306   
    12. B(C  10,C   2)                1.4352 -0.006076  0.0054    1.4406   
    13. B(N  11,C  10)                1.3694 -0.012877  0.0112    1.3806   
    14. B(N  11,C   0)                1.2920 -0.015545  0.0106    1.3026   
    15. B(C  12,C   6)                1.4411 -0.013736  0.0139    1.4550   
    16. B(C  13,C  12)                1.3294 -0.013494  0.0091    1.3385   
[...]
 223   0.0000       3.498299        95.1935 
 224   0.0000       3.608822        98.2010 
 225   0.0000       3.659748        99.5868 

                    ********************************
                    * MULLIKEN POPULATION ANALYSIS *
                    ********************************

-----------------------
MULLIKEN ATOMIC CHARGES
-----------------------
   0 C :    0.117828
   1 N :   -0.083915
   2 C :   -0.007811
   3 N :   -0.015647
   4 C :   -0.005601
   5 N :   -0.067346
   6 C :    0.045786
   7 N :   -0.079625
   8 C :   -0.083530
   9 N :    0.020784
  10 C :   -0.091285
  11 N :   -0.098003
  12 C :   -0.011197
  13 C :    0.017768
  14 H :    0.024753
  15 H :    0.130477
  16 H :    0.124529
  17 H :   -0.021529
  18 H :    0.051938
  19 H :    0.031625
Sum of atomic charges:    0.0000000

--------------------------------
MULLIKEN REDUCED ORBITAL CHARGES
--------------------------------
  0 C s       :     3.108144  s :     3.108144
      pz      :     0.979935  p :     2.701157
      px      :     0.877013
      py      :     0.844209
      dz2     :     0.005467  d :     0.072871
      dxz     :     0.005632
      dyz     :     0.015015
      dx2y2   :     0.026137
      dxy     :     0.020620
  1 N s       :     3.351558  s :     3.351558
      pz      :     1.567718  p :     3.709502
      px      :     1.111002
      py      :     1.030782
      dz2     :     0.002113  d :     0.022855
      dxz     :     0.004692
      dyz     :     0.002407
      dx2y2   :     0.006811
      dxy     :     0.006831
  2 C s       :     3.062764  s :     3.062764
      pz      :     1.015896  p :     2.866367
      px      :     0.831278
      py      :     1.019193
      dz2     :     0.005846  d :     0.078680
      dxz     :     0.016913
      dyz     :     0.007041
      dx2y2   :     0.029582
      dxy     :     0.019299
  3 N s       :     3.392161  s :     3.392161
      pz      :     1.178007  p :     3.593121
      px      :     0.965334
      py      :     1.449780
      dz2     :     0.003419  d :     0.030365
      dxz     :     0.005487
      dyz     :     0.005017
      dx2y2   :     0.004314
      dxy     :     0.012129
  4 C s       :     3.069729  s :     3.069729
      pz      :     1.007888  p :     2.856737
      px      :     0.834592
      py      :     1.014257
      dz2     :     0.005854  d :     0.079135
      dxz     :     0.017346
      dyz     :     0.006871
      dx2y2   :     0.028615
      dxy     :     0.020450
  5 N s       :     3.344786  s :     3.344786
      pz      :     1.573001  p :     3.700007
      px      :     1.100876
      py      :     1.026130
      dz2     :     0.002141  d :     0.022553
      dxz     :     0.004689
      dyz     :     0.002165
      dx2y2   :     0.006578
      dxy     :     0.006980
  6 C s       :     3.058258  s :     3.058258
      pz      :     0.971649  p :     2.814754
      px      :     0.902328
      py      :     0.940778
      dz2     :     0.005874  d :     0.081202
      dxz     :     0.010473
      dyz     :     0.014758
      dx2y2   :     0.025014
      dxy     :     0.025083
  7 N s       :     3.476328  s :     3.476328
      pz      :     1.192852  p :     3.573334
      px      :     1.024524
      py      :     1.355957
      dz2     :     0.003483  d :     0.029963
      dxz     :     0.003917
      dyz     :     0.005884
      dx2y2   :     0.007624
      dxy     :     0.009055
  8 C s       :     3.106093  s :     3.106093
      pz      :     1.018283  p :     2.896153
      px      :     0.923133
      py      :     0.954737
      dz2     :     0.005397  d :     0.081284
      dxz     :     0.015524
      dyz     :     0.005827
      dx2y2   :     0.031663
      dxy     :     0.022872
  9 N s       :     3.438780  s :     3.438780
      pz      :     1.092575  p :     3.510446
      px      :     0.960610
      py      :     1.457261
      dz2     :     0.003421  d :     0.029990
      dxz     :     0.005326
      dyz     :     0.004985
      dx2y2   :     0.004120
      dxy     :     0.012137
 10 C s       :     3.104755  s :     3.104755
      pz      :     1.025185  p :     2.906026
      px      :     0.925523
      py      :     0.955318
      dz2     :     0.005429  d :     0.080503
      dxz     :     0.014879
      dyz     :     0.005934
      dx2y2   :     0.031465
      dxy     :     0.022798
 11 N s       :     3.499362  s :     3.499362
      pz      :     1.170341  p :     3.567805
      px      :     1.016412
      py      :     1.381052
      dz2     :     0.003629  d :     0.030835
      dxz     :     0.003840
      dyz     :     0.006219
      dx2y2   :     0.007099
      dxy     :     0.010048
 12 C s       :     3.148626  s :     3.148626
      pz      :     1.024862  p :     2.829161
      px      :     0.943352
      py      :     0.860946
      dz2     :     0.002561  d :     0.033411
      dxz     :     0.004984
      dyz     :     0.003401
      dx2y2   :     0.014009
      dxy     :     0.008456
 13 C s       :     3.123131  s :     3.123131
      pz      :     0.923542  p :     2.832634
      px      :     0.929343
      py      :     0.979749
      dz2     :     0.001739  d :     0.026467
      dxz     :     0.001954
      dyz     :     0.003774
      dx2y2   :     0.010582
      dxy     :     0.008418
 14 H s       :     0.953734  s :     0.953734
      pz      :     0.004436  p :     0.021513
      px      :     0.015531
      py      :     0.001545
 15 H s       :     0.826711  s :     0.826711
      pz      :     0.011567  p :     0.042812
      px      :     0.008489
      py      :     0.022755
 16 H s       :     0.832512  s :     0.832512
      pz      :     0.011474  p :     0.042959
      px      :     0.007774
      py      :     0.023711
 17 H s       :     0.998491  s :     0.998491
      pz      :     0.004820  p :     0.023037
      px      :     0.005607
      py      :     0.012611
 18 H s       :     0.924288  s :     0.924288
      pz      :     0.004138  p :     0.023774
      px      :     0.006330
      py      :     0.013306
 19 H s       :     0.944739  s :     0.944739
      pz      :     0.004663  p :     0.023636
      px      :     0.014877
      py      :     0.004096


                     *******************************
                     * LOEWDIN POPULATION ANALYSIS *
                     *******************************

----------------------
LOEWDIN ATOMIC CHARGES
----------------------
   0 C :    0.052892
   1 N :    0.047734
   2 C :   -0.008134
   3 N :   -0.099167
   4 C :   -0.003008
   5 N :    0.053361
   6 C :    0.038070
   7 N :   -0.120773
   8 C :   -0.030068
   9 N :   -0.037960
  10 C :   -0.034705
  11 N :   -0.114925
  12 C :   -0.055445
  13 C :    0.007130
  14 H :    0.023279
  15 H :    0.093368
  16 H :    0.091661
  17 H :    0.026985
  18 H :    0.039348
  19 H :    0.030356

-------------------------------
LOEWDIN REDUCED ORBITAL CHARGES
-------------------------------
  0 C s       :     2.856198  s :     2.856198
      pz      :     0.969088  p :     2.926484
      px      :     1.014380
      py      :     0.943015
      dz2     :     0.011537  d :     0.164427
      dxz     :     0.008763
      dyz     :     0.031454
      dx2y2   :     0.060430
      dxy     :     0.052243
  1 N s       :     3.043726  s :     3.043726
      pz      :     1.507314  p :     3.849396
      px      :     1.179084
      py      :     1.162999
      dz2     :     0.004173  d :     0.059144
      dxz     :     0.009691
      dyz     :     0.004476
      dx2y2   :     0.020131
      dxy     :     0.020673
  2 C s       :     2.830270  s :     2.830270
      pz      :     1.004030  p :     2.991995
      px      :     0.935897
      py      :     1.052067
      dz2     :     0.013285  d :     0.185870
      dxz     :     0.033614
      dyz     :     0.014660
      dx2y2   :     0.076115
      dxy     :     0.048196
  3 N s       :     3.211017  s :     3.211017
      pz      :     1.177003  p :     3.824731
      px      :     1.122384
      py      :     1.525345
      dz2     :     0.006854  d :     0.063419
      dxz     :     0.011957
      dyz     :     0.005622
      dx2y2   :     0.010378
      dxy     :     0.028608
  4 C s       :     2.830274  s :     2.830274
      pz      :     0.996482  p :     2.985521
      px      :     0.940780
      py      :     1.048259
      dz2     :     0.013299  d :     0.187212
      dxz     :     0.034508
      dyz     :     0.014494
      dx2y2   :     0.073502
      dxy     :     0.051409
  5 N s       :     3.040626  s :     3.040626
      pz      :     1.512869  p :     3.847331
      px      :     1.175103
      py      :     1.159359
      dz2     :     0.004294  d :     0.058682
      dxz     :     0.009625
      dyz     :     0.003992
      dx2y2   :     0.019514
      dxy     :     0.021257
  6 C s       :     2.837096  s :     2.837096
      pz      :     0.959364  p :     2.940219
      px      :     1.022052
      py      :     0.958803
      dz2     :     0.012629  d :     0.184614
      dxz     :     0.018906
      dyz     :     0.030393
      dx2y2   :     0.059258
      dxy     :     0.063428
  7 N s       :     3.238185  s :     3.238185
      pz      :     1.201438  p :     3.821298
      px      :     1.154034
      py      :     1.465827
      dz2     :     0.006841  d :     0.061290
      dxz     :     0.008459
      dyz     :     0.007294
      dx2y2   :     0.017080
      dxy     :     0.021616
  8 C s       :     2.839610  s :     2.839610
      pz      :     0.999763  p :     3.000856
      px      :     0.981072
      py      :     1.020022
      dz2     :     0.012062  d :     0.189601
      dxz     :     0.028234
      dyz     :     0.012491
      dx2y2   :     0.080327
      dxy     :     0.056489
  9 N s       :     3.222124  s :     3.222124
      pz      :     1.096254  p :     3.754159
      px      :     1.125910
      py      :     1.531995
      dz2     :     0.006734  d :     0.061676
      dxz     :     0.011458
      dyz     :     0.005600
      dx2y2   :     0.009594
      dxy     :     0.028290
 10 C s       :     2.841025  s :     2.841025
      pz      :     1.006550  p :     3.006238
      px      :     0.979718
      py      :     1.019969
      dz2     :     0.012035  d :     0.187442
      dxz     :     0.026832
      dyz     :     0.012835
      dx2y2   :     0.079252
      dxy     :     0.056487
 11 N s       :     3.246520  s :     3.246520
      pz      :     1.174379  p :     3.805974
      px      :     1.146927
      py      :     1.484667
      dz2     :     0.006988  d :     0.062431
      dxz     :     0.008619
      dyz     :     0.007692
      dx2y2   :     0.015365
      dxy     :     0.023767
 12 C s       :     2.869690  s :     2.869690
      pz      :     0.995856  p :     3.096325
      px      :     1.032258
      py      :     1.068211
      dz2     :     0.006467  d :     0.089429
      dxz     :     0.011063
      dyz     :     0.006606
      dx2y2   :     0.039163
      dxy     :     0.026130
 13 C s       :     2.888259  s :     2.888259
      pz      :     0.912829  p :     3.036842
      px      :     1.047848
      py      :     1.076165
      dz2     :     0.004716  d :     0.067769
      dxz     :     0.003779
      dyz     :     0.007295
      dx2y2   :     0.028678
      dxy     :     0.023301
 14 H s       :     0.908600  s :     0.908600
      pz      :     0.014472  p :     0.068122
      px      :     0.045923
      py      :     0.007727
 15 H s       :     0.783947  s :     0.783947
      pz      :     0.036227  p :     0.122684
      px      :     0.024456
      py      :     0.062001
 16 H s       :     0.785138  s :     0.785138
      pz      :     0.036290  p :     0.123200
      px      :     0.022720
      py      :     0.064191
 17 H s       :     0.906650  s :     0.906650
      pz      :     0.014685  p :     0.066365
      px      :     0.016432
      py      :     0.035248
 18 H s       :     0.890903  s :     0.890903
      pz      :     0.013142  p :     0.069750
      px      :     0.018265
      py      :     0.038343
 19 H s       :     0.901921  s :     0.901921
      pz      :     0.013754  p :     0.067722
      px      :     0.042352
      py      :     0.011617


                      *****************************
                      * MAYER POPULATION ANALYSIS *
                      *****************************

  NA   - Mulliken gross atomic population
  ZA   - Total nuclear charge
  QA   - Mulliken gross atomic charge
  VA   - Mayer's total valence
  BVA  - Mayer's bonded valence
  FA   - Mayer's free valence

  ATOM       NA         ZA         QA         VA         BVA        FA
  0 C      5.8822     6.0000     0.1178     3.9983     3.9983    -0.0000
  1 N      7.0839     7.0000    -0.0839     3.3768     3.3768    -0.0000
  2 C      6.0078     6.0000    -0.0078     4.0674     4.0674     0.0000
  3 N      7.0156     7.0000    -0.0156     3.1867     3.1867    -0.0000
  4 C      6.0056     6.0000    -0.0056     4.0629     4.0629     0.0000
  5 N      7.0673     7.0000    -0.0673     3.3449     3.3449     0.0000
  6 C      5.9542     6.0000     0.0458     4.1151     4.1151     0.0000
  7 N      7.0796     7.0000    -0.0796     3.1285     3.1285    -0.0000
  8 C      6.0835     6.0000    -0.0835     4.2226     4.2226    -0.0000
  9 N      6.9792     7.0000     0.0208     3.1721     3.1721     0.0000
 10 C      6.0913     6.0000    -0.0913     4.2124     4.2124     0.0000
 11 N      7.0980     7.0000    -0.0980     3.1358     3.1358    -0.0000
 12 C      6.0112     6.0000    -0.0112     3.9767     3.9767     0.0000
 13 C      5.9822     6.0000     0.0178     3.9440     3.9440    -0.0000
 14 H      0.9752     1.0000     0.0248     0.9950     0.9950     0.0000
 15 H      0.8695     1.0000     0.1305     0.9995     0.9995    -0.0000
 16 H      0.8755     1.0000     0.1245     1.0029     1.0029     0.0000
 17 H      1.0215     1.0000    -0.0215     0.9866     0.9866     0.0000
 18 H      0.9481     1.0000     0.0519     1.0010     1.0010     0.0000
 19 H      0.9684     1.0000     0.0316     0.9728     0.9728    -0.0000

  Mayer bond orders larger than 0.100000
B(  0-C ,  1-N ) :   1.1533 B(  0-C , 11-N ) :   1.6890 B(  0-C , 14-H ) :   0.9753 
B(  1-N ,  2-C ) :   1.1867 B(  1-N , 15-H ) :   0.9273 B(  2-C ,  3-N ) :   1.5105 
B(  2-C , 10-C ) :   1.1457 B(  3-N ,  4-C ) :   1.5257 B(  4-C ,  5-N ) :   1.1799 
B(  4-C ,  8-C ) :   1.1239 B(  5-N ,  6-C ) :   1.1422 B(  5-N , 16-H ) :   0.9195 
B(  6-C ,  7-N ) :   1.6487 B(  6-C , 12-C ) :   1.0839 B(  7-N ,  8-C ) :   1.3535 
B(  8-C ,  9-N ) :   1.5063 B(  9-N , 10-C ) :   1.5008 B( 10-C , 11-N ) :   1.3452 
B( 12-C , 13-C ) :   1.9316 B( 12-C , 17-H ) :   0.9448 B( 13-C , 18-H ) :   0.9454 
B( 13-C , 19-H ) :   0.9403 

-------
TIMINGS
-------

Total SCF time: 0 days 0 hours 0 min 49 sec 

Total time                  ....      49.520 sec
Sum of individual times     ....      49.372 sec  ( 99.7%)

Fock matrix formation       ....      46.576 sec  ( 94.1%)
  Split-RI-J                ....       4.079 sec  (  8.8% of F)
  Chain of spheres X        ....      38.861 sec  ( 83.4% of F)
  COS-X 1 center corr.      ....       0.000 sec  (  0.0% of F)
  XC integration            ....       3.572 sec  (  7.7% of F)
    Basis function eval.    ....       1.351 sec  ( 37.8% of XC)
    Density eval.           ....       0.784 sec  ( 21.9% of XC)
    XC-Functional eval.     ....       0.275 sec  (  7.7% of XC)
    XC-Potential eval.      ....       1.038 sec  ( 29.0% of XC)
Diagonalization             ....       0.007 sec  (  0.0%)
Density matrix formation    ....       0.008 sec  (  0.0%)
Population analysis         ....       0.006 sec  (  0.0%)
Initial guess               ....       0.007 sec  (  0.0%)
Orbital Transformation      ....       0.000 sec  (  0.0%)
Orbital Orthonormalization  ....       0.005 sec  (  0.0%)
DIIS solution               ....       0.002 sec  (  0.0%)
SOSCF solution              ....       0.028 sec  (  0.1%)
Grid generation             ....       2.738 sec  (  5.5%)


-------------------------------------------------------------------------------
                          DFT DISPERSION CORRECTION                            
                                                                               
                              DFTD3 V3.1  Rev 1                                
                          USING Becke-Johnson damping                          
-------------------------------------------------------------------------------
Gaussians B3LYP functional is recognized, using regular B3LYP params
Active option DFTDOPT                   ...         4   

molecular C6(AA) [au] = 5433.820659 


            DFT-D V3
 parameters
 s6 scaling factor         :     1.0000 
 a1 scaling factor         :     0.3981 
 s8 scaling factor         :     1.9889 
 a2 scaling factor         :     4.4211 
 ad hoc parameters k1-k3   :    16.0000     1.3333    -4.0000 

 Edisp/kcal,au: -24.856217682675  -0.039610900008 
 E6   /kcal   : -11.538110679 
 E8   /kcal   : -13.318107004 
 % E8         :  53.580585647 

-------------------------   ----------------
Dispersion correction           -0.039610900
-------------------------   ----------------


-------------------------   --------------------
FINAL SINGLE POINT ENERGY      -636.550044823848
-------------------------   --------------------

                                *** OPTIMIZATION RUN DONE ***

                            ***************************************
                            *     ORCA property calculations      *
                            ***************************************

                                    ---------------------
                                    Active property flags
                                    ---------------------
   (+) Dipole Moment


------------------------------------------------------------------------------
                       ORCA ELECTRIC PROPERTIES CALCULATION
------------------------------------------------------------------------------

Dipole Moment Calculation                       ... on
Quadrupole Moment Calculation                   ... off
Polarizability Calculation                      ... off
GBWName                                         ... 823.gbw
Electron density file                           ... 823.scfp
The origin for moment calculation is the CENTER OF MASS  = ( 1.397420,  0.016222  0.162404)

-------------
DIPOLE MOMENT
-------------
                                X             Y             Z
Electronic contribution:     -7.17073      -0.19420      -0.04429
Nuclear contribution   :      7.36315      -2.30213      -0.37130
                        -----------------------------------------
Total Dipole Moment    :      0.19242      -2.49632      -0.41559
                        -----------------------------------------
Magnitude (a.u.)       :      2.53799
Magnitude (Debye)      :      6.45105



--------------------
Rotational spectrum 
--------------------
 
Rotational constants in cm-1:     0.093173     0.013359     0.011686 
Rotational constants in MHz :  2793.244019   400.486809   350.335265 

 Dipole components along the rotational axes: 
x,y,z [a.u.] :     0.075813     2.536278    -0.054048 
x,y,z [Debye]:     0.192702     6.446705    -0.137378 

 

Timings for individual modules:

Sum of individual times         ...      608.039 sec (=  10.134 min)
GTO integral calculation        ...        2.006 sec (=   0.033 min)   0.3 %
SCF iterations                  ...      486.657 sec (=   8.111 min)  80.0 %
SCF Gradient evaluation         ...      118.549 sec (=   1.976 min)  19.5 %
Geometry relaxation             ...        0.827 sec (=   0.014 min)   0.1 %
                             ****ORCA TERMINATED NORMALLY****
TOTAL RUN TIME: 0 days 0 hours 10 minutes 9 seconds 83 msec
