
                                 *****************
                                 * O   R   C   A *
                                 *****************

           --- An Ab Initio, DFT and Semiempirical electronic structure package ---

                  #######################################################
                  #                        -***-                        #
                  #          Department of theory and spectroscopy      #
                  #               Directorship: Frank Neese             #
                  #        Max Planck Institute fuer Kohlenforschung    #
                  #                Kaiser Wilhelm Platz 1               #
                  #                 D-45470 Muelheim/Ruhr               #
                  #                      Germany                        #
                  #                                                     #
                  #                  All rights reserved                #
                  #                        -***-                        #
                  #######################################################


                         Program Version 4.2.0 -  RELEASE  -


 With contributions from (in alphabetic order):
   Daniel Aravena         : Magnetic Suceptibility
   Michael Atanasov       : Ab Initio Ligand Field Theory (pilot matlab implementation)
   Alexander A. Auer      : GIAO ZORA, VPT2
   Ute Becker             : Parallelization
   Giovanni Bistoni       : ED, misc. LED, open-shell LED, HFLED
   Martin Brehm           : Molecular dynamics
   Dmytro Bykov           : SCF Hessian
   Vijay G. Chilkuri      : MRCI spin determinant printing, contributions to CSF-ICE
   Dipayan Datta          : RHF DLPNO-CCSD density
   Achintya Kumar Dutta   : EOM-CC, STEOM-CC
   Dmitry Ganyushin       : Spin-Orbit,Spin-Spin,Magnetic field MRCI
   Miquel Garcia          : C-PCM Hessian, Gaussian charge scheme
   Yang Guo               : DLPNO-NEVPT2, CIM, IAO-localization
   Andreas Hansen         : Spin unrestricted coupled pair/coupled cluster methods
   Benjamin Helmich-Paris : CASSCF linear response (MC-RPA)
   Lee Huntington         : MR-EOM, pCC
   Robert Izsak           : Overlap fitted RIJCOSX, COSX-SCS-MP3, EOM
   Christian Kollmar      : KDIIS, OOCD, Brueckner-CCSD(T), CCSD density
   Simone Kossmann        : Meta GGA functionals, TD-DFT gradient, OOMP2, MP2 Hessian
   Martin Krupicka        : AUTO-CI
   Lucas Lang             : DCDCAS
   Dagmar Lenk            : GEPOL surface, SMD
   Dimitrios Liakos       : Extrapolation schemes; Compound Job, initial MDCI parallelization
   Dimitrios Manganas     : Further ROCIS development; embedding schemes
   Dimitrios Pantazis     : SARC Basis sets
   Taras Petrenko         : DFT Hessian,TD-DFT gradient, ASA, ECA, R-Raman, ABS, FL, XAS/XES, NRVS
   Peter Pinski           : DLPNO-MP2, DLPNO-MP2 Gradient
   Christoph Reimann      : Effective Core Potentials
   Marius Retegan         : Local ZFS, SOC
   Christoph Riplinger    : Optimizer, TS searches, QM/MM, DLPNO-CCSD(T), (RO)-DLPNO pert. Triples
   Tobias Risthaus        : Range-separated hybrids, TD-DFT gradient, RPA, STAB
   Michael Roemelt        : Original ROCIS implementation
   Masaaki Saitow         : Open-shell DLPNO-CCSD energy and density
   Barbara Sandhoefer     : DKH picture change effects
   Avijit Sen             : IP-ROCIS
   Kantharuban Sivalingam : CASSCF convergence, NEVPT2, FIC-MRCI
   Bernardo de Souza      : ESD, SOC TD-DFT
   Georgi Stoychev        : AutoAux, RI-MP2 NMR
   Willem Van den Heuvel  : Paramagnetic NMR
   Boris Wezisla          : Elementary symmetry handling
   Frank Wennmohs         : Technical directorship


 We gratefully acknowledge several colleagues who have allowed us to
 interface, adapt or use parts of their codes:
   Stefan Grimme, W. Hujo, H. Kruse,             : VdW corrections, initial TS optimization,
                  C. Bannwarth                     DFT functionals, gCP, sTDA/sTD-DF
   Ed Valeev, F. Pavosevic, A. Kumar             : LibInt (2-el integral package), F12 methods
   Garnet Chan, S. Sharma, J. Yang, R. Olivares  : DMRG
   Ulf Ekstrom                                   : XCFun DFT Library
   Mihaly Kallay                                 : mrcc  (arbitrary order and MRCC methods)
   Andreas Klamt, Michael Diedenhofen            : otool_cosmo (COSMO solvation model)
   Jiri Pittner, Ondrej Demel                    : Mk-CCSD
   Frank Weinhold                                : gennbo (NPA and NBO analysis)
   Christopher J. Cramer and Donald G. Truhlar   : smd solvation model
   Lars Goerigk                                  : TD-DFT with DH, B97 family of functionals
   V. Asgeirsson, H. Jonsson                     : NEB implementation
   FAccTs GmbH                                   : IRC, NEB, NEB-TS, Multilevel, MM, QM/MM, CI optimization
   S Lehtola, MJT Oliveira, MAL Marques          : LibXC Library


 Your calculation uses the libint2 library for the computation of 2-el integrals
 For citations please refer to: http://libint.valeyev.net

 Your ORCA version has been built with support for libXC version: 4.2.3
 For citations please refer to: https://tddft.org/programs/libxc/

 This ORCA versions uses:
   CBLAS   interface :  Fast vector & matrix operations
   LAPACKE interface :  Fast linear algebra routines
   SCALAPACK package :  Parallel linear algebra routines


Your calculation utilizes the atom-pairwise dispersion correction
with the Becke-Johnson damping scheme (D3BJ)
Cite in your paper:
S.Grimme, S.Ehrlich, L.Goerigk, J Comput Chem, (2011), 32, 1456–1465 
S.Grimme, J.Antony, S.Ehrlich and H.Krieg, J.Chem.Phys., 132, (2010), 154104 
   

----- Orbital basis set information -----
Your calculation utilizes the basis: def2-SVP
   F. Weigend and R. Ahlrichs, Phys. Chem. Chem. Phys. 7, 3297 (2005).

----- AuxJ basis set information -----
Your calculation utilizes the auxiliary basis: def2/J
   F. Weigend, Phys. Chem. Chem. Phys. 8, 1057 (2006).

================================================================================
                                        WARNINGS
                       Please study these warnings very carefully!
================================================================================


WARNING: Geometry Optimization
  ===> : Switching off AutoStart
         For restart on a previous wavefunction, please use MOREAD

INFO   : the flag for use of LIBINT has been found!

================================================================================
                                       INPUT FILE
================================================================================
NAME = 885.inp
|  1> # ORCA input file
|  2> # SCF done        -45.441768567274          0.000510527811
|  3> ! B3LYP/G D3BJ Opt RIJCOSX def2-SVP def2/J
|  4> * xyz 0 1
|  5>    C       -1.66132        -0.96126         0.35851
|  6>    S       -2.74631         0.35572         0.27459
|  7>    C       -1.49170         1.47742         0.03394
|  8>    C       -0.25505         0.86602         0.01699
|  9>    C       -0.35736        -0.56153         0.20702
| 10>    C        0.84302        -1.35059         0.22043
| 11>    C        0.73498        -2.78544         0.40659
| 12>    O       -0.28944        -3.42058         0.51059
| 13>    C        2.07301        -3.58360         0.48643
| 14>    F        2.86985        -3.15442         1.48265
| 15>    F        1.84377        -4.87594         0.70490
| 16>    F        2.79391        -3.50138        -0.64720
| 17>    C        2.05197        -0.70153         0.04926
| 18>    C        2.13067         0.68768        -0.13715
| 19>    C        1.00793         1.46791        -0.15545
| 20>    H       -2.03593        -1.95151         0.51355
| 21>    H       -1.70902         2.52007        -0.08195
| 22>    H        2.97880        -1.25124         0.04824
| 23>    H        3.10352         1.13568        -0.26776
| 24>    H        1.07013         2.53597        -0.29945
| 25> *
| 26> 
| 27>                          ****END OF INPUT****
================================================================================

                       *****************************
                       * Geometry Optimization Run *
                       *****************************

Geometry optimization settings:
Update method            Update   .... BFGS
Choice of coordinates    CoordSys .... Z-matrix Internals
Initial Hessian          InHess   .... Almoef's Model

Convergence Tolerances:
Energy Change            TolE     ....  5.0000e-06 Eh
Max. Gradient            TolMAXG  ....  3.0000e-04 Eh/bohr
RMS Gradient             TolRMSG  ....  1.0000e-04 Eh/bohr
Max. Displacement        TolMAXD  ....  4.0000e-03 bohr
RMS Displacement         TolRMSD  ....  2.0000e-03 bohr
Strict Convergence                ....  False
------------------------------------------------------------------------------
                        ORCA OPTIMIZATION COORDINATE SETUP
------------------------------------------------------------------------------

The optimization will be done in new redundant internal coordinates
Making redundant internal coordinates   ...  (new redundants) done
Evaluating the initial hessian          ...  (Almloef) done
Evaluating the coordinates              ...  done
Calculating the B-matrix                .... done
Calculating the G-matrix                .... done
Diagonalizing the G-matrix              .... done
Small eigenvalue found = 1.681e-02
The first mode is                       ....   47
The number of degrees of freedom        ....   54

    -----------------------------------------------------------------
                    Redundant Internal Coordinates


    -----------------------------------------------------------------
         Definition                    Initial Value    Approx d2E/dq
    -----------------------------------------------------------------
      1. B(S   1,C   0)                  1.7084         0.522992   
      2. B(C   2,S   1)                  1.7000         0.539314   
      3. B(C   3,C   2)                  1.3796         0.649039   
      4. B(C   4,C   3)                  1.4438         0.512801   
      5. B(C   4,C   0)                  1.3722         0.666918   
      6. B(C   5,C   4)                  1.4366         0.526567   
      7. B(C   6,C   5)                  1.4509         0.499540   
      8. B(O   7,C   6)                  1.2098         1.084794   
      9. B(C   8,C   6)                  1.5601         0.334529   
     10. B(F   9,C   8)                  1.3460         0.611269   
     11. B(F  10,C   8)                  1.3306         0.646815   
     12. B(F  11,C   8)                  1.3459         0.611294   
     13. B(C  12,C   5)                  1.3828         0.641541   
     14. B(C  13,C  12)                  1.4039         0.593762   
     15. B(C  14,C   3)                  1.4097         0.581274   
     16. B(C  14,C  13)                  1.3673         0.679015   
     17. B(H  15,C   0)                  1.0700         0.387510   
     18. B(H  16,C   2)                  1.0713         0.385645   
     19. B(H  17,C  12)                  1.0776         0.376900   
     20. B(H  18,C  13)                  1.0790         0.374976   
     21. B(H  19,C  14)                  1.0795         0.374238   
     22. A(S   1,C   0,C   4)          111.9321         0.450255   
     23. A(S   1,C   0,H  15)          119.8797         0.365316   
     24. A(C   4,C   0,H  15)          128.1882         0.361795   
     25. A(C   0,S   1,C   2)           92.6881         0.457472   
     26. A(C   3,C   2,H  16)          127.7188         0.359826   
     27. A(S   1,C   2,H  16)          120.5138         0.366941   
     28. A(S   1,C   2,C   3)          111.7674         0.450546   
     29. A(C   2,C   3,C  14)          127.9793         0.432607   
     30. A(C   2,C   3,C   4)          111.9035         0.422996   
     31. A(C   4,C   3,C  14)          120.1172         0.414763   
     32. A(C   3,C   4,C   5)          119.0200         0.407556   
     33. A(C   0,C   4,C   5)          129.2706         0.427078   
     34. A(C   0,C   4,C   3)          111.7089         0.425057   
     35. A(C   6,C   5,C  12)          123.0364         0.420149   
     36. A(C   4,C   5,C  12)          118.1360         0.424122   
     37. A(C   4,C   5,C   6)          118.8271         0.405673   
     38. A(O   7,C   6,C   8)          116.9526         0.426796   
     39. A(C   5,C   6,C   8)          116.6580         0.374771   
     40. A(C   5,C   6,O   7)          126.3889         0.458886   
     41. A(F   9,C   8,F  10)          106.8683         0.426776   
     42. A(C   6,C   8,F  10)          110.9504         0.387810   
     43. A(C   6,C   8,F   9)          112.4892         0.384011   
     44. A(C   6,C   8,F  11)          112.6452         0.384014   
     45. A(F  10,C   8,F  11)          106.8521         0.426779   
     46. A(F   9,C   8,F  11)          106.6682         0.422486   
     47. A(C  13,C  12,H  17)          117.1590         0.353050   
     48. A(C   5,C  12,H  17)          120.8395         0.357716   
     49. A(C   5,C  12,C  13)          122.0006         0.433357   
     50. A(C  12,C  13,H  18)          118.5216         0.352744   
     51. A(C  12,C  13,C  14)          121.3594         0.437810   
     52. A(C  14,C  13,H  18)          120.1191         0.360876   
     53. A(C   3,C  14,C  13)          119.3665         0.436136   
     54. A(C  13,C  14,H  19)          121.2675         0.360755   
     55. A(C   3,C  14,H  19)          119.3660         0.351361   
     56. D(C   2,S   1,C   0,H  15)   -179.9698         0.005573   
     57. D(C   2,S   1,C   0,C   4)      0.0357         0.005573   
     58. D(H  16,C   2,S   1,C   0)   -179.9771         0.005845   
     59. D(C   3,C   2,S   1,C   0)     -0.0444         0.005845   
     60. D(C  14,C   3,C   2,S   1)   -179.8890         0.029324   
     61. D(C  14,C   3,C   2,H  16)      0.0377         0.029324   
     62. D(C   4,C   3,C   2,S   1)      0.0415         0.029324   
     63. D(C   4,C   3,C   2,H  16)    179.9682         0.029324   
     64. D(C   0,C   4,C   3,C  14)    179.9216         0.017924   
     65. D(C   5,C   4,C   0,H  15)     -0.2788         0.031085   
     66. D(C   0,C   4,C   3,C   2)     -0.0150         0.017924   
     67. D(C   5,C   4,C   3,C   2)   -179.7788         0.017924   
     68. D(C   5,C   4,C   0,S   1)    179.7151         0.031085   
     69. D(C   3,C   4,C   0,H  15)    179.9880         0.031085   
     70. D(C   3,C   4,C   0,S   1)     -0.0181         0.031085   
     71. D(C   5,C   4,C   3,C  14)      0.1579         0.017924   
     72. D(C  12,C   5,C   4,C   3)     -0.0015         0.018920   
     73. D(C  12,C   5,C   4,C   0)   -179.7180         0.018920   
     74. D(C   6,C   5,C   4,C   3)   -179.7672         0.018920   
     75. D(C   6,C   5,C   4,C   0)      0.5163         0.018920   
     76. D(C   8,C   6,C   5,C  12)      3.2997         0.016997   
     77. D(O   7,C   6,C   5,C  12)   -176.9938         0.016997   
     78. D(O   7,C   6,C   5,C   4)      2.7597         0.016997   
     79. D(C   8,C   6,C   5,C   4)   -176.9467         0.016997   
     80. D(F  11,C   8,C   6,O   7)    117.7851         0.008532   
     81. D(F  11,C   8,C   6,C   5)    -62.4800         0.008532   
     82. D(F  10,C   8,C   6,O   7)     -1.9561         0.008532   
     83. D(F  10,C   8,C   6,C   5)    177.7789         0.008532   
     84. D(F   9,C   8,C   6,O   7)   -121.6123         0.008532   
     85. D(F   9,C   8,C   6,C   5)     58.1227         0.008532   
     86. D(C  13,C  12,C   5,C   4)     -0.1416         0.028605   
     87. D(H  17,C  12,C   5,C   6)     -0.0146         0.028605   
     88. D(H  17,C  12,C   5,C   4)   -179.7697         0.028605   
     89. D(C  13,C  12,C   5,C   6)    179.6136         0.028605   
     90. D(H  18,C  13,C  12,H  17)     -0.2072         0.024277   
     91. D(H  18,C  13,C  12,C   5)   -179.8484         0.024277   
     92. D(C  14,C  13,C  12,H  17)    179.7719         0.024277   
     93. D(C  14,C  13,C  12,C   5)      0.1308         0.024277   
     94. D(H  19,C  14,C  13,H  18)      0.0130         0.032312   
     95. D(H  19,C  14,C  13,C  12)   -179.9657         0.032312   
     96. D(C   3,C  14,C  13,H  18)   -179.9891         0.032312   
     97. D(C   3,C  14,C  13,C  12)      0.0321         0.032312   
     98. D(H  19,C  14,C   3,C   4)    179.8247         0.023218   
     99. D(H  19,C  14,C   3,C   2)     -0.2498         0.023218   
    100. D(C  13,C  14,C   3,C   4)     -0.1731         0.023218   
    101. D(C  13,C  14,C   3,C   2)    179.7523         0.023218   
    -----------------------------------------------------------------

Number of atoms                         .... 20
Number of degrees of freedom            .... 101

         *************************************************************
         *                GEOMETRY OPTIMIZATION CYCLE   1            *
         *************************************************************
---------------------------------
CARTESIAN COORDINATES (ANGSTROEM)
---------------------------------
  C     -1.661320   -0.961260    0.358510
  S     -2.746310    0.355720    0.274590
  C     -1.491700    1.477420    0.033940
  C     -0.255050    0.866020    0.016990
  C     -0.357360   -0.561530    0.207020
  C      0.843020   -1.350590    0.220430
  C      0.734980   -2.785440    0.406590
  O     -0.289440   -3.420580    0.510590
  C      2.073010   -3.583600    0.486430
  F      2.869850   -3.154420    1.482650
  F      1.843770   -4.875940    0.704900
  F      2.793910   -3.501380   -0.647200
  C      2.051970   -0.701530    0.049260
  C      2.130670    0.687680   -0.137150
  C      1.007930    1.467910   -0.155450
  H     -2.035930   -1.951510    0.513550
  H     -1.709020    2.520070   -0.081950
  H      2.978800   -1.251240    0.048240
  H      3.103520    1.135680   -0.267760
  H      1.070130    2.535970   -0.299450

----------------------------
CARTESIAN COORDINATES (A.U.)
----------------------------
  NO LB      ZA    FRAG     MASS         X           Y           Z
   0 C     6.0000    0    12.011   -3.139440   -1.816518    0.677486
   1 S    16.0000    0    32.060   -5.189774    0.672213    0.518900
   2 C     6.0000    0    12.011   -2.818904    2.791919    0.064137
   3 C     6.0000    0    12.011   -0.481975    1.636541    0.032106
   4 C     6.0000    0    12.011   -0.675313   -1.061138    0.391211
   5 C     6.0000    0    12.011    1.593077   -2.552245    0.416552
   6 C     6.0000    0    12.011    1.388911   -5.263719    0.768344
   7 O     8.0000    0    15.999   -0.546962   -6.463959    0.964875
   8 C     6.0000    0    12.011    3.917421   -6.772023    0.919219
   9 F     9.0000    0    18.998    5.423231   -5.960990    2.801802
  10 F     9.0000    0    18.998    3.484220   -9.214191    1.332068
  11 F     9.0000    0    18.998    5.279725   -6.616649   -1.223031
  12 C     6.0000    0    12.011    3.877661   -1.325700    0.093088
  13 C     6.0000    0    12.011    4.026383    1.299527   -0.259176
  14 C     6.0000    0    12.011    1.904712    2.773948   -0.293758
  15 H     1.0000    0     1.008   -3.847350   -3.687819    0.970469
  16 H     1.0000    0     1.008   -3.229580    4.762242   -0.154863
  17 H     1.0000    0     1.008    5.629116   -2.364501    0.091160
  18 H     1.0000    0     1.008    5.864803    2.146124   -0.505993
  19 H     1.0000    0     1.008    2.022253    4.792289   -0.565878

--------------------------------
INTERNAL COORDINATES (ANGSTROEM)
--------------------------------
 C      0   0   0     0.000000000000     0.00000000     0.00000000
 S      1   0   0     1.708415109656     0.00000000     0.00000000
 C      2   1   0     1.700049871210    92.68809057     0.00000000
 C      3   2   1     1.379637809354   111.76735987   359.95564630
 C      1   2   3     1.372240858815   111.93207550     0.03571675
 C      5   1   2     1.436561051992   129.27057601   179.71512124
 C      6   5   1     1.450904100794   118.82713705     0.51633171
 O      7   6   5     1.209816166200   126.38885965     2.75974106
 C      7   6   5     1.560050669722   116.65795402   183.05326675
 F      9   7   6     1.345958300394   112.48922465    58.12266593
 F      9   7   6     1.330572355830   110.95036034   177.77886343
 F      9   7   6     1.345947218616   112.64521670   297.52002955
 C      6   5   1     1.382800837069   118.13604044   180.28201983
 C     13   6   5     1.403868513145   122.00056183   359.85844916
 C     14  13   6     1.367347377406   121.35935461     0.13075792
 H      1   2   3     1.070030427698   119.87970909   180.03020447
 H      3   2   1     1.071343780959   120.51382929   180.02291934
 H     13   6   5     1.077588035104   120.83945413   180.23028780
 H     14  13   6     1.078981044597   118.52158041   180.15164605
 H     15  14  13     1.079517023303   121.26748700   180.03425966

---------------------------
INTERNAL COORDINATES (A.U.)
---------------------------
 C      0   0   0     0.000000000000     0.00000000     0.00000000
 S      1   0   0     3.228436680302     0.00000000     0.00000000
 C      2   1   0     3.212628670594    92.68809057     0.00000000
 C      3   2   1     2.607137623683   111.76735987   359.95564630
 C      1   2   3     2.593159412936   111.93207550     0.03571675
 C      5   1   2     2.714706962922   129.27057601   179.71512124
 C      6   5   1     2.741811397083   118.82713705     0.51633171
 O      7   6   5     2.286221226509   126.38885965     2.75974106
 C      7   6   5     2.948068520815   116.65795402   183.05326675
 F      9   7   6     2.543492575423   112.48922465    58.12266593
 F      9   7   6     2.514417353886   110.95036034   177.77886343
 F      9   7   6     2.543471633897   112.64521670   297.52002955
 C      6   5   1     2.613114879818   118.13604044   180.28201983
 C     13   6   5     2.652927017879   122.00056183   359.85844916
 C     14  13   6     2.583912073233   121.35935461     0.13075792
 H      1   2   3     2.022064463312   119.87970909   180.03020447
 H      3   2   1     2.024546341293   120.51382929   180.02291934
 H     13   6   5     2.036346271537   120.83945413   180.23028780
 H     14  13   6     2.038978677981   118.52158041   180.15164605
 H     15  14  13     2.039991530948   121.26748700   180.03425966

---------------------
BASIS SET INFORMATION
---------------------
There are 5 groups of distinct atoms

 Group   1 Type C   : 7s4p1d contracted to 3s2p1d pattern {511/31/1}
 Group   2 Type S   : 10s7p1d contracted to 4s3p1d pattern {5311/511/1}
 Group   3 Type O   : 7s4p1d contracted to 3s2p1d pattern {511/31/1}
 Group   4 Type F   : 7s4p1d contracted to 3s2p1d pattern {511/31/1}
 Group   5 Type H   : 4s1p contracted to 2s1p pattern {31/1}

Atom   0C    basis set group =>   1
Atom   1S    basis set group =>   2
Atom   2C    basis set group =>   1
Atom   3C    basis set group =>   1
Atom   4C    basis set group =>   1
Atom   5C    basis set group =>   1
Atom   6C    basis set group =>   1
Atom   7O    basis set group =>   3
Atom   8C    basis set group =>   1
Atom   9F    basis set group =>   4
Atom  10F    basis set group =>   4
Atom  11F    basis set group =>   4
Atom  12C    basis set group =>   1
Atom  13C    basis set group =>   1
Atom  14C    basis set group =>   1
Atom  15H    basis set group =>   5
Atom  16H    basis set group =>   5
Atom  17H    basis set group =>   5
Atom  18H    basis set group =>   5
Atom  19H    basis set group =>   5
---------------------------------
AUXILIARY/J BASIS SET INFORMATION
---------------------------------
There are 5 groups of distinct atoms

 Group   1 Type C   : 12s5p4d2f1g contracted to 6s4p3d1f1g pattern {711111/2111/211/2/1}
 Group   2 Type S   : 14s5p5d2f1g contracted to 8s4p3d1f1g pattern {71111111/2111/311/2/1}
 Group   3 Type O   : 12s5p4d2f1g contracted to 6s4p3d1f1g pattern {711111/2111/211/2/1}
 Group   4 Type F   : 12s5p4d2f1g contracted to 6s4p3d1f1g pattern {711111/2111/211/2/1}
 Group   5 Type H   : 5s2p1d contracted to 3s1p1d pattern {311/2/1}

Atom   0C    basis set group =>   1
Atom   1S    basis set group =>   2
Atom   2C    basis set group =>   1
Atom   3C    basis set group =>   1
Atom   4C    basis set group =>   1
Atom   5C    basis set group =>   1
Atom   6C    basis set group =>   1
Atom   7O    basis set group =>   3
Atom   8C    basis set group =>   1
Atom   9F    basis set group =>   4
Atom  10F    basis set group =>   4
Atom  11F    basis set group =>   4
Atom  12C    basis set group =>   1
Atom  13C    basis set group =>   1
Atom  14C    basis set group =>   1
Atom  15H    basis set group =>   5
Atom  16H    basis set group =>   5
Atom  17H    basis set group =>   5
Atom  18H    basis set group =>   5
Atom  19H    basis set group =>   5
------------------------------------------------------------------------------
                           ORCA GTO INTEGRAL CALCULATION
                           -- RI-GTO INTEGRALS CHOSEN --
------------------------------------------------------------------------------

                         BASIS SET STATISTICS AND STARTUP INFO

Gaussian basis set:
 # of primitive gaussian shells          ...  211
 # of primitive gaussian functions       ...  407
 # of contracted shells                  ...  107
 # of contracted basis functions         ...  239
 Highest angular momentum                ...    2
 Maximum contraction depth               ...    5
Auxiliary gaussian basis set:
 # of primitive gaussian shells          ...  403
 # of primitive gaussian functions       ... 1137
 # of contracted shells                  ...  252
 # of contracted aux-basis functions     ...  792
 Highest angular momentum                ...    4
 Maximum contraction depth               ...    7
Ratio of auxiliary to basis functions    ...  3.31
Integral package used                  ... LIBINT
 One Electron integrals                  ... done
 Ordering auxiliary basis shells         ... done
 Integral threshhold             Thresh  ...  2.500e-11
 Primitive cut-off               TCut    ...  2.500e-12
 Pre-screening matrix                    ... done
 Shell pair data                         ... 
 Ordering of the shell pairs             ... done (   0.001 sec) 4831 of 5778 pairs
 Determination of significant pairs      ... done (   0.000 sec)
 Creation of shell pair data             ... done (   0.001 sec)
 Storage of shell pair data              ... done (   0.001 sec)
 Shell pair data done in (   0.003 sec)
 Computing two index integrals           ... done
 Cholesky decomposition of the V-matrix  ... done


Timings:
 Total evaluation time                   ...   0.183 sec (  0.003 min)
 One electron matrix time                ...   0.024 sec (  0.000 min) = 13.0%
 Schwartz matrix evaluation time         ...   0.113 sec (  0.002 min) = 61.9%
 Two index repulsion integral time       ...   0.016 sec (  0.000 min) =  8.5%
 Cholesky decomposition of V             ...   0.011 sec (  0.000 min) =  5.9%
 Three index repulsion integral time     ...   0.000 sec (  0.000 min) =  0.0%

-------------------------------------------------------------------------------
                                 ORCA SCF
-------------------------------------------------------------------------------

------------
SCF SETTINGS
------------
Hamiltonian:
 Density Functional     Method          .... DFT(GTOs)
 Exchange Functional    Exchange        .... B88
   X-Alpha parameter    XAlpha          ....  0.666667
   Becke's b parameter  XBeta           ....  0.004200
 Correlation Functional Correlation     .... LYP
 LDA part of GGA corr.  LDAOpt          .... VWN-3
 Gradients option       PostSCFGGA      .... off
 Hybrid DFT is turned on
   Fraction HF Exchange ScalHFX         ....  0.200000
   Scaling of DF-GGA-X  ScalDFX         ....  0.720000
   Scaling of DF-GGA-C  ScalDFC         ....  0.810000
   Scaling of DF-LDA-C  ScalLDAC        ....  1.000000
   Perturbative correction              ....  0.000000
   Density functional embedding theory  .... OFF
   NL short-range parameter             ....  4.800000
 RI-approximation to the Coulomb term is turned on
   Number of auxiliary basis functions  .... 792
   RIJ-COSX (HFX calculated with COS-X)).... on


General Settings:
 Integral files         IntName         .... 885
 Hartree-Fock type      HFTyp           .... RHF
 Total Charge           Charge          ....    0
 Multiplicity           Mult            ....    1
 Number of Electrons    NEL             ....  116
 Basis Dimension        Dim             ....  239
 Nuclear Repulsion      ENuc            ....   1086.6547545576 Eh

Convergence Acceleration:
 DIIS                   CNVDIIS         .... on
   Start iteration      DIISMaxIt       ....    12
   Startup error        DIISStart       ....  0.200000
   # of expansion vecs  DIISMaxEq       ....     5
   Bias factor          DIISBfac        ....   1.050
   Max. coefficient     DIISMaxC        ....  10.000
 Newton-Raphson         CNVNR           .... off
 SOSCF                  CNVSOSCF        .... on
   Start iteration      SOSCFMaxIt      ....   150
   Startup grad/error   SOSCFStart      ....  0.003300
 Level Shifting         CNVShift        .... on
   Level shift para.    LevelShift      ....    0.2500
   Turn off err/grad.   ShiftErr        ....    0.0010
 Zerner damping         CNVZerner       .... off
 Static damping         CNVDamp         .... on
   Fraction old density DampFac         ....    0.7000
   Max. Damping (<1)    DampMax         ....    0.9800
   Min. Damping (>=0)   DampMin         ....    0.0000
   Turn off err/grad.   DampErr         ....    0.1000
 Fernandez-Rico         CNVRico         .... off

SCF Procedure:
 Maximum # iterations   MaxIter         ....   125
 SCF integral mode      SCFMode         .... Direct
   Integral package                     .... LIBINT
 Reset frequency        DirectResetFreq ....    20
 Integral Threshold     Thresh          ....  2.500e-11 Eh
 Primitive CutOff       TCut            ....  2.500e-12 Eh

Convergence Tolerance:
 Convergence Check Mode ConvCheckMode   .... Total+1el-Energy
 Convergence forced     ConvForced      .... 0
 Energy Change          TolE            ....  1.000e-08 Eh
 1-El. energy change                    ....  1.000e-05 Eh
 Orbital Gradient       TolG            ....  1.000e-05
 Orbital Rotation angle TolX            ....  1.000e-05
 DIIS Error             TolErr          ....  5.000e-07


Diagonalization of the overlap matrix:
Smallest eigenvalue                        ... 2.615e-04
Time for diagonalization                   ...    0.009 sec
Threshold for overlap eigenvalues          ... 1.000e-08
Number of eigenvalues below threshold      ... 0
Time for construction of square roots      ...    0.004 sec
Total time needed                          ...    0.013 sec

-------------------
DFT GRID GENERATION
-------------------

General Integration Accuracy     IntAcc      ...  4.340
Radial Grid Type                 RadialGrid  ... Gauss-Chebyshev
Angular Grid (max. acc.)         AngularGrid ... Lebedev-110
Angular grid pruning method      GridPruning ... 3 (G Style)
Weight generation scheme         WeightScheme... Becke
Basis function cutoff            BFCut       ...    1.0000e-11
Integration weight cutoff        WCut        ...    1.0000e-14
Grids for H and He will be reduced by one unit

# of grid points (after initial pruning)     ...  29272 (   0.0 sec)
# of grid points (after weights+screening)   ...  26862 (   0.1 sec)
nearest neighbour list constructed           ...    0.0 sec
Grid point re-assignment to atoms done       ...    0.0 sec
Grid point division into batches done        ...    0.0 sec
Reduced shell lists constructed in    0.2 sec

Total number of grid points                  ...    26862
Total number of batches                      ...      429
Average number of points per batch           ...       62
Average number of grid points per atom       ...     1343
Average number of shells per batch           ...    62.68 (58.58%)
Average number of basis functions per batch  ...   138.39 (57.90%)
Average number of large shells per batch     ...    46.15 (73.62%)
Average number of large basis fcns per batch ...   100.94 (72.94%)
Maximum spatial batch extension              ...  19.20, 18.24, 25.60 au
Average spatial batch extension              ...   3.55,  3.40,  4.20 au

Time for grid setup =    0.301 sec

------------------------------
INITIAL GUESS: MODEL POTENTIAL
------------------------------
Loading Hartree-Fock densities                     ... done
Calculating cut-offs                               ... done
Setting up the integral package                    ... done
Initializing the effective Hamiltonian             ... done
Starting the Coulomb interaction                   ... done (   0.2 sec)
Reading the grid                                   ... done
Mapping shells                                     ... done
Starting the XC term evaluation                    ... done (   0.3 sec)
  promolecular density results
     # of electrons  =    116.004126784
     EX              =   -116.357507874
     EC              =     -4.216590262
     EX+EC           =   -120.574098136
Transforming the Hamiltonian                       ... done (   0.0 sec)
Diagonalizing the Hamiltonian                      ... done (   0.0 sec)
Back transforming the eigenvectors                 ... done (   0.0 sec)
Now organizing SCF variables                       ... done
                      ------------------
                      INITIAL GUESS DONE (   0.9 sec)
                      ------------------
--------------------
COSX GRID GENERATION
--------------------

General Integration Accuracy     IntAcc      ...  3.340
Radial Grid Type                 RadialGrid  ... Gauss-Chebyshev
Angular Grid (max. acc.)         AngularGrid ... Lebedev-50
Angular grid pruning method      GridPruning ... 3 (G Style)
Weight generation scheme         WeightScheme... Becke
Basis function cutoff            BFCut       ...    1.0000e-11
Integration weight cutoff        WCut        ...    1.0000e-14
Grids for H and He will be reduced by one unit

# of grid points (after initial pruning)     ...  10426 (   0.0 sec)
# of grid points (after weights+screening)   ...   9718 (   0.0 sec)
nearest neighbour list constructed           ...    0.0 sec
Grid point re-assignment to atoms done       ...    0.0 sec
Grid point division into batches done        ...    0.0 sec
Reduced shell lists constructed in    0.1 sec

Total number of grid points                  ...     9718
Total number of batches                      ...      160
Average number of points per batch           ...       60
Average number of grid points per atom       ...      486
Average number of shells per batch           ...    68.58 (64.09%)
Average number of basis functions per batch  ...   152.48 (63.80%)
Average number of large shells per batch     ...    51.21 (74.68%)
Average number of large basis fcns per batch ...   113.06 (74.15%)
Maximum spatial batch extension              ...  17.91, 15.65, 25.19 au
Average spatial batch extension              ...   4.66,  4.53,  5.90 au

Overlap Fitting                  UseSFitting ... on
Constructing numerical overlap ... done (      0.1 sec)
Inverting numerical overlap    ... done (      0.0 sec)
Obtaining analytic overlap     ... done (      0.0 sec)
Final contraction and storage  ... done (      0.0 sec)


General Integration Accuracy     IntAcc      ...  3.670
Radial Grid Type                 RadialGrid  ... Gauss-Chebyshev
Angular Grid (max. acc.)         AngularGrid ... Lebedev-50
Angular grid pruning method      GridPruning ... 3 (G Style)
Weight generation scheme         WeightScheme... Becke
Basis function cutoff            BFCut       ...    1.0000e-11
Integration weight cutoff        WCut        ...    1.0000e-14
Grids for H and He will be reduced by one unit

# of grid points (after initial pruning)     ...  12958 (   0.0 sec)
# of grid points (after weights+screening)   ...  12044 (   0.0 sec)
nearest neighbour list constructed           ...    0.0 sec
Grid point re-assignment to atoms done       ...    0.0 sec
Grid point division into batches done        ...    0.0 sec
Reduced shell lists constructed in    0.1 sec

Total number of grid points                  ...    12044
Total number of batches                      ...      200
Average number of points per batch           ...       60
Average number of grid points per atom       ...      602
Average number of shells per batch           ...    67.27 (62.87%)
Average number of basis functions per batch  ...   149.23 (62.44%)
Average number of large shells per batch     ...    49.52 (73.62%)
Average number of large basis fcns per batch ...   109.16 (73.15%)
Maximum spatial batch extension              ...  19.59, 16.63, 26.98 au
Average spatial batch extension              ...   4.30,  4.05,  5.19 au

Overlap Fitting                  UseSFitting ... on
Constructing numerical overlap ... done (      0.1 sec)
Inverting numerical overlap    ... done (      0.0 sec)
Obtaining analytic overlap     ... done (      0.0 sec)
Final contraction and storage  ... done (      0.0 sec)


General Integration Accuracy     IntAcc      ...  4.010
Radial Grid Type                 RadialGrid  ... Gauss-Chebyshev
Angular Grid (max. acc.)         AngularGrid ... Lebedev-110
Angular grid pruning method      GridPruning ... 3 (G Style)
Weight generation scheme         WeightScheme... Becke
Basis function cutoff            BFCut       ...    1.0000e-11
Integration weight cutoff        WCut        ...    1.0000e-14
Grids for H and He will be reduced by one unit

# of grid points (after initial pruning)     ...  25412 (   0.0 sec)
# of grid points (after weights+screening)   ...  23367 (   0.1 sec)
nearest neighbour list constructed           ...    0.0 sec
Grid point re-assignment to atoms done       ...    0.0 sec
Grid point division into batches done        ...    0.0 sec
Reduced shell lists constructed in    0.2 sec

Total number of grid points                  ...    23367
Total number of batches                      ...      374
Average number of points per batch           ...       62
Average number of grid points per atom       ...     1168
Average number of shells per batch           ...    63.50 (59.35%)
Average number of basis functions per batch  ...   140.25 (58.68%)
Average number of large shells per batch     ...    46.98 (73.98%)
Average number of large basis fcns per batch ...   102.89 (73.36%)
Maximum spatial batch extension              ...  19.02, 17.76, 24.23 au
Average spatial batch extension              ...   3.69,  3.52,  4.38 au

Overlap Fitting                  UseSFitting ... on
Constructing numerical overlap ... done (      0.1 sec)
Inverting numerical overlap    ... done (      0.0 sec)
Obtaining analytic overlap     ... done (      0.0 sec)
Final contraction and storage  ... done (      0.0 sec)

Time for X-Grid setup             =    0.796 sec
--------------
SCF ITERATIONS
--------------
ITER       Energy         Delta-E        Max-DP      RMS-DP      [F,P]     Damp
               ***  Starting incremental Fock matrix formation  ***
  0  -1155.9622783261   0.000000000000 0.09660420  0.00271861  0.2512110 0.7000
  1  -1156.1438831618  -0.181604835615 0.05665051  0.00171156  0.0931396 0.7000
                               ***Turning on DIIS***
  2  -1156.2045510840  -0.060667922217 0.12899774  0.00264370  0.0287549 0.0000
  3  -1156.3042190650  -0.099667981053 0.03924524  0.00126882  0.0402676 0.0000
  4  -1156.3290753584  -0.024856293378 0.01788471  0.00041206  0.0186068 0.0000
  5  -1156.3309755190  -0.001900160587 0.00968031  0.00017126  0.0095335 0.0000
                      *** Initiating the SOSCF procedure ***
                           *** Shutting down DIIS ***
                      *** Re-Reading the Fockian *** 
                      *** Removing any level shift *** 
ITER      Energy       Delta-E        Grad      Rot      Max-DP    RMS-DP
  6  -1156.33117921  -0.0002036933  0.000546  0.000546  0.001850  0.000045
               *** Restarting incremental Fock matrix formation ***
  7  -1156.33121099  -0.0000317807  0.000293  0.000998  0.001197  0.000033
  8  -1156.33120998   0.0000010089  0.000402  0.000714  0.000565  0.000016
  9  -1156.33121371  -0.0000037211  0.000062  0.000206  0.000246  0.000006
 10  -1156.33121366   0.0000000478  0.000072  0.000102  0.000159  0.000003
 11  -1156.33121382  -0.0000001609  0.000015  0.000103  0.000074  0.000002
 12  -1156.33121379   0.0000000292  0.000031  0.000072  0.000055  0.000001
                  ***Gradient check signals convergence***
              ***Rediagonalizing the Fockian in SOSCF/NRSCF***

               *****************************************************
               *                     SUCCESS                       *
               *           SCF CONVERGED AFTER  13 CYCLES          *
               *****************************************************

Setting up the final grid:

General Integration Accuracy     IntAcc      ...  4.670
Radial Grid Type                 RadialGrid  ... Gauss-Chebyshev
Angular Grid (max. acc.)         AngularGrid ... Lebedev-302
Angular grid pruning method      GridPruning ... 3 (G Style)
Weight generation scheme         WeightScheme... Becke
Basis function cutoff            BFCut       ...    1.0000e-11
Integration weight cutoff        WCut        ...    1.0000e-14
Grids for H and He will be reduced by one unit

# of grid points (after initial pruning)     ... 110964 (   0.0 sec)
# of grid points (after weights+screening)   ... 100053 (   0.3 sec)
nearest neighbour list constructed           ...    0.0 sec
Grid point re-assignment to atoms done       ...    0.0 sec
Grid point division into batches done        ...    0.4 sec
Reduced shell lists constructed in    1.0 sec

Total number of grid points                  ...   100053
Total number of batches                      ...     1573
Average number of points per batch           ...       63
Average number of grid points per atom       ...     5003
Average number of shells per batch           ...    56.90 (53.17%)
Average number of basis functions per batch  ...   124.61 (52.14%)
Average number of large shells per batch     ...    41.30 (72.59%)
Average number of large basis fcns per batch ...    89.58 (71.89%)
Maximum spatial batch extension              ...  18.50, 17.80, 21.93 au
Average spatial batch extension              ...   2.37,  2.31,  2.59 au

Final grid set up in    1.4 sec
Final integration                            ... done (   1.3 sec)
Change in XC energy                          ...    -0.000030915
Integrated number of electrons               ...   116.000033238
Previous integrated no of electrons          ...   116.001002071
Old exchange energy                            =    -23.403260215 Eh
New exchange energy                            =    -23.402837639 Eh
Exchange energy change after final integration =      0.000422576 Eh
Total energy after final integration           =  -1156.330822163 Eh
Final COS-X integration done in                =    10.644 sec

----------------
TOTAL SCF ENERGY
----------------

Total Energy       :        -1156.33082216 Eh          -31465.36134 eV

Components:
Nuclear Repulsion  :         1086.65475456 Eh           29569.37915 eV
Electronic Energy  :        -2242.98557672 Eh          -61034.74049 eV
One Electron Energy:        -3748.88247866 Eh         -102012.27845 eV
Two Electron Energy:         1505.89690194 Eh           40977.53796 eV

Virial components:
Potential Energy   :        -2305.94550575 Eh          -62747.96726 eV
Kinetic Energy     :         1149.61468358 Eh           31282.60592 eV
Virial Ratio       :            2.00584208


DFT components:
N(Alpha)           :       58.000016618832 electrons
N(Beta)            :       58.000016618832 electrons
N(Total)           :      116.000033237664 electrons
E(X)               :      -93.075620297497 Eh       
E(C)               :       -5.380177190975 Eh       
E(XC)              :      -98.455797488472 Eh       
DFET-embed. en.    :        0.000000000000 Eh       

---------------
SCF CONVERGENCE
---------------

  Last Energy change         ...   -3.5482e-08  Tolerance :   1.0000e-08
  Last MAX-Density change    ...    4.4409e-15  Tolerance :   1.0000e-07
  Last RMS-Density change    ...    5.1358e-17  Tolerance :   5.0000e-09
  Last Orbital Gradient      ...    1.7139e-06  Tolerance :   1.0000e-05
  Last Orbital Rotation      ...    6.2632e-06  Tolerance :   1.0000e-05

             **** THE GBW FILE WAS UPDATED (885.gbw) ****
             **** DENSITY FILE WAS UPDATED (885.scfp) ****
             **** ENERGY FILE WAS UPDATED (885.en.tmp) ****
             **** THE GBW FILE WAS UPDATED (885.gbw) ****
             **** DENSITY FILE WAS UPDATED (885.scfp) ****
----------------
ORBITAL ENERGIES
----------------

  NO   OCC          E(Eh)            E(eV) 
   0   2.0000     -88.899277     -2419.0723 
   1   2.0000     -24.724305      -672.7825 
   2   2.0000     -24.723909      -672.7718 
   3   2.0000     -24.718277      -672.6185 
   4   2.0000     -19.151090      -521.1277 
   5   2.0000     -10.431705      -283.8611 
   6   2.0000     -10.298429      -280.2345 
   7   2.0000     -10.225903      -278.2610 
   8   2.0000     -10.221895      -278.1519 
   9   2.0000     -10.221792      -278.1491 
  10   2.0000     -10.219461      -278.0857 
  11   2.0000     -10.216916      -278.0164 
  12   2.0000     -10.214732      -277.9570 
  13   2.0000     -10.213927      -277.9351 
  14   2.0000     -10.209985      -277.8278 
  15   2.0000      -7.994529      -217.5422 
  16   2.0000      -5.962041      -162.2354 
  17   2.0000      -5.957871      -162.1219 
  18   2.0000      -5.957164      -162.1027 
  19   2.0000      -1.304588       -35.4996 
  20   2.0000      -1.210242       -32.9324 
  21   2.0000      -1.208972       -32.8978 
  22   2.0000      -1.060546       -28.8589 
  23   2.0000      -0.914482       -24.8843 
  24   2.0000      -0.858394       -23.3581 
  25   2.0000      -0.800114       -21.7722 
  26   2.0000      -0.757348       -20.6085 
  27   2.0000      -0.743056       -20.2196 
  28   2.0000      -0.710784       -19.3414 
  29   2.0000      -0.663951       -18.0670 
  30   2.0000      -0.629665       -17.1340 
  31   2.0000      -0.606637       -16.5074 
  32   2.0000      -0.602295       -16.3893 
  33   2.0000      -0.597388       -16.2557 
  34   2.0000      -0.586330       -15.9549 
  35   2.0000      -0.546223       -14.8635 
  36   2.0000      -0.518568       -14.1110 
  37   2.0000      -0.497803       -13.5459 
  38   2.0000      -0.480506       -13.0752 
  39   2.0000      -0.474417       -12.9096 
  40   2.0000      -0.473647       -12.8886 
  41   2.0000      -0.467065       -12.7095 
  42   2.0000      -0.448983       -12.2175 
  43   2.0000      -0.441586       -12.0162 
  44   2.0000      -0.433847       -11.8056 
  45   2.0000      -0.428791       -11.6680 
  46   2.0000      -0.420416       -11.4401 
  47   2.0000      -0.413509       -11.2521 
  48   2.0000      -0.412474       -11.2240 
  49   2.0000      -0.406778       -11.0690 
  50   2.0000      -0.384911       -10.4740 
  51   2.0000      -0.381835       -10.3902 
  52   2.0000      -0.367919       -10.0116 
  53   2.0000      -0.359775        -9.7900 
  54   2.0000      -0.307000        -8.3539 
  55   2.0000      -0.281521        -7.6606 
  56   2.0000      -0.272477        -7.4145 
  57   2.0000      -0.229185        -6.2365 
  58   0.0000      -0.103959        -2.8289 
  59   0.0000      -0.040267        -1.0957 
  60   0.0000       0.004066         0.1107 
  61   0.0000       0.029471         0.8019 
  62   0.0000       0.038714         1.0535 
  63   0.0000       0.058019         1.5788 
  64   0.0000       0.082874         2.2551 
  65   0.0000       0.105958         2.8833 
  66   0.0000       0.124010         3.3745 
  67   0.0000       0.131060         3.5663 
  68   0.0000       0.140983         3.8363 
  69   0.0000       0.142053         3.8655 
  70   0.0000       0.152078         4.1382 
  71   0.0000       0.207504         5.6465 
  72   0.0000       0.214934         5.8487 
  73   0.0000       0.216773         5.8987 
  74   0.0000       0.237770         6.4701 
  75   0.0000       0.245756         6.6874 
  76   0.0000       0.259521         7.0619 
  77   0.0000       0.273972         7.4551 
  78   0.0000       0.286128         7.7859 
  79   0.0000       0.301041         8.1917 
  80   0.0000       0.318253         8.6601 
  81   0.0000       0.329790         8.9740 
  82   0.0000       0.354897         9.6573 
  83   0.0000       0.363872         9.9014 
  84   0.0000       0.373760        10.1705 
  85   0.0000       0.391101        10.6424 
  86   0.0000       0.404109        10.9964 
  87   0.0000       0.410502        11.1703 
  88   0.0000       0.431116        11.7313 
  89   0.0000       0.437919        11.9164 
  90   0.0000       0.457116        12.4388 
  91   0.0000       0.461686        12.5631 
  92   0.0000       0.471526        12.8309 
  93   0.0000       0.482337        13.1251 
  94   0.0000       0.491687        13.3795 
  95   0.0000       0.495477        13.4826 
  96   0.0000       0.508317        13.8320 
  97   0.0000       0.523237        14.2380 
  98   0.0000       0.529780        14.4160 
  99   0.0000       0.544089        14.8054 
 100   0.0000       0.557860        15.1802 
 101   0.0000       0.580805        15.8045 
 102   0.0000       0.587605        15.9895 
 103   0.0000       0.590537        16.0693 
 104   0.0000       0.618350        16.8262 
 105   0.0000       0.620800        16.8928 
 106   0.0000       0.636719        17.3260 
 107   0.0000       0.640157        17.4195 
 108   0.0000       0.648417        17.6443 
 109   0.0000       0.656661        17.8686 
 110   0.0000       0.670754        18.2521 
 111   0.0000       0.681356        18.5406 
 112   0.0000       0.684800        18.6343 
 113   0.0000       0.701480        19.0882 
 114   0.0000       0.705972        19.2105 
 115   0.0000       0.723117        19.6770 
 116   0.0000       0.741314        20.1722 
 117   0.0000       0.765172        20.8214 
 118   0.0000       0.765482        20.8298 
 119   0.0000       0.773329        21.0434 
 120   0.0000       0.778259        21.1775 
 121   0.0000       0.809176        22.0188 
 122   0.0000       0.813225        22.1290 
 123   0.0000       0.826491        22.4900 
 124   0.0000       0.885975        24.1086 
 125   0.0000       0.890635        24.2354 
 126   0.0000       0.906614        24.6702 
 127   0.0000       0.968735        26.3606 
 128   0.0000       0.994563        27.0634 
 129   0.0000       1.004218        27.3262 
 130   0.0000       1.033292        28.1173 
 131   0.0000       1.054636        28.6981 
 132   0.0000       1.090508        29.6742 
 133   0.0000       1.116628        30.3850 
 134   0.0000       1.120520        30.4909 
 135   0.0000       1.124182        30.5905 
 136   0.0000       1.136419        30.9235 
 137   0.0000       1.142352        31.0850 
 138   0.0000       1.164993        31.7011 
 139   0.0000       1.177361        32.0376 
 140   0.0000       1.208764        32.8921 
 141   0.0000       1.210383        32.9362 
 142   0.0000       1.227964        33.4146 
 143   0.0000       1.230930        33.4953 
 144   0.0000       1.270470        34.5712 
 145   0.0000       1.273664        34.6582 
 146   0.0000       1.294376        35.2218 
 147   0.0000       1.313405        35.7396 
 148   0.0000       1.325264        36.0623 
 149   0.0000       1.332409        36.2567 
 150   0.0000       1.338087        36.4112 
 151   0.0000       1.381674        37.5973 
 152   0.0000       1.387683        37.7608 
 153   0.0000       1.441903        39.2362 
 154   0.0000       1.466988        39.9188 
 155   0.0000       1.485977        40.4355 
 156   0.0000       1.497713        40.7548 
 157   0.0000       1.519698        41.3531 
 158   0.0000       1.558809        42.4173 
 159   0.0000       1.574781        42.8520 
 160   0.0000       1.592106        43.3234 
 161   0.0000       1.636901        44.5423 
 162   0.0000       1.671725        45.4899 
 163   0.0000       1.675622        45.5960 
 164   0.0000       1.691135        46.0181 
 165   0.0000       1.723034        46.8862 
 166   0.0000       1.731766        47.1238 
 167   0.0000       1.737788        47.2876 
 168   0.0000       1.740709        47.3671 
 169   0.0000       1.761792        47.9408 
 170   0.0000       1.777275        48.3621 
 171   0.0000       1.790389        48.7190 
 172   0.0000       1.818532        49.4848 
 173   0.0000       1.825320        49.6695 
 174   0.0000       1.860530        50.6276 
 175   0.0000       1.868478        50.8439 
 176   0.0000       1.889292        51.4103 
 177   0.0000       1.898445        51.6593 
 178   0.0000       1.925370        52.3920 
 179   0.0000       1.939164        52.7673 
 180   0.0000       1.944911        52.9237 
 181   0.0000       1.953395        53.1546 
 182   0.0000       2.002146        54.4812 
 183   0.0000       2.023441        55.0606 
 184   0.0000       2.028005        55.1848 
 185   0.0000       2.041916        55.5634 
 186   0.0000       2.045651        55.6650 
 187   0.0000       2.079274        56.5799 
 188   0.0000       2.090598        56.8881 
 189   0.0000       2.106916        57.3321 
 190   0.0000       2.130995        57.9873 
 191   0.0000       2.143740        58.3341 
 192   0.0000       2.203498        59.9602 
 193   0.0000       2.232826        60.7583 
 194   0.0000       2.267413        61.6994 
 195   0.0000       2.289405        62.2979 
 196   0.0000       2.312112        62.9158 
 197   0.0000       2.320396        63.1412 
 198   0.0000       2.363287        64.3083 
 199   0.0000       2.378719        64.7282 
 200   0.0000       2.416762        65.7634 
 201   0.0000       2.431258        66.1579 
 202   0.0000       2.483152        67.5700 
 203   0.0000       2.524248        68.6883 
 204   0.0000       2.540077        69.1190 
 205   0.0000       2.565719        69.8168 
 206   0.0000       2.600464        70.7622 
 207   0.0000       2.640775        71.8591 
 208   0.0000       2.648148        72.0598 
 209   0.0000       2.687673        73.1353 
 210   0.0000       2.707770        73.6822 
 211   0.0000       2.716971        73.9325 
 212   0.0000       2.747756        74.7703 
 213   0.0000       2.809962        76.4630 
 214   0.0000       2.861607        77.8683 
 215   0.0000       2.998079        81.5819 
 216   0.0000       2.998579        81.5955 
 217   0.0000       3.027271        82.3762 
 218   0.0000       3.029067        82.4251 
 219   0.0000       3.039257        82.7024 
 220   0.0000       3.043482        82.8173 
 221   0.0000       3.049063        82.9692 
 222   0.0000       3.061032        83.2949 
 223   0.0000       3.078436        83.7685 
 224   0.0000       3.101699        84.4015 
 225   0.0000       3.107408        84.5569 
 226   0.0000       3.119495        84.8858 
 227   0.0000       3.164310        86.1053 
 228   0.0000       3.187092        86.7252 
 229   0.0000       3.302142        89.8559 
 230   0.0000       3.388346        92.2016 
 231   0.0000       3.439979        93.6066 
 232   0.0000       3.531274        96.0909 
 233   0.0000       3.553887        96.7062 
 234   0.0000       3.603855        98.0659 
 235   0.0000       3.645244        99.1921 
 236   0.0000       3.678710       100.1028 
 237   0.0000       3.826054       104.1122 
 238   0.0000       3.889902       105.8496 

                    ********************************
                    * MULLIKEN POPULATION ANALYSIS *
                    ********************************

-----------------------
MULLIKEN ATOMIC CHARGES
-----------------------
   0 C :   -0.138996
   1 S :    0.162163
   2 C :   -0.128849
   3 C :    0.090882
   4 C :    0.063764
   5 C :    0.023124
   6 C :    0.009977
   7 O :   -0.167031
   8 C :    0.498043
   9 F :   -0.177614
  10 F :   -0.142905
  11 F :   -0.178376
  12 C :    0.026097
  13 C :    0.023276
  14 C :    0.031511
  15 H :    0.033195
  16 H :    0.012909
  17 H :   -0.000035
  18 H :   -0.018480
  19 H :   -0.022654
Sum of atomic charges:    0.0000000

--------------------------------
MULLIKEN REDUCED ORBITAL CHARGES
--------------------------------
  0 C s       :     3.238229  s :     3.238229
      pz      :     1.099875  p :     2.865042
      px      :     0.950731
      py      :     0.814436
      dz2     :     0.003134  d :     0.035725
      dxz     :     0.006605
      dyz     :     0.003404
      dx2y2   :     0.008516
      dxy     :     0.014066
  1 S s       :     5.829393  s :     5.829393
      pz      :     3.542459  p :     9.884279
      px      :     3.350745
      py      :     2.991074
      dz2     :     0.013568  d :     0.124165
      dxz     :     0.012779
      dyz     :     0.029259
      dx2y2   :     0.019456
      dxy     :     0.049103
  2 C s       :     3.209974  s :     3.209974
      pz      :     1.115695  p :     2.883254
      px      :     0.918968
      py      :     0.848591
      dz2     :     0.003162  d :     0.035621
      dxz     :     0.007021
      dyz     :     0.003099
      dx2y2   :     0.009285
      dxy     :     0.013052
  3 C s       :     3.054492  s :     3.054492
      pz      :     0.999016  p :     2.810093
      px      :     0.801349
      py      :     1.009729
      dz2     :     0.003496  d :     0.044534
      dxz     :     0.007914
      dyz     :     0.006014
      dx2y2   :     0.014541
      dxy     :     0.012569
  4 C s       :     3.102811  s :     3.102811
      pz      :     0.994835  p :     2.790060
      px      :     0.797775
      py      :     0.997450
      dz2     :     0.003594  d :     0.043365
      dxz     :     0.008465
      dyz     :     0.005348
      dx2y2   :     0.014291
      dxy     :     0.011669
  5 C s       :     3.106299  s :     3.106299
      pz      :     1.046303  p :     2.831070
      px      :     0.902478
      py      :     0.882288
      dz2     :     0.003314  d :     0.039507
      dxz     :     0.007167
      dyz     :     0.003843
      dx2y2   :     0.013869
      dxy     :     0.011313
  6 C s       :     3.140757  s :     3.140757
      pz      :     0.830577  p :     2.754793
      px      :     0.944797
      py      :     0.979419
      dz2     :     0.005635  d :     0.094473
      dxz     :     0.012268
      dyz     :     0.010785
      dx2y2   :     0.036735
      dxy     :     0.029049
  7 O s       :     3.730502  s :     3.730502
      pz      :     1.304899  p :     4.417966
      px      :     1.444999
      py      :     1.668068
      dz2     :     0.002077  d :     0.018564
      dxz     :     0.004349
      dyz     :     0.001709
      dx2y2   :     0.004452
      dxy     :     0.005976
  8 C s       :     2.971348  s :     2.971348
      pz      :     0.691568  p :     2.354492
      px      :     0.876586
      py      :     0.786338
      dz2     :     0.038423  d :     0.176116
      dxz     :     0.040510
      dyz     :     0.032376
      dx2y2   :     0.033425
      dxy     :     0.031383
  9 F s       :     3.900060  s :     3.900060
      pz      :     1.664958  p :     5.269497
      px      :     1.740280
      py      :     1.864259
      dz2     :     0.001734  d :     0.008058
      dxz     :     0.002902
      dyz     :     0.001478
      dx2y2   :     0.000954
      dxy     :     0.000989
 10 F s       :     3.885196  s :     3.885196
      pz      :     1.882522  p :     5.249113
      px      :     1.887774
      py      :     1.478817
      dz2     :     0.001193  d :     0.008596
      dxz     :     0.000176
      dyz     :     0.001865
      dx2y2   :     0.003333
      dxy     :     0.002028
 11 F s       :     3.900733  s :     3.900733
      pz      :     1.599769  p :     5.269594
      px      :     1.767613
      py      :     1.902212
      dz2     :     0.002526  d :     0.008050
      dxz     :     0.003106
      dyz     :     0.001183
      dx2y2   :     0.000709
      dxy     :     0.000526
 12 C s       :     3.227009  s :     3.227009
      pz      :     0.921715  p :     2.710844
      px      :     0.916502
      py      :     0.872627
      dz2     :     0.002910  d :     0.036050
      dxz     :     0.003985
      dyz     :     0.006015
      dx2y2   :     0.010578
      dxy     :     0.012562
 13 C s       :     3.148662  s :     3.148662
      pz      :     1.008292  p :     2.792578
      px      :     0.850102
      py      :     0.934184
      dz2     :     0.002589  d :     0.035483
      dxz     :     0.003557
      dyz     :     0.005078
      dx2y2   :     0.012183
      dxy     :     0.012077
 14 C s       :     3.238848  s :     3.238848
      pz      :     0.932034  p :     2.692927
      px      :     0.970698
      py      :     0.790194
      dz2     :     0.002588  d :     0.036714
      dxz     :     0.007421
      dyz     :     0.002789
      dx2y2   :     0.013203
      dxy     :     0.010713
 15 H s       :     0.941214  s :     0.941214
      pz      :     0.005587  p :     0.025591
      px      :     0.004524
      py      :     0.015481
 16 H s       :     0.962734  s :     0.962734
      pz      :     0.005906  p :     0.024357
      px      :     0.003632
      py      :     0.014819
 17 H s       :     0.975480  s :     0.975480
      pz      :     0.004630  p :     0.024555
      px      :     0.012630
      py      :     0.007295
 18 H s       :     0.994926  s :     0.994926
      pz      :     0.004979  p :     0.023555
      px      :     0.013038
      py      :     0.005538
 19 H s       :     0.999301  s :     0.999301
      pz      :     0.004713  p :     0.023353
      px      :     0.003589
      py      :     0.015050


                     *******************************
                     * LOEWDIN POPULATION ANALYSIS *
                     *******************************

----------------------
LOEWDIN ATOMIC CHARGES
----------------------
   0 C :   -0.192105
   1 S :    0.510310
   2 C :   -0.198571
   3 C :   -0.054569
   4 C :   -0.039088
   5 C :   -0.071105
   6 C :    0.034286
   7 O :   -0.112382
   8 C :    0.144136
   9 F :   -0.065411
  10 F :   -0.039042
  11 F :   -0.065438
  12 C :    0.021493
  13 C :   -0.034902
  14 C :    0.025643
  15 H :    0.024696
  16 H :    0.021998
  17 H :    0.027908
  18 H :    0.029956
  19 H :    0.032188

-------------------------------
LOEWDIN REDUCED ORBITAL CHARGES
-------------------------------
  0 C s       :     2.920288  s :     2.920288
      pz      :     1.100914  p :     3.185864
      px      :     1.048732
      py      :     1.036219
      dz2     :     0.006411  d :     0.085954
      dxz     :     0.013943
      dyz     :     0.005762
      dx2y2   :     0.022648
      dxy     :     0.037189
  1 S s       :     5.483307  s :     5.483307
      pz      :     3.490386  p :     9.853843
      px      :     3.373252
      py      :     2.990205
      dz2     :     0.017286  d :     0.152540
      dxz     :     0.012149
      dyz     :     0.036109
      dx2y2   :     0.022006
      dxy     :     0.064990
  2 C s       :     2.918838  s :     2.918838
      pz      :     1.111772  p :     3.193963
      px      :     1.039801
      py      :     1.042390
      dz2     :     0.006532  d :     0.085770
      dxz     :     0.014731
      dyz     :     0.005131
      dx2y2   :     0.024780
      dxy     :     0.034597
  3 C s       :     2.839867  s :     2.839867
      pz      :     0.991579  p :     3.097376
      px      :     1.060636
      py      :     1.045161
      dz2     :     0.008452  d :     0.117325
      dxz     :     0.016707
      dyz     :     0.012652
      dx2y2   :     0.043653
      dxy     :     0.035861
  4 C s       :     2.838853  s :     2.838853
      pz      :     0.993664  p :     3.085681
      px      :     1.058289
      py      :     1.033727
      dz2     :     0.008549  d :     0.114554
      dxz     :     0.018108
      dyz     :     0.011032
      dx2y2   :     0.043464
      dxy     :     0.033402
  5 C s       :     2.846603  s :     2.846603
      pz      :     1.020613  p :     3.116430
      px      :     1.061334
      py      :     1.034482
      dz2     :     0.008551  d :     0.108072
      dxz     :     0.014703
      dyz     :     0.008443
      dx2y2   :     0.040805
      dxy     :     0.035570
  6 C s       :     2.880702  s :     2.880702
      pz      :     0.816433  p :     2.864972
      px      :     1.007671
      py      :     1.040868
      dz2     :     0.013921  d :     0.220040
      dxz     :     0.022355
      dyz     :     0.020830
      dx2y2   :     0.090483
      dxy     :     0.072450
  7 O s       :     3.542211  s :     3.542211
      pz      :     1.303290  p :     4.538253
      px      :     1.544947
      py      :     1.690016
      dz2     :     0.004310  d :     0.031919
      dxz     :     0.005506
      dyz     :     0.002179
      dx2y2   :     0.008073
      dxy     :     0.011851
  8 C s       :     2.877337  s :     2.877337
      pz      :     0.789723  p :     2.606904
      px      :     0.954649
      py      :     0.862532
      dz2     :     0.083513  d :     0.371623
      dxz     :     0.087154
      dyz     :     0.062578
      dx2y2   :     0.069027
      dxy     :     0.069351
  9 F s       :     3.736059  s :     3.736059
      pz      :     1.694432  p :     5.316489
      px      :     1.757793
      py      :     1.864264
      dz2     :     0.002413  d :     0.012863
      dxz     :     0.005202
      dyz     :     0.002326
      dx2y2   :     0.001429
      dxy     :     0.001493
 10 F s       :     3.723272  s :     3.723272
      pz      :     1.878742  p :     5.302047
      px      :     1.889210
      py      :     1.534094
      dz2     :     0.002114  d :     0.013723
      dxz     :     0.000245
      dyz     :     0.002470
      dx2y2   :     0.006036
      dxy     :     0.002858
 11 F s       :     3.736017  s :     3.736017
      pz      :     1.638819  p :     5.316572
      px      :     1.781820
      py      :     1.895933
      dz2     :     0.003977  d :     0.012849
      dxz     :     0.005572
      dyz     :     0.001576
      dx2y2   :     0.001076
      dxy     :     0.000649
 12 C s       :     2.856405  s :     2.856405
      pz      :     0.914809  p :     3.028542
      px      :     1.054072
      py      :     1.059660
      dz2     :     0.006846  d :     0.093560
      dxz     :     0.008184
      dyz     :     0.012770
      dx2y2   :     0.030922
      dxy     :     0.034839
 13 C s       :     2.849664  s :     2.849664
      pz      :     0.990504  p :     3.092068
      px      :     1.049396
      py      :     1.052168
      dz2     :     0.006518  d :     0.093169
      dxz     :     0.006813
      dyz     :     0.011157
      dx2y2   :     0.034627
      dxy     :     0.034055
 14 C s       :     2.856002  s :     2.856002
      pz      :     0.919789  p :     3.023989
      px      :     1.060483
      py      :     1.043717
      dz2     :     0.006338  d :     0.094366
      dxz     :     0.015790
      dyz     :     0.004992
      dx2y2   :     0.036506
      dxy     :     0.030740
 15 H s       :     0.892000  s :     0.892000
      pz      :     0.019298  p :     0.083304
      px      :     0.015036
      py      :     0.048970
 16 H s       :     0.900424  s :     0.900424
      pz      :     0.019827  p :     0.077578
      px      :     0.012596
      py      :     0.045154
 17 H s       :     0.898441  s :     0.898441
      pz      :     0.014011  p :     0.073651
      px      :     0.037246
      py      :     0.022393
 18 H s       :     0.900684  s :     0.900684
      pz      :     0.015770  p :     0.069361
      px      :     0.036688
      py      :     0.016902
 19 H s       :     0.898683  s :     0.898683
      pz      :     0.014315  p :     0.069129
      px      :     0.011866
      py      :     0.042948


                      *****************************
                      * MAYER POPULATION ANALYSIS *
                      *****************************

  NA   - Mulliken gross atomic population
  ZA   - Total nuclear charge
  QA   - Mulliken gross atomic charge
  VA   - Mayer's total valence
  BVA  - Mayer's bonded valence
  FA   - Mayer's free valence

  ATOM       NA         ZA         QA         VA         BVA        FA
  0 C      6.1390     6.0000    -0.1390     3.7376     3.7376    -0.0000
  1 S     15.8378    16.0000     0.1622     2.6207     2.6207     0.0000
  2 C      6.1288     6.0000    -0.1288     3.7421     3.7421     0.0000
  3 C      5.9091     6.0000     0.0909     3.8851     3.8851    -0.0000
  4 C      5.9362     6.0000     0.0638     3.9614     3.9614    -0.0000
  5 C      5.9769     6.0000     0.0231     3.6742     3.6742     0.0000
  6 C      5.9900     6.0000     0.0100     4.0283     4.0283     0.0000
  7 O      8.1670     8.0000    -0.1670     2.3358     2.3358     0.0000
  8 C      5.5020     6.0000     0.4980     4.3489     4.3489    -0.0000
  9 F      9.1776     9.0000    -0.1776     1.1683     1.1683    -0.0000
 10 F      9.1429     9.0000    -0.1429     1.2261     1.2261    -0.0000
 11 F      9.1784     9.0000    -0.1784     1.1672     1.1672     0.0000
 12 C      5.9739     6.0000     0.0261     3.7998     3.7998     0.0000
 13 C      5.9767     6.0000     0.0233     3.8046     3.8046     0.0000
 14 C      5.9685     6.0000     0.0315     3.7774     3.7774     0.0000
 15 H      0.9668     1.0000     0.0332     1.0399     1.0399    -0.0000
 16 H      0.9871     1.0000     0.0129     1.0003     1.0003     0.0000
 17 H      1.0000     1.0000    -0.0000     1.0227     1.0227    -0.0000
 18 H      1.0185     1.0000    -0.0185     0.9800     0.9800     0.0000
 19 H      1.0227     1.0000    -0.0227     0.9846     0.9846     0.0000

  Mayer bond orders larger than 0.100000
B(  0-C ,  1-S ) :   1.1883 B(  0-C ,  2-C ) :   0.1006 B(  0-C ,  4-C ) :   1.4825 
B(  0-C , 15-H ) :   0.9456 B(  1-S ,  2-C ) :   1.2315 B(  2-C ,  3-C ) :   1.3867 
B(  2-C , 16-H ) :   0.9663 B(  3-C ,  4-C ) :   1.1849 B(  3-C , 14-C ) :   1.2019 
B(  4-C ,  5-C ) :   1.1636 B(  5-C ,  6-C ) :   0.9902 B(  5-C , 12-C ) :   1.4591 
B(  6-C ,  7-O ) :   2.1118 B(  6-C ,  8-C ) :   0.8759 B(  8-C ,  9-F ) :   1.1104 
B(  8-C , 10-F ) :   1.1775 B(  8-C , 11-F ) :   1.1016 B( 12-C , 13-C ) :   1.2369 
B( 12-C , 17-H ) :   0.9588 B( 13-C , 14-C ) :   1.4819 B( 13-C , 18-H ) :   0.9827 
B( 14-C , 19-H ) :   0.9998 

-------
TIMINGS
-------

Total SCF time: 0 days 0 hours 1 min 30 sec 

Total time                  ....      90.784 sec
Sum of individual times     ....      90.634 sec  ( 99.8%)

Fock matrix formation       ....      87.420 sec  ( 96.3%)
  Split-RI-J                ....       8.514 sec  (  9.7% of F)
  Chain of spheres X        ....      72.510 sec  ( 82.9% of F)
  COS-X 1 center corr.      ....       0.000 sec  (  0.0% of F)
  XC integration            ....       6.342 sec  (  7.3% of F)
    Basis function eval.    ....       2.253 sec  ( 35.5% of XC)
    Density eval.           ....       1.405 sec  ( 22.1% of XC)
    XC-Functional eval.     ....       0.425 sec  (  6.7% of XC)
    XC-Potential eval.      ....       2.050 sec  ( 32.3% of XC)
Diagonalization             ....       0.058 sec  (  0.1%)
Density matrix formation    ....       0.017 sec  (  0.0%)
Population analysis         ....       0.007 sec  (  0.0%)
Initial guess               ....       0.610 sec  (  0.7%)
Orbital Transformation      ....       0.000 sec  (  0.0%)
Orbital Orthonormalization  ....       0.000 sec  (  0.0%)
DIIS solution               ....       0.021 sec  (  0.0%)
SOSCF solution              ....       0.036 sec  (  0.0%)
Grid generation             ....       2.464 sec  (  2.7%)


-------------------------------------------------------------------------------
                          DFT DISPERSION CORRECTION                            
                                                                               
                              DFTD3 V3.1  Rev 1                                
                          USING Becke-Johnson damping                          
-------------------------------------------------------------------------------
Gaussians B3LYP functional is recognized, using regular B3LYP params
Active option DFTDOPT                   ...         4   

molecular C6(AA) [au] = 6369.166873 


            DFT-D V3
 parameters
 s6 scaling factor         :     1.0000 
 a1 scaling factor         :     0.3981 
 s8 scaling factor         :     1.9889 
 a2 scaling factor         :     4.4211 
 ad hoc parameters k1-k3   :    16.0000     1.3333    -4.0000 

 Edisp/kcal,au: -28.936809064500  -0.046113735607 
 E6   /kcal   : -12.966092584 
 E8   /kcal   : -15.970716481 
 % E8         :  55.191698729 

-------------------------   ----------------
Dispersion correction           -0.046113736
-------------------------   ----------------


-------------------------   --------------------
FINAL SINGLE POINT ENERGY     -1156.376935898588
-------------------------   --------------------

------------------------------------------------------------------------------
                         ORCA SCF GRADIENT CALCULATION
------------------------------------------------------------------------------

Gradient of the Kohn-Sham DFT energy:
Kohn-Sham wavefunction type      ... RKS
Hartree-Fock exchange scaling    ...    0.200
Number of operators              ...    1
Number of atoms                  ...   20
Basis set dimensions             ...  239
Integral neglect threshold       ... 2.5e-11
Integral primitive cutoff        ... 2.5e-12

Nuclear repulsion gradient       ... done
One Electron Gradient            ... done
Pre-screening matrix             ... done
RI-J gradient                    ... done
COSX-gradient                    ... done
Exchange-correlation gradient    ... done
Dispersion correction            ... done

------------------
CARTESIAN GRADIENT
------------------

   1   C   :    0.012152384    0.001430448   -0.000245156
   2   S   :    0.002675155   -0.001666501   -0.000090609
   3   C   :    0.007314663   -0.002177928   -0.000953211
   4   C   :    0.001541927    0.001083450    0.000051731
   5   C   :   -0.007307595    0.000651621    0.000329820
   6   C   :    0.003928389   -0.005500088    0.000544396
   7   C   :   -0.013963956    0.010555159   -0.000547865
   8   O   :    0.005678552    0.000655568   -0.001055658
   9   C   :   -0.007469612    0.013792459   -0.002205006
  10   F   :    0.002475661   -0.004447120   -0.002641215
  11   F   :    0.004498376   -0.002212475   -0.000377231
  12   F   :    0.002497712   -0.005272531    0.004272795
  13   C   :    0.001448309    0.005913085   -0.000758042
  14   C   :   -0.001739569   -0.006264688    0.000327668
  15   C   :   -0.001954912   -0.000288538   -0.000456607
  16   H   :    0.002424275    0.010824700   -0.001391560
  17   H   :    0.002016672   -0.012524322    0.001501424
  18   H   :   -0.005870017    0.005008689   -0.000407579
  19   H   :   -0.008080461   -0.004434723    0.001246034
  20   H   :   -0.001334866   -0.009104784    0.001430890

Difference to translation invariance:
           :    0.0009310875   -0.0039785180   -0.0014249819

Norm of the cartesian gradient     ...    0.0403662298
RMS gradient                       ...    0.0052112579
MAX gradient                       ...    0.0139639561

-------
TIMINGS
-------

Total SCF gradient time            ...       20.049 sec

One electron gradient       ....       0.212 sec  (  1.1%)
Prescreening matrices       ....       0.148 sec  (  0.7%)
RI-J Coulomb gradient       ....       2.530 sec  ( 12.6%)
COSX gradient               ....      10.784 sec  ( 53.8%)
XC gradient                 ....       5.916 sec  ( 29.5%)
------------------------------------------------------------------------------
                         ORCA GEOMETRY RELAXATION STEP
------------------------------------------------------------------------------

Reading the OPT-File                    .... done
Getting information on internals        .... done
Copying old internal coords+grads       .... done
Making the new internal coordinates     .... (new redundants).... done
Validating the new internal coordinates .... (new redundants).... done
Calculating the B-matrix                .... done
Calculating the G,G- and P matrices     .... done
Transforming gradient to internals      .... done
Projecting the internal gradient        .... done
Number of atoms                         ....  20
Number of internal coordinates          .... 101
Current Energy                          .... -1156.376935899 Eh
Current gradient norm                   ....     0.040366230 Eh/bohr
Maximum allowed component of the step   ....  0.300
Current trust radius                    ....  0.300
Evaluating the initial hessian          ....  (Almloef) done
Projecting the Hessian                  .... done
Forming the augmented Hessian           .... done
Diagonalizing the augmented Hessian     .... done
Last element of RFO vector              ....  0.991680204
Lowest eigenvalues of augmented Hessian:
 -0.005163291  0.008565765  0.012340832  0.015408742  0.017032864
Length of the computed step             ....  0.129805920
The final length of the internal step   ....  0.129805920
Converting the step to cartesian space:
 Initial RMS(Int)=    0.0129161718
Transforming coordinates:
 Iter   0:  RMS(Cart)=    0.0294695304 RMS(Int)=    1.6517888271
 Iter   1:  RMS(Cart)=    0.0003604800 RMS(Int)=    0.0002007382
 Iter   2:  RMS(Cart)=    0.0000091900 RMS(Int)=    0.0000032868
 Iter   3:  RMS(Cart)=    0.0000003034 RMS(Int)=    0.0000002193
 Iter   4:  RMS(Cart)=    0.0000000096 RMS(Int)=    0.0000000039
done
Storing new coordinates                 .... done

                                .--------------------.
          ----------------------|Geometry convergence|-------------------------
          Item                value                   Tolerance       Converged
          ---------------------------------------------------------------------
          RMS gradient        0.0049773827            0.0001000000      NO
          MAX gradient        0.0164368535            0.0003000000      NO
          RMS step            0.0129161718            0.0020000000      NO
          MAX step            0.0322013549            0.0040000000      NO
          ........................................................
          Max(Bonds)      0.0170      Max(Angles)    1.23
          Max(Dihed)        1.54      Max(Improp)    0.00
          ---------------------------------------------------------------------

The optimization has not yet converged - more geometry cycles are needed


    ---------------------------------------------------------------------------
                         Redundant Internal Coordinates
                            (Angstroem and degrees)

        Definition                    Value    dE/dq     Step     New-Value
    ----------------------------------------------------------------------------
     1. B(S   1,C   0)                1.7084 -0.006817  0.0068    1.7152   
     2. B(C   2,S   1)                1.7000 -0.005263  0.0049    1.7049   
     3. B(C   3,C   2)                1.3796 -0.013042  0.0105    1.3902   
     4. B(C   4,C   3)                1.4438 -0.012138  0.0125    1.4563   
[...]
MULLIKEN ATOMIC CHARGES
-----------------------
   0 C :   -0.137180
   1 S :    0.157743
   2 C :   -0.132634
   3 C :    0.075168
   4 C :    0.054640
   5 C :    0.024112
   6 C :    0.008876
   7 O :   -0.172785
   8 C :    0.509817
   9 F :   -0.179736
  10 F :   -0.134543
  11 F :   -0.177051
  12 C :    0.011409
  13 C :    0.014407
  14 C :    0.029437
  15 H :    0.043436
  16 H :    0.024596
  17 H :    0.005751
  18 H :   -0.010355
  19 H :   -0.015110
Sum of atomic charges:   -0.0000000

--------------------------------
MULLIKEN REDUCED ORBITAL CHARGES
--------------------------------
  0 C s       :     3.240027  s :     3.240027
      pz      :     1.097164  p :     2.862688
      px      :     0.945363
      py      :     0.820161
      dz2     :     0.003047  d :     0.034464
      dxz     :     0.006429
      dyz     :     0.003358
      dx2y2   :     0.008148
      dxy     :     0.013482
  1 S s       :     5.831681  s :     5.831681
      pz      :     3.541827  p :     9.888145
      px      :     3.352061
      py      :     2.994257
      dz2     :     0.013990  d :     0.122431
      dxz     :     0.012797
      dyz     :     0.028399
      dx2y2   :     0.019072
      dxy     :     0.048173
  2 C s       :     3.215572  s :     3.215572
      pz      :     1.115076  p :     2.882591
      px      :     0.913921
      py      :     0.853594
      dz2     :     0.003061  d :     0.034471
      dxz     :     0.006842
      dyz     :     0.003112
      dx2y2   :     0.008629
      dxy     :     0.012827
  3 C s       :     3.065204  s :     3.065204
      pz      :     1.000702  p :     2.816639
      px      :     0.812038
      py      :     1.003900
      dz2     :     0.003494  d :     0.042988
      dxz     :     0.007673
      dyz     :     0.005765
      dx2y2   :     0.013964
      dxy     :     0.012093
  4 C s       :     3.108095  s :     3.108095
      pz      :     0.997050  p :     2.795470
      px      :     0.807055
      py      :     0.991366
      dz2     :     0.003529  d :     0.041794
      dxz     :     0.008166
      dyz     :     0.005131
      dx2y2   :     0.013764
      dxy     :     0.011205
  5 C s       :     3.105152  s :     3.105152
      pz      :     1.041361  p :     2.832279
      px      :     0.903739
      py      :     0.887179
      dz2     :     0.003232  d :     0.038457
      dxz     :     0.007132
      dyz     :     0.003669
      dx2y2   :     0.013506
      dxy     :     0.010919
  6 C s       :     3.151273  s :     3.151273
      pz      :     0.829250  p :     2.747191
      px      :     0.942612
      py      :     0.975329
      dz2     :     0.006379  d :     0.092660
      dxz     :     0.012208
      dyz     :     0.010742
      dx2y2   :     0.034682
      dxy     :     0.028649
  7 O s       :     3.736341  s :     3.736341
      pz      :     1.299307  p :     4.418096
      px      :     1.437068
      py      :     1.681722
      dz2     :     0.002200  d :     0.018349
      dxz     :     0.004465
      dyz     :     0.001675
      dx2y2   :     0.004349
      dxy     :     0.005660
  8 C s       :     2.960393  s :     2.960393
      pz      :     0.692186  p :     2.352488
      px      :     0.869208
      py      :     0.791094
      dz2     :     0.040215  d :     0.177303
      dxz     :     0.039588
      dyz     :     0.031740
      dx2y2   :     0.033621
      dxy     :     0.032138
  9 F s       :     3.902960  s :     3.902960
      pz      :     1.681388  p :     5.268764
      px      :     1.710833
      py      :     1.876543
      dz2     :     0.001596  d :     0.008012
      dxz     :     0.003085
      dyz     :     0.001203
      dx2y2   :     0.001121
      dxy     :     0.001007
 10 F s       :     3.884082  s :     3.884082
      pz      :     1.887642  p :     5.241658
      px      :     1.881032
      py      :     1.472984
      dz2     :     0.001244  d :     0.008802
      dxz     :     0.000156
      dyz     :     0.001783
      dx2y2   :     0.003418
      dxy     :     0.002200
 11 F s       :     3.900446  s :     3.900446
      pz      :     1.564453  p :     5.268517
      px      :     1.808773
      py      :     1.895291
      dz2     :     0.002950  d :     0.008088
      dxz     :     0.002766
      dyz     :     0.001441
      dx2y2   :     0.000508
      dxy     :     0.000424
 12 C s       :     3.228376  s :     3.228376
      pz      :     0.927774  p :     2.725260
      px      :     0.923141
      py      :     0.874345
      dz2     :     0.002917  d :     0.034955
      dxz     :     0.004020
      dyz     :     0.005720
      dx2y2   :     0.010186
      dxy     :     0.012112
 13 C s       :     3.158639  s :     3.158639
      pz      :     1.007795  p :     2.792626
      px      :     0.854477
      py      :     0.930354
      dz2     :     0.002621  d :     0.034328
      dxz     :     0.003606
      dyz     :     0.004875
      dx2y2   :     0.011687
      dxy     :     0.011538
 14 C s       :     3.232373  s :     3.232373
      pz      :     0.934523  p :     2.702672
      px      :     0.964388
      py      :     0.803761
      dz2     :     0.002536  d :     0.035518
      dxz     :     0.007264
      dyz     :     0.002769
      dx2y2   :     0.012563
      dxy     :     0.010386
 15 H s       :     0.931648  s :     0.931648
      pz      :     0.005556  p :     0.024916
      px      :     0.004244
      py      :     0.015117
 16 H s       :     0.951728  s :     0.951728
      pz      :     0.005812  p :     0.023676
      px      :     0.003418
      py      :     0.014446
 17 H s       :     0.970219  s :     0.970219
      pz      :     0.004540  p :     0.024029
      px      :     0.012374
      py      :     0.007115
 18 H s       :     0.987415  s :     0.987415
      pz      :     0.004809  p :     0.022941
      px      :     0.012791
      py      :     0.005341
 19 H s       :     0.992321  s :     0.992321
      pz      :     0.004739  p :     0.022789
      px      :     0.003402
      py      :     0.014648


                     *******************************
                     * LOEWDIN POPULATION ANALYSIS *
                     *******************************

----------------------
LOEWDIN ATOMIC CHARGES
----------------------
   0 C :   -0.195066
   1 S :    0.503288
   2 C :   -0.203179
   3 C :   -0.054180
   4 C :   -0.039064
   5 C :   -0.069359
   6 C :    0.036432
   7 O :   -0.116189
   8 C :    0.144390
   9 F :   -0.065810
  10 F :   -0.029708
  11 F :   -0.063724
  12 C :    0.015945
  13 C :   -0.037484
  14 C :    0.019823
  15 H :    0.030766
  16 H :    0.027873
  17 H :    0.028944
  18 H :    0.032282
  19 H :    0.034018

-------------------------------
LOEWDIN REDUCED ORBITAL CHARGES
-------------------------------
  0 C s       :     2.931987  s :     2.931987
      pz      :     1.101353  p :     3.180970
      px      :     1.045017
      py      :     1.034600
      dz2     :     0.006134  d :     0.082109
      dxz     :     0.013445
      dyz     :     0.005688
      dx2y2   :     0.021760
      dxy     :     0.035083
  1 S s       :     5.489232  s :     5.489232
      pz      :     3.490398  p :     9.857222
      px      :     3.373709
      py      :     2.993115
      dz2     :     0.017663  d :     0.150258
      dxz     :     0.012316
      dyz     :     0.035016
      dx2y2   :     0.021627
      dxy     :     0.063637
  2 C s       :     2.929461  s :     2.929461
      pz      :     1.114041  p :     3.191308
      px      :     1.036608
      py      :     1.040659
      dz2     :     0.006214  d :     0.082410
      dxz     :     0.014299
      dyz     :     0.005176
      dx2y2   :     0.023156
      dxy     :     0.033566
  3 C s       :     2.848917  s :     2.848917
      pz      :     0.993896  p :     3.092859
      px      :     1.057455
      py      :     1.041508
      dz2     :     0.008285  d :     0.112404
      dxz     :     0.016063
      dyz     :     0.012090
      dx2y2   :     0.041609
      dxy     :     0.034356
  4 C s       :     2.847894  s :     2.847894
      pz      :     0.996335  p :     3.081547
      px      :     1.054620
      py      :     1.030593
      dz2     :     0.008260  d :     0.109623
      dxz     :     0.017262
      dyz     :     0.010592
      dx2y2   :     0.041681
      dxy     :     0.031828
  5 C s       :     2.855065  s :     2.855065
      pz      :     1.019312  p :     3.109955
      px      :     1.060881
      py      :     1.029762
      dz2     :     0.008284  d :     0.104339
      dxz     :     0.014574
      dyz     :     0.007982
      dx2y2   :     0.039444
      dxy     :     0.034055
  6 C s       :     2.889886  s :     2.889886
      pz      :     0.817077  p :     2.859097
      px      :     1.005763
      py      :     1.036257
      dz2     :     0.014586  d :     0.214584
      dxz     :     0.022886
      dyz     :     0.021275
      dx2y2   :     0.085362
      dxy     :     0.070475
  7 O s       :     3.545353  s :     3.545353
      pz      :     1.300719  p :     4.539265
      px      :     1.536983
      py      :     1.701562
      dz2     :     0.004201  d :     0.031571
      dxz     :     0.006025
      dyz     :     0.002280
      dx2y2   :     0.007936
      dxy     :     0.011130
  8 C s       :     2.872377  s :     2.872377
      pz      :     0.791069  p :     2.608836
      px      :     0.948015
      py      :     0.869751
      dz2     :     0.088195  d :     0.374397
      dxz     :     0.084612
      dyz     :     0.060669
      dx2y2   :     0.069220
      dxy     :     0.071701
  9 F s       :     3.737563  s :     3.737563
      pz      :     1.709355  p :     5.315491
      px      :     1.731625
      py      :     1.874511
      dz2     :     0.002164  d :     0.012755
      dxz     :     0.005579
      dyz     :     0.001809
      dx2y2   :     0.001761
      dxy     :     0.001442
 10 F s       :     3.720214  s :     3.720214
      pz      :     1.882891  p :     5.295439
      px      :     1.882088
      py      :     1.530460
      dz2     :     0.002285  d :     0.014054
      dxz     :     0.000214
      dyz     :     0.002198
      dx2y2   :     0.006225
      dxy     :     0.003133
 11 F s       :     3.736207  s :     3.736207
      pz      :     1.607239  p :     5.314632
      px      :     1.817195
      py      :     1.890198
      dz2     :     0.004793  d :     0.012884
      dxz     :     0.004822
      dyz     :     0.001990
      dx2y2   :     0.000736
      dxy     :     0.000543
 12 C s       :     2.864861  s :     2.864861
      pz      :     0.918851  p :     3.028850
      px      :     1.055333
      py      :     1.054666
      dz2     :     0.006686  d :     0.090345
      dxz     :     0.008220
      dyz     :     0.012147
      dx2y2   :     0.029752
      dxy     :     0.033541
 13 C s       :     2.859221  s :     2.859221
      pz      :     0.991905  p :     3.088561
      px      :     1.049019
      py      :     1.047636
      dz2     :     0.006424  d :     0.089702
      dxz     :     0.006927
      dyz     :     0.010666
      dx2y2   :     0.033255
      dxy     :     0.032430
 14 C s       :     2.864673  s :     2.864673
      pz      :     0.925674  p :     3.024504
      px      :     1.058150
      py      :     1.040680
      dz2     :     0.006086  d :     0.090999
      dxz     :     0.015351
      dyz     :     0.005055
      dx2y2   :     0.034775
      dxy     :     0.029732
 15 H s       :     0.888811  s :     0.888811
      pz      :     0.018700  p :     0.080423
      px      :     0.013926
      py      :     0.047797
 16 H s       :     0.897444  s :     0.897444
      pz      :     0.019074  p :     0.074683
      px      :     0.011596
      py      :     0.044013
 17 H s       :     0.899155  s :     0.899155
      pz      :     0.013651  p :     0.071900
      px      :     0.036333
      py      :     0.021916
 18 H s       :     0.900368  s :     0.900368
      pz      :     0.014996  p :     0.067350
      px      :     0.036033
      py      :     0.016321
 19 H s       :     0.898894  s :     0.898894
      pz      :     0.014168  p :     0.067088
      px      :     0.011064
      py      :     0.041856


                      *****************************
                      * MAYER POPULATION ANALYSIS *
                      *****************************

  NA   - Mulliken gross atomic population
  ZA   - Total nuclear charge
  QA   - Mulliken gross atomic charge
  VA   - Mayer's total valence
  BVA  - Mayer's bonded valence
  FA   - Mayer's free valence

  ATOM       NA         ZA         QA         VA         BVA        FA
  0 C      6.1372     6.0000    -0.1372     3.7450     3.7450     0.0000
  1 S     15.8423    16.0000     0.1577     2.6190     2.6190    -0.0000
  2 C      6.1326     6.0000    -0.1326     3.7457     3.7457     0.0000
  3 C      5.9248     6.0000     0.0752     3.8930     3.8930    -0.0000
  4 C      5.9454     6.0000     0.0546     3.9611     3.9611     0.0000
  5 C      5.9759     6.0000     0.0241     3.6991     3.6991    -0.0000
  6 C      5.9911     6.0000     0.0089     4.0306     4.0306     0.0000
  7 O      8.1728     8.0000    -0.1728     2.3233     2.3233    -0.0000
  8 C      5.4902     6.0000     0.5098     4.3451     4.3451    -0.0000
  9 F      9.1797     9.0000    -0.1797     1.1668     1.1668     0.0000
 10 F      9.1345     9.0000    -0.1345     1.2377     1.2377     0.0000
 11 F      9.1771     9.0000    -0.1771     1.1702     1.1702    -0.0000
 12 C      5.9886     6.0000     0.0114     3.8085     3.8085     0.0000
 13 C      5.9856     6.0000     0.0144     3.8146     3.8146    -0.0000
 14 C      5.9706     6.0000     0.0294     3.7912     3.7912     0.0000
 15 H      0.9566     1.0000     0.0434     1.0361     1.0361    -0.0000
 16 H      0.9754     1.0000     0.0246     0.9993     0.9993    -0.0000
 17 H      0.9942     1.0000     0.0058     1.0214     1.0214     0.0000
 18 H      1.0104     1.0000    -0.0104     0.9805     0.9805    -0.0000
 19 H      1.0151     1.0000    -0.0151     0.9845     0.9845     0.0000

  Mayer bond orders larger than 0.100000
B(  0-C ,  1-S ) :   1.1895 B(  0-C ,  2-C ) :   0.1073 B(  0-C ,  4-C ) :   1.4733 
B(  0-C , 15-H ) :   0.9434 B(  1-S ,  2-C ) :   1.2267 B(  2-C ,  3-C ) :   1.3889 
B(  2-C , 16-H ) :   0.9636 B(  3-C ,  4-C ) :   1.1878 B(  3-C , 14-C ) :   1.1981 
B(  4-C ,  5-C ) :   1.1643 B(  5-C ,  6-C ) :   0.9849 B(  5-C , 12-C ) :   1.4756 
B(  6-C ,  7-O ) :   2.1064 B(  6-C ,  8-C ) :   0.8762 B(  8-C ,  9-F ) :   1.0946 
B(  8-C , 10-F ) :   1.1855 B(  8-C , 11-F ) :   1.1121 B( 12-C , 13-C ) :   1.2256 
B( 12-C , 17-H ) :   0.9552 B( 13-C , 14-C ) :   1.5014 B( 13-C , 18-H ) :   0.9802 
B( 14-C , 19-H ) :   0.9915 

-------
TIMINGS
-------

Total SCF time: 0 days 0 hours 0 min 52 sec 

Total time                  ....      52.414 sec
Sum of individual times     ....      52.257 sec  ( 99.7%)

Fock matrix formation       ....      49.701 sec  ( 94.8%)
  Split-RI-J                ....       4.436 sec  (  8.9% of F)
  Chain of spheres X        ....      41.555 sec  ( 83.6% of F)
  COS-X 1 center corr.      ....       0.000 sec  (  0.0% of F)
  XC integration            ....       3.652 sec  (  7.3% of F)
    Basis function eval.    ....       1.349 sec  ( 36.9% of XC)
    Density eval.           ....       0.822 sec  ( 22.5% of XC)
    XC-Functional eval.     ....       0.253 sec  (  6.9% of XC)
    XC-Potential eval.      ....       1.099 sec  ( 30.1% of XC)
Diagonalization             ....       0.009 sec  (  0.0%)
Density matrix formation    ....       0.010 sec  (  0.0%)
Population analysis         ....       0.007 sec  (  0.0%)
Initial guess               ....       0.009 sec  (  0.0%)
Orbital Transformation      ....       0.000 sec  (  0.0%)
Orbital Orthonormalization  ....       0.006 sec  (  0.0%)
DIIS solution               ....       0.002 sec  (  0.0%)
SOSCF solution              ....       0.031 sec  (  0.1%)
Grid generation             ....       2.489 sec  (  4.7%)


-------------------------------------------------------------------------------
                          DFT DISPERSION CORRECTION                            
                                                                               
                              DFTD3 V3.1  Rev 1                                
                          USING Becke-Johnson damping                          
-------------------------------------------------------------------------------
Gaussians B3LYP functional is recognized, using regular B3LYP params
Active option DFTDOPT                   ...         4   

molecular C6(AA) [au] = 6395.983625 


            DFT-D V3
 parameters
 s6 scaling factor         :     1.0000 
 a1 scaling factor         :     0.3981 
 s8 scaling factor         :     1.9889 
 a2 scaling factor         :     4.4211 
 ad hoc parameters k1-k3   :    16.0000     1.3333    -4.0000 

 Edisp/kcal,au: -28.799183615117  -0.045894415516 
 E6   /kcal   : -12.901639577 
 E8   /kcal   : -15.897544038 
 % E8         :  55.201370463 

-------------------------   ----------------
Dispersion correction           -0.045894416
-------------------------   ----------------


-------------------------   --------------------
FINAL SINGLE POINT ENERGY     -1156.379927517860
-------------------------   --------------------

                                *** OPTIMIZATION RUN DONE ***

                            ***************************************
                            *     ORCA property calculations      *
                            ***************************************

                                    ---------------------
                                    Active property flags
                                    ---------------------
   (+) Dipole Moment


------------------------------------------------------------------------------
                       ORCA ELECTRIC PROPERTIES CALCULATION
------------------------------------------------------------------------------

Dipole Moment Calculation                       ... on
Quadrupole Moment Calculation                   ... off
Polarizability Calculation                      ... off
GBWName                                         ... 885.gbw
Electron density file                           ... 885.scfp
The origin for moment calculation is the CENTER OF MASS  = ( 0.934265, -2.675961  0.495106)

-------------
DIPOLE MOMENT
-------------
                                X             Y             Z
Electronic contribution:      4.55481     -14.68526       1.36053
Nuclear contribution   :     -4.59195      16.25952      -1.60164
                        -----------------------------------------
Total Dipole Moment    :     -0.03714       1.57426      -0.24112
                        -----------------------------------------
Magnitude (a.u.)       :      1.59305
Magnitude (Debye)      :      4.04922



--------------------
Rotational spectrum 
--------------------
 
Rotational constants in cm-1:     0.036713     0.011402     0.009130 
Rotational constants in MHz :  1100.642181   341.816736   273.696525 

 Dipole components along the rotational axes: 
x,y,z [a.u.] :    -1.236978     1.003331     0.032104 
x,y,z [Debye]:    -3.144148     2.550266     0.081602 

 

Timings for individual modules:

Sum of individual times         ...     1125.386 sec (=  18.756 min)
GTO integral calculation        ...        2.639 sec (=   0.044 min)   0.2 %
SCF iterations                  ...      902.657 sec (=  15.044 min)  80.2 %
SCF Gradient evaluation         ...      219.134 sec (=   3.652 min)  19.5 %
Geometry relaxation             ...        0.956 sec (=   0.016 min)   0.1 %
                             ****ORCA TERMINATED NORMALLY****
TOTAL RUN TIME: 0 days 0 hours 18 minutes 46 seconds 732 msec
