
                                 *****************
                                 * O   R   C   A *
                                 *****************

           --- An Ab Initio, DFT and Semiempirical electronic structure package ---

                  #######################################################
                  #                        -***-                        #
                  #          Department of theory and spectroscopy      #
                  #               Directorship: Frank Neese             #
                  #        Max Planck Institute fuer Kohlenforschung    #
                  #                Kaiser Wilhelm Platz 1               #
                  #                 D-45470 Muelheim/Ruhr               #
                  #                      Germany                        #
                  #                                                     #
                  #                  All rights reserved                #
                  #                        -***-                        #
                  #######################################################


                         Program Version 4.2.0 -  RELEASE  -


 With contributions from (in alphabetic order):
   Daniel Aravena         : Magnetic Suceptibility
   Michael Atanasov       : Ab Initio Ligand Field Theory (pilot matlab implementation)
   Alexander A. Auer      : GIAO ZORA, VPT2
   Ute Becker             : Parallelization
   Giovanni Bistoni       : ED, misc. LED, open-shell LED, HFLED
   Martin Brehm           : Molecular dynamics
   Dmytro Bykov           : SCF Hessian
   Vijay G. Chilkuri      : MRCI spin determinant printing, contributions to CSF-ICE
   Dipayan Datta          : RHF DLPNO-CCSD density
   Achintya Kumar Dutta   : EOM-CC, STEOM-CC
   Dmitry Ganyushin       : Spin-Orbit,Spin-Spin,Magnetic field MRCI
   Miquel Garcia          : C-PCM Hessian, Gaussian charge scheme
   Yang Guo               : DLPNO-NEVPT2, CIM, IAO-localization
   Andreas Hansen         : Spin unrestricted coupled pair/coupled cluster methods
   Benjamin Helmich-Paris : CASSCF linear response (MC-RPA)
   Lee Huntington         : MR-EOM, pCC
   Robert Izsak           : Overlap fitted RIJCOSX, COSX-SCS-MP3, EOM
   Christian Kollmar      : KDIIS, OOCD, Brueckner-CCSD(T), CCSD density
   Simone Kossmann        : Meta GGA functionals, TD-DFT gradient, OOMP2, MP2 Hessian
   Martin Krupicka        : AUTO-CI
   Lucas Lang             : DCDCAS
   Dagmar Lenk            : GEPOL surface, SMD
   Dimitrios Liakos       : Extrapolation schemes; Compound Job, initial MDCI parallelization
   Dimitrios Manganas     : Further ROCIS development; embedding schemes
   Dimitrios Pantazis     : SARC Basis sets
   Taras Petrenko         : DFT Hessian,TD-DFT gradient, ASA, ECA, R-Raman, ABS, FL, XAS/XES, NRVS
   Peter Pinski           : DLPNO-MP2, DLPNO-MP2 Gradient
   Christoph Reimann      : Effective Core Potentials
   Marius Retegan         : Local ZFS, SOC
   Christoph Riplinger    : Optimizer, TS searches, QM/MM, DLPNO-CCSD(T), (RO)-DLPNO pert. Triples
   Tobias Risthaus        : Range-separated hybrids, TD-DFT gradient, RPA, STAB
   Michael Roemelt        : Original ROCIS implementation
   Masaaki Saitow         : Open-shell DLPNO-CCSD energy and density
   Barbara Sandhoefer     : DKH picture change effects
   Avijit Sen             : IP-ROCIS
   Kantharuban Sivalingam : CASSCF convergence, NEVPT2, FIC-MRCI
   Bernardo de Souza      : ESD, SOC TD-DFT
   Georgi Stoychev        : AutoAux, RI-MP2 NMR
   Willem Van den Heuvel  : Paramagnetic NMR
   Boris Wezisla          : Elementary symmetry handling
   Frank Wennmohs         : Technical directorship


 We gratefully acknowledge several colleagues who have allowed us to
 interface, adapt or use parts of their codes:
   Stefan Grimme, W. Hujo, H. Kruse,             : VdW corrections, initial TS optimization,
                  C. Bannwarth                     DFT functionals, gCP, sTDA/sTD-DF
   Ed Valeev, F. Pavosevic, A. Kumar             : LibInt (2-el integral package), F12 methods
   Garnet Chan, S. Sharma, J. Yang, R. Olivares  : DMRG
   Ulf Ekstrom                                   : XCFun DFT Library
   Mihaly Kallay                                 : mrcc  (arbitrary order and MRCC methods)
   Andreas Klamt, Michael Diedenhofen            : otool_cosmo (COSMO solvation model)
   Jiri Pittner, Ondrej Demel                    : Mk-CCSD
   Frank Weinhold                                : gennbo (NPA and NBO analysis)
   Christopher J. Cramer and Donald G. Truhlar   : smd solvation model
   Lars Goerigk                                  : TD-DFT with DH, B97 family of functionals
   V. Asgeirsson, H. Jonsson                     : NEB implementation
   FAccTs GmbH                                   : IRC, NEB, NEB-TS, Multilevel, MM, QM/MM, CI optimization
   S Lehtola, MJT Oliveira, MAL Marques          : LibXC Library


 Your calculation uses the libint2 library for the computation of 2-el integrals
 For citations please refer to: http://libint.valeyev.net

 Your ORCA version has been built with support for libXC version: 4.2.3
 For citations please refer to: https://tddft.org/programs/libxc/

 This ORCA versions uses:
   CBLAS   interface :  Fast vector & matrix operations
   LAPACKE interface :  Fast linear algebra routines
   SCALAPACK package :  Parallel linear algebra routines


Your calculation utilizes the atom-pairwise dispersion correction
with the Becke-Johnson damping scheme (D3BJ)
Cite in your paper:
S.Grimme, S.Ehrlich, L.Goerigk, J Comput Chem, (2011), 32, 1456–1465 
S.Grimme, J.Antony, S.Ehrlich and H.Krieg, J.Chem.Phys., 132, (2010), 154104 
   

----- Orbital basis set information -----
Your calculation utilizes the basis: def2-SVP
   F. Weigend and R. Ahlrichs, Phys. Chem. Chem. Phys. 7, 3297 (2005).

----- AuxJ basis set information -----
Your calculation utilizes the auxiliary basis: def2/J
   F. Weigend, Phys. Chem. Chem. Phys. 8, 1057 (2006).

================================================================================
                                        WARNINGS
                       Please study these warnings very carefully!
================================================================================


WARNING: Geometry Optimization
  ===> : Switching off AutoStart
         For restart on a previous wavefunction, please use MOREAD

INFO   : the flag for use of LIBINT has been found!

================================================================================
                                       INPUT FILE
================================================================================
NAME = 922.inp
|  1> # ORCA input file
|  2> # SCF done        -27.540134416349          0.000831236498
|  3> ! B3LYP/G D3BJ Opt RIJCOSX def2-SVP def2/J
|  4> * xyz 0 1
|  5>    C       -1.14665         0.04573        -0.13631
|  6>    C       -0.44098         1.18999        -0.02302
|  7>    F       -0.92863         2.42782        -0.05711
|  8>    S        1.26744         0.95991         0.18760
|  9>    C        0.98948        -0.74792         0.11895
| 10>    F        2.02700        -1.57682         0.23236
| 11>    C       -0.31596        -1.11299        -0.05518
| 12>    C       -0.74650        -2.49520        -0.13881
| 13>    C       -1.99088        -2.89746        -0.36610
| 14>    H       -2.21104         0.01959        -0.26708
| 15>    H        0.04356        -3.22161        -0.00283
| 16>    H       -2.80429        -2.20827        -0.51217
| 17>    H       -2.23600        -3.94333        -0.41787
| 18> *
| 19> 
| 20>                          ****END OF INPUT****
================================================================================

                       *****************************
                       * Geometry Optimization Run *
                       *****************************

Geometry optimization settings:
Update method            Update   .... BFGS
Choice of coordinates    CoordSys .... Z-matrix Internals
Initial Hessian          InHess   .... Almoef's Model

Convergence Tolerances:
Energy Change            TolE     ....  5.0000e-06 Eh
Max. Gradient            TolMAXG  ....  3.0000e-04 Eh/bohr
RMS Gradient             TolRMSG  ....  1.0000e-04 Eh/bohr
Max. Displacement        TolMAXD  ....  4.0000e-03 bohr
RMS Displacement         TolRMSD  ....  2.0000e-03 bohr
Strict Convergence                ....  False
------------------------------------------------------------------------------
                        ORCA OPTIMIZATION COORDINATE SETUP
------------------------------------------------------------------------------

The optimization will be done in new redundant internal coordinates
Making redundant internal coordinates   ...  (new redundants) done
Evaluating the initial hessian          ...  (Almloef) done
Evaluating the coordinates              ...  done
Calculating the B-matrix                .... done
Calculating the G-matrix                .... done
Diagonalizing the G-matrix              .... done
The first mode is                       ....   23
The number of degrees of freedom        ....   33

    -----------------------------------------------------------------
                    Redundant Internal Coordinates


    -----------------------------------------------------------------
         Definition                    Initial Value    Approx d2E/dq
    -----------------------------------------------------------------
      1. B(C   1,C   0)                  1.3491         0.726028   
      2. B(F   2,C   1)                  1.3309         0.646132   
      3. B(S   3,C   1)                  1.7367         0.471442   
      4. B(C   4,S   3)                  1.7317         0.480180   
      5. B(F   5,C   4)                  1.3328         0.641517   
      6. B(C   6,C   4)                  1.3667         0.680721   
      7. B(C   6,C   0)                  1.4280         0.543337   
      8. B(C   7,C   6)                  1.4501         0.500971   
      9. B(C   8,C   7)                  1.3274         0.786383   
     10. B(H   9,C   0)                  1.0727         0.383712   
     11. B(H  10,C   7)                  1.0818         0.371071   
     12. B(H  11,C   8)                  1.0761         0.378989   
     13. B(H  12,C   8)                  1.0755         0.379862   
     14. A(C   1,C   0,H   9)          123.3605         0.366469   
     15. A(C   6,C   0,H   9)          124.3568         0.348850   
     16. A(C   1,C   0,C   6)          112.2819         0.436093   
     17. A(F   2,C   1,S   3)          119.1297         0.434526   
     18. A(C   0,C   1,F   2)          126.5165         0.445007   
     19. A(C   0,C   1,S   3)          114.3538         0.448717   
     20. A(C   1,S   3,C   4)           88.1632         0.439581   
     21. A(S   3,C   4,C   6)          114.9499         0.444985   
     22. A(S   3,C   4,F   5)          119.0146         0.435402   
     23. A(F   5,C   4,C   6)          126.0353         0.439283   
     24. A(C   4,C   6,C   7)          123.0630         0.424840   
     25. A(C   0,C   6,C   7)          126.6859         0.408135   
     26. A(C   0,C   6,C   4)          110.2511         0.431068   
     27. A(C   6,C   7,H  10)          114.5787         0.342192   
     28. A(C   6,C   7,C   8)          125.2441         0.435989   
     29. A(C   8,C   7,H  10)          120.1767         0.369396   
     30. A(H  11,C   8,H  12)          116.3608         0.295673   
     31. A(C   7,C   8,H  12)          121.1059         0.370886   
     32. A(C   7,C   8,H  11)          122.5329         0.370739   
     33. D(S   3,C   1,C   0,H   9)    179.7433         0.037363   
     34. D(F   2,C   1,C   0,H   9)     -0.1950         0.037363   
     35. D(F   2,C   1,C   0,C   6)   -179.8983         0.037363   
     36. D(S   3,C   1,C   0,C   6)      0.0400         0.037363   
     37. D(C   4,S   3,C   1,F   2)    179.8564         0.004776   
     38. D(C   4,S   3,C   1,C   0)     -0.0868         0.004776   
     39. D(F   5,C   4,S   3,C   1)    179.9550         0.004904   
     40. D(C   6,C   4,S   3,C   1)      0.1163         0.004904   
     41. D(C   0,C   6,C   4,F   5)   -179.9414         0.032487   
     42. D(C   0,C   6,C   4,S   3)     -0.1158         0.032487   
     43. D(C   7,C   6,C   0,H   9)      0.3124         0.020179   
     44. D(C   7,C   6,C   0,C   1)   -179.9878         0.020179   
     45. D(C   4,C   6,C   0,H   9)   -179.6526         0.020179   
     46. D(C   7,C   6,C   4,S   3)    179.9177         0.032487   
     47. D(C   4,C   6,C   0,C   1)      0.0472         0.020179   
     48. D(C   7,C   6,C   4,F   5)      0.0921         0.032487   
     49. D(H  10,C   7,C   6,C   4)      2.9046         0.017095   
     50. D(H  10,C   7,C   6,C   0)   -177.0562         0.017095   
     51. D(C   8,C   7,C   6,C   4)   -176.8441         0.017095   
     52. D(C   8,C   7,C   6,C   0)      3.1951         0.017095   
     53. D(H  12,C   8,C   7,H  10)      0.0735         0.044524   
     54. D(H  12,C   8,C   7,C   6)    179.8092         0.044524   
     55. D(H  11,C   8,C   7,H  10)   -179.6536         0.044524   
     56. D(H  11,C   8,C   7,C   6)      0.0821         0.044524   
    -----------------------------------------------------------------

Number of atoms                         .... 13
Number of degrees of freedom            .... 56

         *************************************************************
         *                GEOMETRY OPTIMIZATION CYCLE   1            *
         *************************************************************
---------------------------------
CARTESIAN COORDINATES (ANGSTROEM)
---------------------------------
  C     -1.146650    0.045730   -0.136310
  C     -0.440980    1.189990   -0.023020
  F     -0.928630    2.427820   -0.057110
  S      1.267440    0.959910    0.187600
  C      0.989480   -0.747920    0.118950
  F      2.027000   -1.576820    0.232360
  C     -0.315960   -1.112990   -0.055180
  C     -0.746500   -2.495200   -0.138810
  C     -1.990880   -2.897460   -0.366100
  H     -2.211040    0.019590   -0.267080
  H      0.043560   -3.221610   -0.002830
  H     -2.804290   -2.208270   -0.512170
  H     -2.236000   -3.943330   -0.417870

----------------------------
CARTESIAN COORDINATES (A.U.)
----------------------------
  NO LB      ZA    FRAG     MASS         X           Y           Z
   0 C     6.0000    0    12.011   -2.166854    0.086417   -0.257589
   1 C     6.0000    0    12.011   -0.833331    2.248755   -0.043501
   2 F     9.0000    0    18.998   -1.754856    4.587915   -0.107922
   3 S    16.0000    0    32.060    2.395114    1.813967    0.354513
   4 C     6.0000    0    12.011    1.869846   -1.413364    0.224783
   5 F     9.0000    0    18.998    3.830475   -2.979758    0.439097
   6 C     6.0000    0    12.011   -0.597078   -2.103246   -0.104275
   7 C     6.0000    0    12.011   -1.410681   -4.715245   -0.262313
   8 C     6.0000    0    12.011   -3.762218   -5.475406   -0.691829
   9 H     1.0000    0     1.008   -4.178260    0.037020   -0.504708
  10 H     1.0000    0     1.008    0.082316   -6.087961   -0.005348
  11 H     1.0000    0     1.008   -5.299340   -4.173026   -0.967861
  12 H     1.0000    0     1.008   -4.225428   -7.451814   -0.789660

--------------------------------
INTERNAL COORDINATES (ANGSTROEM)
--------------------------------
 C      0   0   0     0.000000000000     0.00000000     0.00000000
 C      1   0   0     1.349124056786     0.00000000     0.00000000
 F      2   1   0     1.330859782058   126.51651641     0.00000000
 S      2   1   3     1.736662456322   114.35376744   179.93830623
 C      4   2   1     1.731663331309    88.16317420   359.91315063
 F      5   4   2     1.332810859987   119.01461510   179.95502875
 C      5   4   2     1.366664170673   114.94985145     0.11629061
 C      7   5   4     1.450125219628   123.06296034   179.91766027
 C      8   7   5     1.327386694261   125.24409420   183.15587844
 H      1   2   3     1.072711594325   123.36049142   359.80495119
 H      8   7   5     1.081830325005   114.57870534     2.90458534
 H      9   8   7     1.076083235210   122.53285020     0.08206606
 H      9   8   7     1.075457114068   121.10586173   179.80915176

---------------------------
INTERNAL COORDINATES (A.U.)
---------------------------
 C      0   0   0     0.000000000000     0.00000000     0.00000000
 C      1   0   0     2.549474988011     0.00000000     0.00000000
 F      2   1   0     2.514960510740   126.51651641     0.00000000
 S      2   1   3     3.281816429512   114.35376744   179.93830623
 C      4   2   1     3.272369452328    88.16317420   359.91315063
 F      5   4   2     2.518647513692   119.01461510   179.95502875
 C      5   4   2     2.582620999614   114.94985145     0.11629061
 C      7   5   4     2.740339524989   123.06296034   179.91766027
 C      8   7   5     2.508397325964   125.24409420   183.15587844
 H      1   2   3     2.027131133957   123.36049142   359.80495119
 H      8   7   5     2.044363037630   114.57870534     2.90458534
 H      9   8   7     2.033502611851   122.53285020     0.08206606
 H      9   8   7     2.032319414366   121.10586173   179.80915176

---------------------
BASIS SET INFORMATION
---------------------
There are 4 groups of distinct atoms

 Group   1 Type C   : 7s4p1d contracted to 3s2p1d pattern {511/31/1}
 Group   2 Type F   : 7s4p1d contracted to 3s2p1d pattern {511/31/1}
 Group   3 Type S   : 10s7p1d contracted to 4s3p1d pattern {5311/511/1}
 Group   4 Type H   : 4s1p contracted to 2s1p pattern {31/1}

Atom   0C    basis set group =>   1
Atom   1C    basis set group =>   1
Atom   2F    basis set group =>   2
Atom   3S    basis set group =>   3
Atom   4C    basis set group =>   1
Atom   5F    basis set group =>   2
Atom   6C    basis set group =>   1
Atom   7C    basis set group =>   1
Atom   8C    basis set group =>   1
Atom   9H    basis set group =>   4
Atom  10H    basis set group =>   4
Atom  11H    basis set group =>   4
Atom  12H    basis set group =>   4
---------------------------------
AUXILIARY/J BASIS SET INFORMATION
---------------------------------
There are 4 groups of distinct atoms

 Group   1 Type C   : 12s5p4d2f1g contracted to 6s4p3d1f1g pattern {711111/2111/211/2/1}
 Group   2 Type F   : 12s5p4d2f1g contracted to 6s4p3d1f1g pattern {711111/2111/211/2/1}
 Group   3 Type S   : 14s5p5d2f1g contracted to 8s4p3d1f1g pattern {71111111/2111/311/2/1}
 Group   4 Type H   : 5s2p1d contracted to 3s1p1d pattern {311/2/1}

Atom   0C    basis set group =>   1
Atom   1C    basis set group =>   1
Atom   2F    basis set group =>   2
Atom   3S    basis set group =>   3
Atom   4C    basis set group =>   1
Atom   5F    basis set group =>   2
Atom   6C    basis set group =>   1
Atom   7C    basis set group =>   1
Atom   8C    basis set group =>   1
Atom   9H    basis set group =>   4
Atom  10H    basis set group =>   4
Atom  11H    basis set group =>   4
Atom  12H    basis set group =>   4
------------------------------------------------------------------------------
                           ORCA GTO INTEGRAL CALCULATION
                           -- RI-GTO INTEGRALS CHOSEN --
------------------------------------------------------------------------------

                         BASIS SET STATISTICS AND STARTUP INFO

Gaussian basis set:
 # of primitive gaussian shells          ...  134
 # of primitive gaussian functions       ...  256
 # of contracted shells                  ...   68
 # of contracted basis functions         ...  150
 Highest angular momentum                ...    2
 Maximum contraction depth               ...    5
Auxiliary gaussian basis set:
 # of primitive gaussian shells          ...  251
 # of primitive gaussian functions       ...  701
 # of contracted shells                  ...  157
 # of contracted aux-basis functions     ...  487
 Highest angular momentum                ...    4
 Maximum contraction depth               ...    7
Ratio of auxiliary to basis functions    ...  3.25
Integral package used                  ... LIBINT
 One Electron integrals                  ... done
 Ordering auxiliary basis shells         ... done
 Integral threshhold             Thresh  ...  2.500e-11
 Primitive cut-off               TCut    ...  2.500e-12
 Pre-screening matrix                    ... done
 Shell pair data                         ... 
 Ordering of the shell pairs             ... done (   0.000 sec) 2123 of 2346 pairs
 Determination of significant pairs      ... done (   0.000 sec)
 Creation of shell pair data             ... done (   0.000 sec)
 Storage of shell pair data              ... done (   0.001 sec)
 Shell pair data done in (   0.001 sec)
 Computing two index integrals           ... done
 Cholesky decomposition of the V-matrix  ... done


Timings:
 Total evaluation time                   ...   0.242 sec (  0.004 min)
 One electron matrix time                ...   0.012 sec (  0.000 min) =  4.8%
 Schwartz matrix evaluation time         ...   0.103 sec (  0.002 min) = 42.5%
 Two index repulsion integral time       ...   0.006 sec (  0.000 min) =  2.6%
 Cholesky decomposition of V             ...   0.103 sec (  0.002 min) = 42.5%
 Three index repulsion integral time     ...   0.000 sec (  0.000 min) =  0.0%

-------------------------------------------------------------------------------
                                 ORCA SCF
-------------------------------------------------------------------------------

------------
SCF SETTINGS
------------
Hamiltonian:
 Density Functional     Method          .... DFT(GTOs)
 Exchange Functional    Exchange        .... B88
   X-Alpha parameter    XAlpha          ....  0.666667
   Becke's b parameter  XBeta           ....  0.004200
 Correlation Functional Correlation     .... LYP
 LDA part of GGA corr.  LDAOpt          .... VWN-3
 Gradients option       PostSCFGGA      .... off
 Hybrid DFT is turned on
   Fraction HF Exchange ScalHFX         ....  0.200000
   Scaling of DF-GGA-X  ScalDFX         ....  0.720000
   Scaling of DF-GGA-C  ScalDFC         ....  0.810000
   Scaling of DF-LDA-C  ScalLDAC        ....  1.000000
   Perturbative correction              ....  0.000000
   Density functional embedding theory  .... OFF
   NL short-range parameter             ....  4.800000
 RI-approximation to the Coulomb term is turned on
   Number of auxiliary basis functions  .... 487
   RIJ-COSX (HFX calculated with COS-X)).... on


General Settings:
 Integral files         IntName         .... 922
 Hartree-Fock type      HFTyp           .... RHF
 Total Charge           Charge          ....    0
 Multiplicity           Mult            ....    1
 Number of Electrons    NEL             ....   74
 Basis Dimension        Dim             ....  150
 Nuclear Repulsion      ENuc            ....    499.7723445875 Eh

Convergence Acceleration:
 DIIS                   CNVDIIS         .... on
   Start iteration      DIISMaxIt       ....    12
   Startup error        DIISStart       ....  0.200000
   # of expansion vecs  DIISMaxEq       ....     5
   Bias factor          DIISBfac        ....   1.050
   Max. coefficient     DIISMaxC        ....  10.000
 Newton-Raphson         CNVNR           .... off
 SOSCF                  CNVSOSCF        .... on
   Start iteration      SOSCFMaxIt      ....   150
   Startup grad/error   SOSCFStart      ....  0.003300
 Level Shifting         CNVShift        .... on
   Level shift para.    LevelShift      ....    0.2500
   Turn off err/grad.   ShiftErr        ....    0.0010
 Zerner damping         CNVZerner       .... off
 Static damping         CNVDamp         .... on
   Fraction old density DampFac         ....    0.7000
   Max. Damping (<1)    DampMax         ....    0.9800
   Min. Damping (>=0)   DampMin         ....    0.0000
   Turn off err/grad.   DampErr         ....    0.1000
 Fernandez-Rico         CNVRico         .... off

SCF Procedure:
 Maximum # iterations   MaxIter         ....   125
 SCF integral mode      SCFMode         .... Direct
   Integral package                     .... LIBINT
 Reset frequency        DirectResetFreq ....    20
 Integral Threshold     Thresh          ....  2.500e-11 Eh
 Primitive CutOff       TCut            ....  2.500e-12 Eh

Convergence Tolerance:
 Convergence Check Mode ConvCheckMode   .... Total+1el-Energy
 Convergence forced     ConvForced      .... 0
 Energy Change          TolE            ....  1.000e-08 Eh
 1-El. energy change                    ....  1.000e-05 Eh
 Orbital Gradient       TolG            ....  1.000e-05
 Orbital Rotation angle TolX            ....  1.000e-05
 DIIS Error             TolErr          ....  5.000e-07


Diagonalization of the overlap matrix:
Smallest eigenvalue                        ... 7.035e-04
Time for diagonalization                   ...    0.166 sec
Threshold for overlap eigenvalues          ... 1.000e-08
Number of eigenvalues below threshold      ... 0
Time for construction of square roots      ...    0.001 sec
Total time needed                          ...    0.167 sec

-------------------
DFT GRID GENERATION
-------------------

General Integration Accuracy     IntAcc      ...  4.340
Radial Grid Type                 RadialGrid  ... Gauss-Chebyshev
Angular Grid (max. acc.)         AngularGrid ... Lebedev-110
Angular grid pruning method      GridPruning ... 3 (G Style)
Weight generation scheme         WeightScheme... Becke
Basis function cutoff            BFCut       ...    1.0000e-11
Integration weight cutoff        WCut        ...    1.0000e-14
Grids for H and He will be reduced by one unit

# of grid points (after initial pruning)     ...  18398 (   0.0 sec)
# of grid points (after weights+screening)   ...  17286 (   0.0 sec)
nearest neighbour list constructed           ...    0.0 sec
Grid point re-assignment to atoms done       ...    0.0 sec
Grid point division into batches done        ...    0.0 sec
Reduced shell lists constructed in    0.1 sec

Total number of grid points                  ...    17286
Total number of batches                      ...      277
Average number of points per batch           ...       62
Average number of grid points per atom       ...     1330
Average number of shells per batch           ...    45.74 (67.27%)
Average number of basis functions per batch  ...   101.31 (67.54%)
Average number of large shells per batch     ...    35.96 (78.62%)
Average number of large basis fcns per batch ...    78.56 (77.54%)
Maximum spatial batch extension              ...  18.91, 20.81, 25.60 au
Average spatial batch extension              ...   3.97,  3.69,  4.77 au

Time for grid setup =    0.131 sec

------------------------------
INITIAL GUESS: MODEL POTENTIAL
------------------------------
Loading Hartree-Fock densities                     ... done
Calculating cut-offs                               ... done
Setting up the integral package                    ... done
Initializing the effective Hamiltonian             ... done
Starting the Coulomb interaction                   ... done (   0.1 sec)
Reading the grid                                   ... done
Mapping shells                                     ... done
Starting the XC term evaluation                    ... done (   0.1 sec)
  promolecular density results
     # of electrons  =     74.004835633
     EX              =    -77.193989802
     EC              =     -2.696568641
     EX+EC           =    -79.890558443
Transforming the Hamiltonian                       ... done (   0.0 sec)
Diagonalizing the Hamiltonian                      ... done (   0.0 sec)
Back transforming the eigenvectors                 ... done (   0.0 sec)
Now organizing SCF variables                       ... done
                      ------------------
                      INITIAL GUESS DONE (   0.4 sec)
                      ------------------
--------------------
COSX GRID GENERATION
--------------------

General Integration Accuracy     IntAcc      ...  3.340
Radial Grid Type                 RadialGrid  ... Gauss-Chebyshev
Angular Grid (max. acc.)         AngularGrid ... Lebedev-50
Angular grid pruning method      GridPruning ... 3 (G Style)
Weight generation scheme         WeightScheme... Becke
Basis function cutoff            BFCut       ...    1.0000e-11
Integration weight cutoff        WCut        ...    1.0000e-14
Grids for H and He will be reduced by one unit

# of grid points (after initial pruning)     ...   6626 (   0.0 sec)
# of grid points (after weights+screening)   ...   6286 (   0.0 sec)
nearest neighbour list constructed           ...    0.0 sec
Grid point re-assignment to atoms done       ...    0.0 sec
Grid point division into batches done        ...    0.0 sec
Reduced shell lists constructed in    0.0 sec

Total number of grid points                  ...     6286
Total number of batches                      ...      106
Average number of points per batch           ...       59
Average number of grid points per atom       ...      484
Average number of shells per batch           ...    49.21 (72.37%)
Average number of basis functions per batch  ...   109.50 (73.00%)
Average number of large shells per batch     ...    39.26 (79.78%)
Average number of large basis fcns per batch ...    86.33 (78.84%)
Maximum spatial batch extension              ...  21.07, 15.11, 30.57 au
Average spatial batch extension              ...   5.24,  4.54,  6.34 au

Overlap Fitting                  UseSFitting ... on
Constructing numerical overlap ... done (      0.0 sec)
Inverting numerical overlap    ... done (      0.0 sec)
Obtaining analytic overlap     ... done (      0.0 sec)
Final contraction and storage  ... done (      0.0 sec)


General Integration Accuracy     IntAcc      ...  3.670
Radial Grid Type                 RadialGrid  ... Gauss-Chebyshev
Angular Grid (max. acc.)         AngularGrid ... Lebedev-50
Angular grid pruning method      GridPruning ... 3 (G Style)
Weight generation scheme         WeightScheme... Becke
Basis function cutoff            BFCut       ...    1.0000e-11
Integration weight cutoff        WCut        ...    1.0000e-14
Grids for H and He will be reduced by one unit

# of grid points (after initial pruning)     ...   8262 (   0.0 sec)
# of grid points (after weights+screening)   ...   7828 (   0.0 sec)
nearest neighbour list constructed           ...    0.0 sec
Grid point re-assignment to atoms done       ...    0.0 sec
Grid point division into batches done        ...    0.0 sec
Reduced shell lists constructed in    0.0 sec

Total number of grid points                  ...     7828
Total number of batches                      ...      127
Average number of points per batch           ...       61
Average number of grid points per atom       ...      602
Average number of shells per batch           ...    48.40 (71.17%)
Average number of basis functions per batch  ...   107.40 (71.60%)
Average number of large shells per batch     ...    38.40 (79.34%)
Average number of large basis fcns per batch ...    84.04 (78.25%)
Maximum spatial batch extension              ...  20.98, 16.24, 35.08 au
Average spatial batch extension              ...   5.05,  4.32,  6.22 au

Overlap Fitting                  UseSFitting ... on
Constructing numerical overlap ... done (      0.0 sec)
Inverting numerical overlap    ... done (      0.0 sec)
Obtaining analytic overlap     ... done (      0.0 sec)
Final contraction and storage  ... done (      0.0 sec)


General Integration Accuracy     IntAcc      ...  4.010
Radial Grid Type                 RadialGrid  ... Gauss-Chebyshev
Angular Grid (max. acc.)         AngularGrid ... Lebedev-110
Angular grid pruning method      GridPruning ... 3 (G Style)
Weight generation scheme         WeightScheme... Becke
Basis function cutoff            BFCut       ...    1.0000e-11
Integration weight cutoff        WCut        ...    1.0000e-14
Grids for H and He will be reduced by one unit

# of grid points (after initial pruning)     ...  16004 (   0.0 sec)
# of grid points (after weights+screening)   ...  15055 (   0.0 sec)
nearest neighbour list constructed           ...    0.0 sec
Grid point re-assignment to atoms done       ...    0.0 sec
Grid point division into batches done        ...    0.0 sec
Reduced shell lists constructed in    0.1 sec

Total number of grid points                  ...    15055
Total number of batches                      ...      242
Average number of points per batch           ...       62
Average number of grid points per atom       ...     1158
Average number of shells per batch           ...    46.21 (67.96%)
Average number of basis functions per batch  ...   102.34 (68.22%)
Average number of large shells per batch     ...    36.43 (78.83%)
Average number of large basis fcns per batch ...    79.68 (77.86%)
Maximum spatial batch extension              ...  19.25, 18.23, 24.23 au
Average spatial batch extension              ...   4.03,  3.81,  4.98 au

Overlap Fitting                  UseSFitting ... on
Constructing numerical overlap ... done (      0.1 sec)
Inverting numerical overlap    ... done (      0.0 sec)
Obtaining analytic overlap     ... done (      0.0 sec)
Final contraction and storage  ... done (      0.0 sec)

Time for X-Grid setup             =    0.397 sec
--------------
SCF ITERATIONS
--------------
ITER       Energy         Delta-E        Max-DP      RMS-DP      [F,P]     Damp
               ***  Starting incremental Fock matrix formation  ***
  0   -828.2063581799   0.000000000000 0.08872482  0.00264865  0.1774965 0.7000
  1   -828.3163168366  -0.109958656641 0.06224565  0.00183712  0.0880373 0.7000
                               ***Turning on DIIS***
  2   -828.3537833454  -0.037466508817 0.09130199  0.00289158  0.0287906 0.0000
  3   -828.4050223890  -0.051239043617 0.04016230  0.00152976  0.0606437 0.0000
  4   -828.4258174879  -0.020795098902 0.01573534  0.00049678  0.0156767 0.0000
  5   -828.4272177728  -0.001400284848 0.00591925  0.00017128  0.0061399 0.0000
                      *** Initiating the SOSCF procedure ***
                           *** Shutting down DIIS ***
                      *** Re-Reading the Fockian *** 
                      *** Removing any level shift *** 
ITER      Energy       Delta-E        Grad      Rot      Max-DP    RMS-DP
  6   -828.42738363  -0.0001658548  0.001094  0.001094  0.001679  0.000060
               *** Restarting incremental Fock matrix formation ***
  7   -828.42739957  -0.0000159386  0.000458  0.002031  0.001938  0.000053
  8   -828.42740442  -0.0000048489  0.000209  0.000713  0.000758  0.000031
  9   -828.42740441   0.0000000050  0.000253  0.000527  0.000439  0.000017
 10   -828.42740546  -0.0000010525  0.000051  0.000173  0.000199  0.000007
 11   -828.42740546   0.0000000048  0.000045  0.000093  0.000102  0.000004
 12   -828.42740554  -0.0000000862  0.000009  0.000043  0.000062  0.000002
 13   -828.42740554   0.0000000044  0.000015  0.000028  0.000041  0.000001
                  ***Gradient check signals convergence***
              ***Rediagonalizing the Fockian in SOSCF/NRSCF***

               *****************************************************
               *                     SUCCESS                       *
               *           SCF CONVERGED AFTER  14 CYCLES          *
               *****************************************************

Setting up the final grid:

General Integration Accuracy     IntAcc      ...  4.670
Radial Grid Type                 RadialGrid  ... Gauss-Chebyshev
Angular Grid (max. acc.)         AngularGrid ... Lebedev-302
Angular grid pruning method      GridPruning ... 3 (G Style)
Weight generation scheme         WeightScheme... Becke
Basis function cutoff            BFCut       ...    1.0000e-11
Integration weight cutoff        WCut        ...    1.0000e-14
Grids for H and He will be reduced by one unit

# of grid points (after initial pruning)     ...  70238 (   0.0 sec)
# of grid points (after weights+screening)   ...  65185 (   0.1 sec)
nearest neighbour list constructed           ...    0.0 sec
Grid point re-assignment to atoms done       ...    0.0 sec
Grid point division into batches done        ...    0.3 sec
Reduced shell lists constructed in    0.6 sec

Total number of grid points                  ...    65185
Total number of batches                      ...     1026
Average number of points per batch           ...       63
Average number of grid points per atom       ...     5014
Average number of shells per batch           ...    41.47 (60.98%)
Average number of basis functions per batch  ...    91.04 (60.69%)
Average number of large shells per batch     ...    32.16 (77.56%)
Average number of large basis fcns per batch ...    69.71 (76.58%)
Maximum spatial batch extension              ...  19.06, 16.91, 24.59 au
Average spatial batch extension              ...   2.63,  2.51,  2.96 au

Final grid set up in    0.7 sec
Final integration                            ... done (   0.7 sec)
Change in XC energy                          ...     0.000211168
Integrated number of electrons               ...    73.999990640
Previous integrated no of electrons          ...    74.003017620
Old exchange energy                            =    -15.522835498 Eh
New exchange energy                            =    -15.521917899 Eh
Exchange energy change after final integration =      0.000917600 Eh
Total energy after final integration           =   -828.426276777 Eh
Final COS-X integration done in                =     3.401 sec

----------------
TOTAL SCF ENERGY
----------------

Total Energy       :         -828.42627678 Eh          -22542.62504 eV

Components:
Nuclear Repulsion  :          499.77234459 Eh           13599.49688 eV
Electronic Energy  :        -1328.19862136 Eh          -36142.12192 eV
One Electron Energy:        -2131.13880838 Eh          -57991.23519 eV
Two Electron Energy:          802.94018702 Eh           21849.11328 eV

Virial components:
Potential Energy   :        -1652.59280752 Eh          -44969.33649 eV
Kinetic Energy     :          824.16653075 Eh           22426.71145 eV
Virial Ratio       :            2.00516855


DFT components:
N(Alpha)           :       36.999995319828 electrons
N(Beta)            :       36.999995319828 electrons
N(Total)           :       73.999990639657 electrons
E(X)               :      -61.708556681963 Eh       
E(C)               :       -3.444994274564 Eh       
E(XC)              :      -65.153550956527 Eh       
DFET-embed. en.    :        0.000000000000 Eh       

---------------
SCF CONVERGENCE
---------------

  Last Energy change         ...   -4.7887e-09  Tolerance :   1.0000e-08
  Last MAX-Density change    ...    2.6645e-15  Tolerance :   1.0000e-07
  Last RMS-Density change    ...    5.3770e-17  Tolerance :   5.0000e-09
  Last Orbital Gradient      ...    1.4771e-06  Tolerance :   1.0000e-05
  Last Orbital Rotation      ...    5.4707e-06  Tolerance :   1.0000e-05

             **** THE GBW FILE WAS UPDATED (922.gbw) ****
             **** DENSITY FILE WAS UPDATED (922.scfp) ****
             **** ENERGY FILE WAS UPDATED (922.en.tmp) ****
             **** THE GBW FILE WAS UPDATED (922.gbw) ****
             **** DENSITY FILE WAS UPDATED (922.scfp) ****
----------------
ORBITAL ENERGIES
----------------

  NO   OCC          E(Eh)            E(eV) 
   0   2.0000     -88.897837     -2419.0331 
   1   2.0000     -24.726298      -672.8368 
   2   2.0000     -24.724343      -672.7836 
   3   2.0000     -10.301537      -280.3191 
   4   2.0000     -10.299156      -280.2543 
   5   2.0000     -10.211305      -277.8637 
   6   2.0000     -10.204835      -277.6877 
   7   2.0000     -10.203337      -277.6469 
   8   2.0000     -10.190241      -277.2905 
   9   2.0000      -7.994629      -217.5449 
  10   2.0000      -5.962599      -162.2506 
  11   2.0000      -5.959267      -162.1599 
  12   2.0000      -5.955001      -162.0438 
  13   2.0000      -1.235705       -33.6252 
  14   2.0000      -1.234586       -33.5948 
  15   2.0000      -0.905825       -24.6487 
  16   2.0000      -0.804926       -21.9031 
  17   2.0000      -0.749628       -20.3984 
  18   2.0000      -0.725055       -19.7297 
  19   2.0000      -0.623898       -16.9771 
  20   2.0000      -0.612462       -16.6659 
  21   2.0000      -0.575113       -15.6496 
  22   2.0000      -0.545809       -14.8522 
  23   2.0000      -0.525098       -14.2887 
  24   2.0000      -0.500061       -13.6074 
  25   2.0000      -0.491343       -13.3701 
  26   2.0000      -0.486725       -13.2445 
  27   2.0000      -0.471740       -12.8367 
  28   2.0000      -0.441421       -12.0117 
  29   2.0000      -0.428494       -11.6599 
  30   2.0000      -0.386917       -10.5286 
  31   2.0000      -0.384501       -10.4628 
  32   2.0000      -0.376786       -10.2529 
  33   2.0000      -0.363521        -9.8919 
  34   2.0000      -0.319766        -8.7013 
  35   2.0000      -0.261302        -7.1104 
  36   2.0000      -0.227626        -6.1940 
  37   0.0000      -0.035775        -0.9735 
  38   0.0000      -0.002997        -0.0816 
  39   0.0000       0.008726         0.2374 
  40   0.0000       0.060279         1.6403 
  41   0.0000       0.077068         2.0971 
  42   0.0000       0.094290         2.5657 
  43   0.0000       0.101814         2.7705 
  44   0.0000       0.140371         3.8197 
  45   0.0000       0.148583         4.0431 
  46   0.0000       0.157785         4.2935 
  47   0.0000       0.198186         5.3929 
  48   0.0000       0.259385         7.0582 
  49   0.0000       0.287511         7.8236 
  50   0.0000       0.297314         8.0903 
  51   0.0000       0.319977         8.7070 
  52   0.0000       0.345024         9.3886 
  53   0.0000       0.364046         9.9062 
  54   0.0000       0.405290        11.0285 
  55   0.0000       0.421495        11.4695 
  56   0.0000       0.441149        12.0043 
  57   0.0000       0.444734        12.1018 
  58   0.0000       0.479923        13.0594 
  59   0.0000       0.483287        13.1509 
  60   0.0000       0.493474        13.4281 
  61   0.0000       0.495700        13.4887 
  62   0.0000       0.512583        13.9481 
  63   0.0000       0.522776        14.2255 
  64   0.0000       0.534128        14.5344 
  65   0.0000       0.562091        15.2953 
  66   0.0000       0.583602        15.8806 
  67   0.0000       0.608632        16.5617 
  68   0.0000       0.636217        17.3123 
  69   0.0000       0.638179        17.3657 
  70   0.0000       0.655027        17.8242 
  71   0.0000       0.661771        18.0077 
  72   0.0000       0.675922        18.3928 
  73   0.0000       0.686709        18.6863 
  74   0.0000       0.721636        19.6367 
  75   0.0000       0.734524        19.9874 
  76   0.0000       0.738104        20.0848 
  77   0.0000       0.746935        20.3251 
  78   0.0000       0.779518        21.2118 
  79   0.0000       0.793222        21.5847 
  80   0.0000       0.818841        22.2818 
  81   0.0000       0.841797        22.9065 
  82   0.0000       0.875145        23.8139 
  83   0.0000       0.892717        24.2921 
  84   0.0000       0.991770        26.9874 
  85   0.0000       1.036786        28.2124 
  86   0.0000       1.079282        29.3688 
  87   0.0000       1.123602        30.5748 
  88   0.0000       1.146294        31.1922 
  89   0.0000       1.184173        32.2230 
  90   0.0000       1.196968        32.5712 
  91   0.0000       1.211287        32.9608 
  92   0.0000       1.231681        33.5158 
  93   0.0000       1.242349        33.8060 
  94   0.0000       1.261657        34.3314 
  95   0.0000       1.269167        34.5358 
  96   0.0000       1.269713        34.5506 
  97   0.0000       1.384368        37.6706 
  98   0.0000       1.407963        38.3126 
  99   0.0000       1.456755        39.6403 
 100   0.0000       1.461166        39.7603 
 101   0.0000       1.606395        43.7122 
 102   0.0000       1.622792        44.1584 
 103   0.0000       1.650369        44.9088 
 104   0.0000       1.675235        45.5855 
 105   0.0000       1.704325        46.3770 
 106   0.0000       1.722835        46.8807 
 107   0.0000       1.748482        47.5786 
 108   0.0000       1.750598        47.6362 
 109   0.0000       1.787076        48.6288 
 110   0.0000       1.796997        48.8988 
 111   0.0000       1.844395        50.1885 
 112   0.0000       1.871230        50.9188 
 113   0.0000       1.904169        51.8151 
 114   0.0000       1.921082        52.2753 
 115   0.0000       1.939311        52.7713 
 116   0.0000       1.972598        53.6771 
 117   0.0000       2.012209        54.7550 
 118   0.0000       2.021784        55.0155 
 119   0.0000       2.063835        56.1598 
 120   0.0000       2.109381        57.3992 
 121   0.0000       2.123841        57.7927 
 122   0.0000       2.168545        59.0091 
 123   0.0000       2.190020        59.5935 
 124   0.0000       2.265092        61.6363 
 125   0.0000       2.288780        62.2809 
 126   0.0000       2.351428        63.9856 
 127   0.0000       2.352372        64.0113 
 128   0.0000       2.413591        65.6772 
 129   0.0000       2.482006        67.5388 
 130   0.0000       2.553540        69.4853 
 131   0.0000       2.563186        69.7478 
 132   0.0000       2.622071        71.3502 
 133   0.0000       2.690967        73.2249 
 134   0.0000       2.742971        74.6400 
 135   0.0000       2.804255        76.3077 
 136   0.0000       2.912057        79.2411 
 137   0.0000       3.045800        82.8804 
 138   0.0000       3.046384        82.8963 
 139   0.0000       3.049195        82.9728 
 140   0.0000       3.062224        83.3273 
 141   0.0000       3.090893        84.1075 
 142   0.0000       3.134477        85.2935 
 143   0.0000       3.299020        89.7709 
 144   0.0000       3.306136        89.9645 
 145   0.0000       3.389467        92.2321 
 146   0.0000       3.439445        93.5921 
 147   0.0000       3.475339        94.5688 
 148   0.0000       3.817863       103.8893 
 149   0.0000       3.848942       104.7350 

                    ********************************
                    * MULLIKEN POPULATION ANALYSIS *
                    ********************************

-----------------------
MULLIKEN ATOMIC CHARGES
-----------------------
   0 C :   -0.003834
   1 C :    0.138337
   2 F :   -0.166985
   3 S :    0.079360
   4 C :    0.069839
   5 F :   -0.167726
   6 C :    0.038927
   7 C :    0.015591
   8 C :   -0.010724
   9 H :   -0.008188
  10 H :   -0.010798
  11 H :    0.006168
  12 H :    0.020033
Sum of atomic charges:    0.0000000

--------------------------------
MULLIKEN REDUCED ORBITAL CHARGES
--------------------------------
  0 C s       :     3.206566  s :     3.206566
      pz      :     1.061176  p :     2.762198
      px      :     0.788264
      py      :     0.912758
      dz2     :     0.002945  d :     0.035070
      dxz     :     0.003520
      dyz     :     0.007749
      dx2y2   :     0.009671
      dxy     :     0.011186
  1 C s       :     3.058176  s :     3.058176
      pz      :     1.112944  p :     2.716499
      px      :     0.877887
      py      :     0.725668
      dz2     :     0.006806  d :     0.086987
      dxz     :     0.008032
      dyz     :     0.017702
      dx2y2   :     0.030650
      dxy     :     0.023797
  2 F s       :     3.892220  s :     3.892220
      pz      :     1.898205  p :     5.266084
      px      :     1.834989
      py      :     1.532890
      dz2     :     0.001152  d :     0.008681
      dxz     :     0.000319
      dyz     :     0.001947
      dx2y2   :     0.002650
      dxy     :     0.002613
  3 S s       :     5.868148  s :     5.868148
      pz      :     3.689940  p :     9.943966
      px      :     3.181719
      py      :     3.072307
      dz2     :     0.012992  d :     0.108526
      dxz     :     0.015511
      dyz     :     0.018876
      dx2y2   :     0.047301
      dxy     :     0.013846
  4 C s       :     3.114367  s :     3.114367
      pz      :     1.126752  p :     2.730758
      px      :     0.830794
      py      :     0.773212
      dz2     :     0.006965  d :     0.085035
      dxz     :     0.014815
      dyz     :     0.010062
      dx2y2   :     0.027383
      dxy     :     0.025810
  5 F s       :     3.894517  s :     3.894517
      pz      :     1.894960  p :     5.264549
      px      :     1.650344
      py      :     1.719245
      dz2     :     0.001150  d :     0.008659
      dxz     :     0.001405
      dyz     :     0.000917
      dx2y2   :     0.001880
      dxy     :     0.003307
  6 C s       :     3.040033  s :     3.040033
      pz      :     1.050820  p :     2.876386
      px      :     0.919880
      py      :     0.905686
      dz2     :     0.003714  d :     0.044654
      dxz     :     0.008259
      dyz     :     0.007281
      dx2y2   :     0.013601
      dxy     :     0.011800
  7 C s       :     3.163409  s :     3.163409
      pz      :     0.978653  p :     2.783942
      px      :     0.885609
      py      :     0.919679
      dz2     :     0.002906  d :     0.037058
      dxz     :     0.006001
      dyz     :     0.004413
      dx2y2   :     0.010367
      dxy     :     0.013371
  8 C s       :     3.085024  s :     3.085024
      pz      :     1.007311  p :     2.898232
      px      :     0.968945
      py      :     0.921975
      dz2     :     0.001970  d :     0.027468
      dxz     :     0.004836
      dyz     :     0.000911
      dx2y2   :     0.009140
      dxy     :     0.010610
  9 H s       :     0.983669  s :     0.983669
      pz      :     0.005706  p :     0.024519
      px      :     0.015280
      py      :     0.003534
 10 H s       :     0.987088  s :     0.987088
      pz      :     0.004731  p :     0.023710
      px      :     0.009895
      py      :     0.009084
 11 H s       :     0.969224  s :     0.969224
      pz      :     0.005232  p :     0.024608
      px      :     0.010574
      py      :     0.008802
 12 H s       :     0.955424  s :     0.955424
      pz      :     0.005152  p :     0.024544
      px      :     0.004789
      py      :     0.014603


                     *******************************
                     * LOEWDIN POPULATION ANALYSIS *
                     *******************************

----------------------
LOEWDIN ATOMIC CHARGES
----------------------
   0 C :   -0.084046
   1 C :   -0.081238
   2 F :   -0.053103
   3 S :    0.405983
   4 C :   -0.087615
   5 F :   -0.052915
   6 C :   -0.095679
   7 C :   -0.017250
   8 C :   -0.042346
   9 H :    0.035344
  10 H :    0.030683
  11 H :    0.017540
  12 H :    0.024642

-------------------------------
LOEWDIN REDUCED ORBITAL CHARGES
-------------------------------
  0 C s       :     2.856522  s :     2.856522
      pz      :     1.052807  p :     3.134531
      px      :     1.043824
      py      :     1.037899
      dz2     :     0.007429  d :     0.092993
      dxz     :     0.005941
      dyz     :     0.017013
      dx2y2   :     0.027950
      dxy     :     0.034660
  1 C s       :     2.900990  s :     2.900990
      pz      :     1.106307  p :     2.988152
      px      :     1.001683
      py      :     0.880163
      dz2     :     0.014147  d :     0.192095
      dxz     :     0.015855
      dyz     :     0.034659
      dx2y2   :     0.070865
      dxy     :     0.056569
  2 F s       :     3.720184  s :     3.720184
      pz      :     1.894795  p :     5.319064
      px      :     1.852247
      py      :     1.572022
      dz2     :     0.001967  d :     0.013856
      dxz     :     0.000463
      dyz     :     0.002960
      dx2y2   :     0.004156
      dxy     :     0.004310
  3 S s       :     5.517091  s :     5.517091
      pz      :     3.643403  p :     9.942354
      px      :     3.206758
      py      :     3.092193
      dz2     :     0.016889  d :     0.134572
      dxz     :     0.016832
      dyz     :     0.021867
      dx2y2   :     0.062828
      dxy     :     0.016155
  4 C s       :     2.904313  s :     2.904313
      pz      :     1.124173  p :     2.995196
      px      :     0.951385
      py      :     0.919639
      dz2     :     0.014341  d :     0.188105
      dxz     :     0.029846
      dyz     :     0.019136
      dx2y2   :     0.066472
      dxy     :     0.058311
  5 F s       :     3.720553  s :     3.720553
      pz      :     1.893011  p :     5.318471
      px      :     1.673848
      py      :     1.751612
      dz2     :     0.001944  d :     0.013891
      dxz     :     0.002179
      dyz     :     0.001398
      dx2y2   :     0.002714
      dxy     :     0.005655
  6 C s       :     2.844866  s :     2.844866
      pz      :     1.033376  p :     3.134250
      px      :     1.052251
      py      :     1.048622
      dz2     :     0.009133  d :     0.116564
      dxz     :     0.017633
      dyz     :     0.014276
      dx2y2   :     0.039741
      dxy     :     0.035781
  7 C s       :     2.853953  s :     2.853953
      pz      :     0.963887  p :     3.066992
      px      :     1.079063
      py      :     1.024041
      dz2     :     0.006902  d :     0.096306
      dxz     :     0.012608
      dyz     :     0.009751
      dx2y2   :     0.029609
      dxy     :     0.037436
  8 C s       :     2.869324  s :     2.869324
      pz      :     0.989120  p :     3.101449
      px      :     1.066253
      py      :     1.046076
      dz2     :     0.005311  d :     0.071573
      dxz     :     0.009927
      dyz     :     0.001980
      dx2y2   :     0.025396
      dxy     :     0.028960
  9 H s       :     0.891143  s :     0.891143
      pz      :     0.017967  p :     0.073513
      px      :     0.043955
      py      :     0.011591
 10 H s       :     0.900685  s :     0.900685
      pz      :     0.014534  p :     0.068632
      px      :     0.027938
      py      :     0.026160
 11 H s       :     0.911937  s :     0.911937
      pz      :     0.016336  p :     0.070523
      px      :     0.028833
      py      :     0.025355
 12 H s       :     0.904849  s :     0.904849
      pz      :     0.016195  p :     0.070508
      px      :     0.012853
      py      :     0.041460


                      *****************************
                      * MAYER POPULATION ANALYSIS *
                      *****************************

  NA   - Mulliken gross atomic population
  ZA   - Total nuclear charge
  QA   - Mulliken gross atomic charge
  VA   - Mayer's total valence
  BVA  - Mayer's bonded valence
  FA   - Mayer's free valence

  ATOM       NA         ZA         QA         VA         BVA        FA
  0 C      6.0038     6.0000    -0.0038     3.7998     3.7998     0.0000
  1 C      5.8617     6.0000     0.1383     3.8627     3.8627     0.0000
  2 F      9.1670     9.0000    -0.1670     1.2048     1.2048    -0.0000
  3 S     15.9206    16.0000     0.0794     2.4125     2.4125     0.0000
  4 C      5.9302     6.0000     0.0698     3.8245     3.8245     0.0000
  5 F      9.1677     9.0000    -0.1677     1.2121     1.2121    -0.0000
  6 C      5.9611     6.0000     0.0389     3.8085     3.8085     0.0000
  7 C      5.9844     6.0000     0.0156     4.0385     4.0385     0.0000
  8 C      6.0107     6.0000    -0.0107     3.9215     3.9215     0.0000
  9 H      1.0082     1.0000    -0.0082     1.0026     1.0026     0.0000
 10 H      1.0108     1.0000    -0.0108     0.9907     0.9907     0.0000
 11 H      0.9938     1.0000     0.0062     0.9823     0.9823     0.0000
 12 H      0.9800     1.0000     0.0200     0.9764     0.9764     0.0000

  Mayer bond orders larger than 0.100000
B(  0-C ,  1-C ) :   1.5463 B(  0-C ,  6-C ) :   1.1503 B(  0-C ,  9-H ) :   1.0035 
B(  1-C ,  2-F ) :   1.1052 B(  1-C ,  3-S ) :   1.1059 B(  3-S ,  4-C ) :   1.0996 
B(  4-C ,  5-F ) :   1.1143 B(  4-C ,  6-C ) :   1.4669 B(  6-C ,  7-C ) :   1.1015 
B(  7-C ,  8-C ) :   1.9229 B(  7-C , 10-H ) :   0.9702 B(  8-C , 11-H ) :   0.9481 
B(  8-C , 12-H ) :   0.9483 

-------
TIMINGS
-------

Total SCF time: 0 days 0 hours 0 min 35 sec 

Total time                  ....      35.367 sec
Sum of individual times     ....      35.071 sec  ( 99.2%)

Fock matrix formation       ....      33.515 sec  ( 94.8%)
  Split-RI-J                ....       3.876 sec  ( 11.6% of F)
  Chain of spheres X        ....      26.172 sec  ( 78.1% of F)
  COS-X 1 center corr.      ....       0.000 sec  (  0.0% of F)
  XC integration            ....       3.350 sec  ( 10.0% of F)
    Basis function eval.    ....       1.311 sec  ( 39.1% of XC)
    Density eval.           ....       0.654 sec  ( 19.5% of XC)
    XC-Functional eval.     ....       0.299 sec  (  8.9% of XC)
    XC-Potential eval.      ....       0.954 sec  ( 28.5% of XC)
Diagonalization             ....       0.021 sec  (  0.1%)
Density matrix formation    ....       0.006 sec  (  0.0%)
Population analysis         ....       0.003 sec  (  0.0%)
Initial guess               ....       0.287 sec  (  0.8%)
Orbital Transformation      ....       0.000 sec  (  0.0%)
Orbital Orthonormalization  ....       0.000 sec  (  0.0%)
DIIS solution               ....       0.007 sec  (  0.0%)
SOSCF solution              ....       0.015 sec  (  0.0%)
Grid generation             ....       1.218 sec  (  3.4%)


-------------------------------------------------------------------------------
                          DFT DISPERSION CORRECTION                            
                                                                               
                              DFTD3 V3.1  Rev 1                                
                          USING Becke-Johnson damping                          
-------------------------------------------------------------------------------
Gaussians B3LYP functional is recognized, using regular B3LYP params
Active option DFTDOPT                   ...         4   

molecular C6(AA) [au] = 2814.526136 


            DFT-D V3
 parameters
 s6 scaling factor         :     1.0000 
 a1 scaling factor         :     0.3981 
 s8 scaling factor         :     1.9889 
 a2 scaling factor         :     4.4211 
 ad hoc parameters k1-k3   :    16.0000     1.3333    -4.0000 

 Edisp/kcal,au: -15.461654862510  -0.024639712789 
 E6   /kcal   :  -6.825894792 
 E8   /kcal   :  -8.635760070 
 % E8         :  55.852754101 

-------------------------   ----------------
Dispersion correction           -0.024639713
-------------------------   ----------------


-------------------------   --------------------
FINAL SINGLE POINT ENERGY      -828.450916489751
-------------------------   --------------------

------------------------------------------------------------------------------
                         ORCA SCF GRADIENT CALCULATION
------------------------------------------------------------------------------

Gradient of the Kohn-Sham DFT energy:
Kohn-Sham wavefunction type      ... RKS
Hartree-Fock exchange scaling    ...    0.200
Number of operators              ...    1
Number of atoms                  ...   13
Basis set dimensions             ...  150
Integral neglect threshold       ... 2.5e-11
Integral primitive cutoff        ... 2.5e-12

Nuclear repulsion gradient       ... done
One Electron Gradient            ... done
Pre-screening matrix             ... done
RI-J gradient                    ... done
COSX-gradient                    ... done
Exchange-correlation gradient    ... done
Dispersion correction            ... done

------------------
CARTESIAN GRADIENT
------------------

   1   C   :    0.000328208   -0.002087698   -0.000524480
   2   C   :    0.006314498   -0.011887107    0.000618434
   3   F   :   -0.002789355    0.002608552    0.000087276
   4   S   :   -0.008346669   -0.006381125   -0.001441964
   5   C   :   -0.007482617    0.008360446   -0.001096357
   6   F   :    0.001428631   -0.001996280    0.000591385
   7   C   :   -0.004496014    0.004719889   -0.000757197
   8   C   :   -0.007069071   -0.005612208   -0.000350030
   9   C   :    0.004093050    0.003272978    0.000043973
  10   H   :    0.011790515   -0.000682690    0.001626089
  11   H   :   -0.005348465    0.006800901   -0.000645567
  12   H   :    0.008868177   -0.008138421    0.001443450
  13   H   :    0.002875011    0.011964131    0.000448175

Difference to translation invariance:
           :    0.0001659000    0.0009413670    0.0000431861

Norm of the cartesian gradient     ...    0.0333903566
RMS gradient                       ...    0.0053467361
MAX gradient                       ...    0.0119641306

-------
TIMINGS
-------

Total SCF gradient time            ...        6.930 sec

One electron gradient       ....       0.065 sec  (  0.9%)
Prescreening matrices       ....       0.075 sec  (  1.1%)
RI-J Coulomb gradient       ....       0.795 sec  ( 11.5%)
COSX gradient               ....       3.383 sec  ( 48.8%)
XC gradient                 ....       2.273 sec  ( 32.8%)
------------------------------------------------------------------------------
                         ORCA GEOMETRY RELAXATION STEP
------------------------------------------------------------------------------

Reading the OPT-File                    .... done
Getting information on internals        .... done
Copying old internal coords+grads       .... done
Making the new internal coordinates     .... (new redundants).... done
Validating the new internal coordinates .... (new redundants).... done
Calculating the B-matrix                .... done
Calculating the G,G- and P matrices     .... done
Transforming gradient to internals      .... done
Projecting the internal gradient        .... done
Number of atoms                         ....  13
Number of internal coordinates          ....  56
Current Energy                          ....  -828.450916490 Eh
Current gradient norm                   ....     0.033390357 Eh/bohr
Maximum allowed component of the step   ....  0.300
Current trust radius                    ....  0.300
Evaluating the initial hessian          ....  (Almloef) done
Projecting the Hessian                  .... done
Forming the augmented Hessian           .... done
Diagonalizing the augmented Hessian     .... done
Last element of RFO vector              ....  0.994992814
Lowest eigenvalues of augmented Hessian:
 -0.002818122  0.016296526  0.017137185  0.021686081  0.024519715
Length of the computed step             ....  0.100449460
The final length of the internal step   ....  0.100449460
Converting the step to cartesian space:
 Initial RMS(Int)=    0.0134231237
Transforming coordinates:
 Iter   0:  RMS(Cart)=    0.0264559685 RMS(Int)=    1.6756545752
 Iter   1:  RMS(Cart)=    0.0003004945 RMS(Int)=    0.0001564498
 Iter   2:  RMS(Cart)=    0.0000055613 RMS(Int)=    0.0000036600
 Iter   3:  RMS(Cart)=    0.0000001332 RMS(Int)=    0.0000000605
 Iter   4:  RMS(Cart)=    0.0000000033 RMS(Int)=    0.0000000019
done
Storing new coordinates                 .... done

                                .--------------------.
          ----------------------|Geometry convergence|-------------------------
          Item                value                   Tolerance       Converged
          ---------------------------------------------------------------------
          RMS gradient        0.0049372825            0.0001000000      NO
          MAX gradient        0.0170832025            0.0003000000      NO
          RMS step            0.0134231237            0.0020000000      NO
          MAX step            0.0320616162            0.0040000000      NO
          ........................................................
          Max(Bonds)      0.0170      Max(Angles)    0.33
          Max(Dihed)        1.75      Max(Improp)    0.00
          ---------------------------------------------------------------------

The optimization has not yet converged - more geometry cycles are needed


    ---------------------------------------------------------------------------
                         Redundant Internal Coordinates
                            (Angstroem and degrees)

        Definition                    Value    dE/dq     Step     New-Value
    ----------------------------------------------------------------------------
     1. B(C   1,C   0)                1.3491 -0.008799  0.0065    1.3556   
     2. B(F   2,C   1)                1.3309  0.003347 -0.0027    1.3281   
     3. B(S   3,C   1)                1.7367 -0.007655  0.0084    1.7450   
     4. B(C   4,S   3)                1.7317 -0.007962  0.0085    1.7401   
     5. B(F   5,C   4)                1.3328  0.002484 -0.0020    1.3308   
     6. B(C   6,C   4)                1.3667 -0.007213  0.0056    1.3723   
     7. B(C   6,C   0)                1.4280 -0.013750  0.0136    1.4416   
     8. B(C   7,C   6)                1.4501 -0.008653  0.0091    1.4592   
     9. B(C   8,C   7)                1.3274 -0.017083  0.0115    1.3388   
    10. B(H   9,C   0)                1.0727 -0.011905  0.0163    1.0890   
    11. B(H  10,C   7)                1.0818 -0.008554  0.0121    1.0939   
    12. B(H  11,C   8)                1.0761 -0.012068  0.0167    1.0928   
    13. B(H  12,C   8)                1.0755 -0.012269  0.0170    1.0924   
    14. A(C   1,C   0,H   9)          123.36  0.000591   -0.13    123.23   
    15. A(C   6,C   0,H   9)          124.36 -0.001411    0.19    124.54   
    16. A(C   1,C   0,C   6)          112.28  0.000817   -0.05    112.23   
    17. A(F   2,C   1,S   3)          119.13  0.001598   -0.21    118.92   
    18. A(C   0,C   1,F   2)          126.52 -0.002240    0.28    126.80   
    19. A(C   0,C   1,S   3)          114.35  0.000643   -0.07    114.28   
    20. A(C   1,S   3,C   4)           88.16 -0.002228    0.20     88.36   
    21. A(S   3,C   4,C   6)          114.95  0.000140   -0.04    114.91   
    22. A(S   3,C   4,F   5)          119.01  0.000910   -0.11    118.90   
    23. A(F   5,C   4,C   6)          126.04 -0.001050    0.15    126.18   
    24. A(C   4,C   6,C   7)          123.06 -0.000375    0.03    123.09   
    25. A(C   0,C   6,C   7)          126.69 -0.000253    0.01    126.70   
    26. A(C   0,C   6,C   4)          110.25  0.000628   -0.04    110.21   
    27. A(C   6,C   7,H  10)          114.58 -0.000435    0.09    114.66   
    28. A(C   6,C   7,C   8)          125.24 -0.001783    0.24    125.49   
    29. A(C   8,C   7,H  10)          120.18  0.002217   -0.33    119.85   
    30. A(H  11,C   8,H  12)          116.36 -0.000402    0.07    116.43   
    31. A(C   7,C   8,H  12)          121.11 -0.000273    0.04    121.14   
    32. A(C   7,C   8,H  11)          122.53  0.000674   -0.11    122.42   
    33. D(S   3,C   1,C   0,H   9)    179.74 -0.000115    0.16    179.90   
    34. D(F   2,C   1,C   0,H   9)     -0.20  0.000030   -0.04     -0.23   
    35. D(F   2,C   1,C   0,C   6)   -179.90  0.000459   -1.03   -180.93   
    36. D(S   3,C   1,C   0,C   6)      0.04  0.000314   -0.83     -0.79   
    37. D(C   4,S   3,C   1,F   2)    179.86 -0.000418    1.04    180.90   
    38. D(C   4,S   3,C   1,C   0)     -0.09 -0.000282    0.86      0.78   
    39. D(F   5,C   4,S   3,C   1)    179.96  0.000307   -0.86    179.10   
    40. D(C   6,C   4,S   3,C   1)      0.12  0.000180   -0.69     -0.58   
    41. D(C   0,C   6,C   4,F   5)   -179.94 -0.000189    0.56   -179.39   
    42. D(C   0,C   6,C   4,S   3)     -0.12 -0.000048    0.37      0.26   
    43. D(C   7,C   6,C   0,H   9)      0.31  0.000161   -0.33     -0.02   
    44. D(C   7,C   6,C   0,C   1)   -179.99 -0.000266    0.67   -179.32   
    45. D(C   4,C   6,C   0,H   9)   -179.65  0.000260   -0.71   -180.37   
    46. D(C   7,C   6,C   4,S   3)    179.92  0.000046    0.01    179.93   
    47. D(C   4,C   6,C   0,C   1)      0.05 -0.000168    0.29      0.34   
    48. D(C   7,C   6,C   4,F   5)      0.09 -0.000095    0.19      0.28   
    49. D(H  10,C   7,C   6,C   4)      2.90  0.000255   -0.85      2.06   
    50. D(H  10,C   7,C   6,C   0)   -177.06  0.000364   -1.27   -178.33   
    51. D(C   8,C   7,C   6,C   4)   -176.84  0.000536   -1.32   -178.16   
    52. D(C   8,C   7,C   6,C   0)      3.20  0.000646   -1.75      1.45   
    53. D(H  12,C   8,C   7,H  10)      0.07  0.000080   -0.16     -0.09   
    54. D(H  12,C   8,C   7,C   6)    179.81 -0.000222    0.34    180.15   
    55. D(H  11,C   8,C   7,H  10)   -179.65  0.000169   -0.27   -179.93   
    56. D(H  11,C   8,C   7,C   6)      0.08 -0.000134    0.23      0.31   
    ----------------------------------------------------------------------------

         *************************************************************
         *                GEOMETRY OPTIMIZATION CYCLE   2            *
         *************************************************************
---------------------------------
CARTESIAN COORDINATES (ANGSTROEM)
---------------------------------
  C     -1.149224    0.057716   -0.135408
  C     -0.438448    1.206453   -0.021654
  F     -0.914588    2.445177   -0.074419
  S      1.274437    0.970139    0.213602
  C      0.998486   -0.745889    0.129219
  F      2.037599   -1.570476    0.235291
  C     -0.311367   -1.112497   -0.052525
  C     -0.743349   -2.502911   -0.149718
  C     -2.000075   -2.913379   -0.361031
  H     -2.227795    0.035624   -0.284205
  H      0.057103   -3.239004   -0.030794
  H     -2.831240   -2.215107   -0.486784
  H     -2.244991   -3.976407   -0.419143

----------------------------
CARTESIAN COORDINATES (A.U.)
----------------------------
  NO LB      ZA    FRAG     MASS         X           Y           Z
   0 C     6.0000    0    12.011   -2.171719    0.109067   -0.255884
   1 C     6.0000    0    12.011   -0.828547    2.279866   -0.040920
   2 F     9.0000    0    18.998   -1.728320    4.620716   -0.140631
   3 S    16.0000    0    32.060    2.408337    1.833297    0.403649
   4 C     6.0000    0    12.011    1.886865   -1.409526    0.244188
   5 F     9.0000    0    18.998    3.850504   -2.967770    0.444636
   6 C     6.0000    0    12.011   -0.588398   -2.102314   -0.099258
   7 C     6.0000    0    12.011   -1.404726   -4.729816   -0.282927
   8 C     6.0000    0    12.011   -3.779593   -5.505489   -0.682250
   9 H     1.0000    0     1.008   -4.209922    0.067320   -0.537070
  10 H     1.0000    0     1.008    0.107910   -6.120830   -0.058193
  11 H     1.0000    0     1.008   -5.350269   -4.185946   -0.919888
  12 H     1.0000    0     1.008   -4.242418   -7.514320   -0.792066

--------------------------------
INTERNAL COORDINATES (ANGSTROEM)
--------------------------------
 C      0   0   0     0.000000000000     0.00000000     0.00000000
 C      1   0   0     1.355632729417     0.00000000     0.00000000
 F      2   1   0     1.328130441354   126.80088773     0.00000000
 S      2   1   3     1.745040467558   114.28096278   180.13595100
 C      4   2   1     1.740121079745    88.35816566     0.77599929
 F      5   4   2     1.330770893593   118.90514164   179.09484566
 C      5   4   2     1.372277967301   114.91313891   359.42301914
 C      7   5   4     1.459214550465   123.08953267   179.92811094
 C      8   7   5     1.338841368851   125.48731071   181.83489624
 H      1   2   3     1.089010124408   123.22591814   359.76753413
 H      8   7   5     1.093937712671   114.66433267     2.05902348
 H      9   8   7     1.092809936633   122.42478298     0.31008338
 H      9   8   7     1.092423390587   121.14297193   180.14471774

---------------------------
INTERNAL COORDINATES (A.U.)
---------------------------
 C      0   0   0     0.000000000000     0.00000000     0.00000000
 C      1   0   0     2.561774596779     0.00000000     0.00000000
 F      2   1   0     2.509802804284   126.80088773     0.00000000
 S      2   1   3     3.297648576295   114.28096278   180.13595100
 C      4   2   1     3.288352280582    88.35816566     0.77599929
 F      5   4   2     2.514792535884   118.90514164   179.09484566
 C      5   4   2     2.593229537812   114.91313891   359.42301914
 C      7   5   4     2.757515871012   123.08953267   179.92811094
 C      8   7   5     2.530043523892   125.48731071   181.83489624
 H      1   2   3     2.057930892198   123.22591814   359.76753413
 H      8   7   5     2.067242684516   114.66433267     2.05902348
 H      9   8   7     2.065111496664   122.42478298     0.31008338
 H      9   8   7     2.064381030500   121.14297193   180.14471774

 One Electron integrals                  ... done
 Pre-screening matrix                    ... done

Diagonalization of the overlap matrix:
Smallest eigenvalue                        ... 7.408e-04
Time for diagonalization                   ...    0.004 sec
Threshold for overlap eigenvalues          ... 1.000e-08
Number of eigenvalues below threshold      ... 0
Time for construction of square roots      ...    0.001 sec
Total time needed                          ...    0.005 sec

-------------------
DFT GRID GENERATION
-------------------

General Integration Accuracy     IntAcc      ...  4.340
Radial Grid Type                 RadialGrid  ... Gauss-Chebyshev
Angular Grid (max. acc.)         AngularGrid ... Lebedev-110
Angular grid pruning method      GridPruning ... 3 (G Style)
Weight generation scheme         WeightScheme... Becke
Basis function cutoff            BFCut       ...    1.0000e-11
Integration weight cutoff        WCut        ...    1.0000e-14
Grids for H and He will be reduced by one unit

# of grid points (after initial pruning)     ...  18398 (   0.0 sec)
# of grid points (after weights+screening)   ...  17292 (   0.0 sec)
nearest neighbour list constructed           ...    0.0 sec
Grid point re-assignment to atoms done       ...    0.0 sec
Grid point division into batches done        ...    0.0 sec
Reduced shell lists constructed in    0.1 sec

Total number of grid points                  ...    17292
Total number of batches                      ...      277
Average number of points per batch           ...       62
Average number of grid points per atom       ...     1330
Average number of shells per batch           ...    45.57 (67.01%)
Average number of basis functions per batch  ...   100.60 (67.06%)
Average number of large shells per batch     ...    35.75 (78.45%)
Average number of large basis fcns per batch ...    78.19 (77.72%)
Maximum spatial batch extension              ...  20.71, 20.83, 25.60 au
Average spatial batch extension              ...   3.96,  3.67,  4.78 au

Time for grid setup =    0.126 sec

--------------------
COSX GRID GENERATION
--------------------

General Integration Accuracy     IntAcc      ...  3.340
Radial Grid Type                 RadialGrid  ... Gauss-Chebyshev
Angular Grid (max. acc.)         AngularGrid ... Lebedev-50
Angular grid pruning method      GridPruning ... 3 (G Style)
Weight generation scheme         WeightScheme... Becke
Basis function cutoff            BFCut       ...    1.0000e-11
Integration weight cutoff        WCut        ...    1.0000e-14
Grids for H and He will be reduced by one unit

# of grid points (after initial pruning)     ...   6626 (   0.0 sec)
# of grid points (after weights+screening)   ...   6289 (   0.0 sec)
nearest neighbour list constructed           ...    0.0 sec
Grid point re-assignment to atoms done       ...    0.0 sec
Grid point division into batches done        ...    0.0 sec
Reduced shell lists constructed in    0.0 sec

Total number of grid points                  ...     6289
Total number of batches                      ...      105
Average number of points per batch           ...       59
Average number of grid points per atom       ...      484
Average number of shells per batch           ...    49.19 (72.34%)
Average number of basis functions per batch  ...   109.68 (73.12%)
Average number of large shells per batch     ...    39.12 (79.54%)
Average number of large basis fcns per batch ...    86.10 (78.51%)
Maximum spatial batch extension              ...  19.24, 15.11, 21.78 au
Average spatial batch extension              ...   5.12,  4.60,  6.41 au

Overlap Fitting                  UseSFitting ... on
Constructing numerical overlap ... done (      0.0 sec)
Inverting numerical overlap    ... done (      0.0 sec)
Obtaining analytic overlap     ... done (      0.0 sec)
Final contraction and storage  ... done (      0.0 sec)


General Integration Accuracy     IntAcc      ...  3.670
Radial Grid Type                 RadialGrid  ... Gauss-Chebyshev
Angular Grid (max. acc.)         AngularGrid ... Lebedev-50
Angular grid pruning method      GridPruning ... 3 (G Style)
Weight generation scheme         WeightScheme... Becke
Basis function cutoff            BFCut       ...    1.0000e-11
Integration weight cutoff        WCut        ...    1.0000e-14
Grids for H and He will be reduced by one unit

# of grid points (after initial pruning)     ...   8262 (   0.0 sec)
# of grid points (after weights+screening)   ...   7833 (   0.0 sec)
nearest neighbour list constructed           ...    0.0 sec
Grid point re-assignment to atoms done       ...    0.0 sec
Grid point division into batches done        ...    0.0 sec
Reduced shell lists constructed in    0.0 sec

Total number of grid points                  ...     7833
Total number of batches                      ...      128
Average number of points per batch           ...       61
Average number of grid points per atom       ...      603
Average number of shells per batch           ...    48.36 (71.12%)
Average number of basis functions per batch  ...   107.43 (71.62%)
Average number of large shells per batch     ...    38.05 (78.68%)
Average number of large basis fcns per batch ...    83.31 (77.55%)
Maximum spatial batch extension              ...  21.01, 16.21, 20.59 au
Average spatial batch extension              ...   5.04,  4.38,  6.13 au

Overlap Fitting                  UseSFitting ... on
Constructing numerical overlap ... done (      0.0 sec)
Inverting numerical overlap    ... done (      0.0 sec)
Obtaining analytic overlap     ... done (      0.0 sec)
Final contraction and storage  ... done (      0.0 sec)


General Integration Accuracy     IntAcc      ...  4.010
Radial Grid Type                 RadialGrid  ... Gauss-Chebyshev
Angular Grid (max. acc.)         AngularGrid ... Lebedev-110
Angular grid pruning method      GridPruning ... 3 (G Style)
Weight generation scheme         WeightScheme... Becke
Basis function cutoff            BFCut       ...    1.0000e-11
Integration weight cutoff        WCut        ...    1.0000e-14
Grids for H and He will be reduced by one unit

# of grid points (after initial pruning)     ...  16004 (   0.0 sec)
# of grid points (after weights+screening)   ...  15065 (   0.0 sec)
nearest neighbour list constructed           ...    0.0 sec
Grid point re-assignment to atoms done       ...    0.0 sec
Grid point division into batches done        ...    0.0 sec
Reduced shell lists constructed in    0.1 sec

Total number of grid points                  ...    15065
Total number of batches                      ...      241
Average number of points per batch           ...       62
Average number of grid points per atom       ...     1159
Average number of shells per batch           ...    46.10 (67.79%)
Average number of basis functions per batch  ...   101.92 (67.94%)
Average number of large shells per batch     ...    36.18 (78.49%)
Average number of large basis fcns per batch ...    79.17 (77.68%)
Maximum spatial batch extension              ...  18.52, 18.98, 27.11 au
Average spatial batch extension              ...   4.05,  3.80,  5.13 au

Overlap Fitting                  UseSFitting ... on
Constructing numerical overlap ... done (      0.0 sec)
Inverting numerical overlap    ... done (      0.0 sec)
Obtaining analytic overlap     ... done (      0.0 sec)
Final contraction and storage  ... done (      0.0 sec)

Time for X-Grid setup             =    0.368 sec
--------------
SCF ITERATIONS
[...]
  40   0.0000       0.060475         1.6456 
  41   0.0000       0.073125         1.9898 
  42   0.0000       0.091894         2.5006 
  43   0.0000       0.098111         2.6697 
  44   0.0000       0.135132         3.6771 
  45   0.0000       0.144429         3.9301 
  46   0.0000       0.154455         4.2029 
  47   0.0000       0.194418         5.2904 
  48   0.0000       0.258095         7.0231 
  49   0.0000       0.286355         7.7921 
  50   0.0000       0.292965         7.9720 
  51   0.0000       0.320519         8.7218 
  52   0.0000       0.344849         9.3838 
  53   0.0000       0.361290         9.8312 
  54   0.0000       0.404757        11.0140 
  55   0.0000       0.418736        11.3944 
  56   0.0000       0.440020        11.9736 
  57   0.0000       0.443745        12.0749 
  58   0.0000       0.478945        13.0328 
  59   0.0000       0.480073        13.0635 
  60   0.0000       0.491019        13.3613 
  61   0.0000       0.494807        13.4644 
  62   0.0000       0.511477        13.9180 
  63   0.0000       0.520968        14.1763 
  64   0.0000       0.531465        14.4619 
  65   0.0000       0.562149        15.2969 
  66   0.0000       0.582253        15.8439 
  67   0.0000       0.611646        16.6437 
  68   0.0000       0.630530        17.1576 
  69   0.0000       0.636639        17.3238 
  70   0.0000       0.645227        17.5575 
  71   0.0000       0.653994        17.7961 
  72   0.0000       0.669302        18.2126 
  73   0.0000       0.680840        18.5266 
  74   0.0000       0.714432        19.4407 
  75   0.0000       0.727948        19.8085 
  76   0.0000       0.734782        19.9944 
  77   0.0000       0.736785        20.0489 
  78   0.0000       0.778729        21.1903 
  79   0.0000       0.785116        21.3641 
  80   0.0000       0.811195        22.0737 
  81   0.0000       0.842716        22.9315 
  82   0.0000       0.870593        23.6900 
  83   0.0000       0.888609        24.1803 
  84   0.0000       0.987865        26.8812 
  85   0.0000       1.029541        28.0152 
  86   0.0000       1.072935        29.1960 
  87   0.0000       1.120790        30.4982 
  88   0.0000       1.146402        31.1952 
  89   0.0000       1.176188        32.0057 
  90   0.0000       1.195119        32.5208 
  91   0.0000       1.209124        32.9019 
  92   0.0000       1.230180        33.4749 
  93   0.0000       1.236842        33.6562 
  94   0.0000       1.257840        34.2276 
  95   0.0000       1.266423        34.4611 
  96   0.0000       1.266684        34.4682 
  97   0.0000       1.382500        37.6197 
  98   0.0000       1.408327        38.3225 
  99   0.0000       1.454403        39.5763 
 100   0.0000       1.459026        39.7021 
 101   0.0000       1.591748        43.3137 
 102   0.0000       1.616510        43.9875 
 103   0.0000       1.645340        44.7720 
 104   0.0000       1.670193        45.4483 
 105   0.0000       1.690862        46.0107 
 106   0.0000       1.715306        46.6759 
 107   0.0000       1.736981        47.2656 
 108   0.0000       1.743836        47.4522 
 109   0.0000       1.776570        48.3429 
 110   0.0000       1.789588        48.6972 
 111   0.0000       1.835848        49.9560 
 112   0.0000       1.862780        50.6888 
 113   0.0000       1.897443        51.6321 
 114   0.0000       1.911245        52.0076 
 115   0.0000       1.926848        52.4322 
 116   0.0000       1.963221        53.4220 
 117   0.0000       2.006665        54.6041 
 118   0.0000       2.014178        54.8086 
 119   0.0000       2.056208        55.9523 
 120   0.0000       2.097841        57.0852 
 121   0.0000       2.105057        57.2815 
 122   0.0000       2.155060        58.6422 
 123   0.0000       2.182571        59.3908 
 124   0.0000       2.245086        61.0919 
 125   0.0000       2.273653        61.8692 
 126   0.0000       2.330667        63.4207 
 127   0.0000       2.336708        63.5851 
 128   0.0000       2.391154        65.0666 
 129   0.0000       2.460637        66.9573 
 130   0.0000       2.538861        69.0859 
 131   0.0000       2.542395        69.1821 
 132   0.0000       2.606723        70.9325 
 133   0.0000       2.666622        72.5625 
 134   0.0000       2.718529        73.9749 
 135   0.0000       2.771346        75.4122 
 136   0.0000       2.876072        78.2619 
 137   0.0000       3.029974        82.4498 
 138   0.0000       3.043960        82.8304 
 139   0.0000       3.046681        82.9044 
 140   0.0000       3.057580        83.2010 
 141   0.0000       3.066854        83.4533 
 142   0.0000       3.114744        84.7565 
 143   0.0000       3.302687        89.8707 
 144   0.0000       3.309793        90.0640 
 145   0.0000       3.353193        91.2450 
 146   0.0000       3.433985        93.4435 
 147   0.0000       3.465413        94.2987 
 148   0.0000       3.822734       104.0219 
 149   0.0000       3.848910       104.7342 

                    ********************************
                    * MULLIKEN POPULATION ANALYSIS *
                    ********************************

-----------------------
MULLIKEN ATOMIC CHARGES
-----------------------
   0 C :   -0.004651
   1 C :    0.132879
   2 F :   -0.161009
   3 S :    0.072062
   4 C :    0.072267
   5 F :   -0.161973
   6 C :    0.030007
   7 C :    0.008796
   8 C :   -0.029561
   9 H :    0.002814
  10 H :   -0.002356
  11 H :    0.013383
  12 H :    0.027342
Sum of atomic charges:   -0.0000000

--------------------------------
MULLIKEN REDUCED ORBITAL CHARGES
--------------------------------
  0 C s       :     3.202270  s :     3.202270
      pz      :     1.060668  p :     2.768436
      px      :     0.799015
      py      :     0.908753
      dz2     :     0.002912  d :     0.033945
      dxz     :     0.003460
      dyz     :     0.007528
      dx2y2   :     0.009138
      dxy     :     0.010907
  1 C s       :     3.067931  s :     3.067931
      pz      :     1.107754  p :     2.712255
      px      :     0.878710
      py      :     0.725791
      dz2     :     0.006910  d :     0.086935
      dxz     :     0.007683
      dyz     :     0.018030
      dx2y2   :     0.030668
      dxy     :     0.023644
  2 F s       :     3.890657  s :     3.890657
      pz      :     1.895474  p :     5.261516
      px      :     1.840532
      py      :     1.525510
      dz2     :     0.001166  d :     0.008836
      dxz     :     0.000299
      dyz     :     0.002025
      dx2y2   :     0.002753
      dxy     :     0.002593
  3 S s       :     5.871300  s :     5.871300
      pz      :     3.695473  p :     9.952560
      px      :     3.186187
      py      :     3.070900
      dz2     :     0.012695  d :     0.104078
      dxz     :     0.014797
      dyz     :     0.017652
      dx2y2   :     0.045741
      dxy     :     0.013192
  4 C s       :     3.117966  s :     3.117966
      pz      :     1.119937  p :     2.724698
      px      :     0.831738
      py      :     0.773023
      dz2     :     0.007126  d :     0.085069
      dxz     :     0.014903
      dyz     :     0.009928
      dx2y2   :     0.027380
      dxy     :     0.025732
  5 F s       :     3.892812  s :     3.892812
      pz      :     1.892072  p :     5.260362
      px      :     1.648095
      py      :     1.720195
      dz2     :     0.001163  d :     0.008800
      dxz     :     0.001446
      dyz     :     0.000935
      dx2y2   :     0.001924
      dxy     :     0.003332
  6 C s       :     3.047208  s :     3.047208
      pz      :     1.051384  p :     2.879441
      px      :     0.917700
      py      :     0.910358
      dz2     :     0.003761  d :     0.043344
      dxz     :     0.008025
      dyz     :     0.007003
      dx2y2   :     0.013148
      dxy     :     0.011406
  7 C s       :     3.163406  s :     3.163406
      pz      :     0.982058  p :     2.792003
      px      :     0.891913
      py      :     0.918032
      dz2     :     0.002762  d :     0.035795
      dxz     :     0.005806
      dyz     :     0.004158
      dx2y2   :     0.010073
      dxy     :     0.012996
  8 C s       :     3.107103  s :     3.107103
      pz      :     1.008813  p :     2.896081
      px      :     0.964982
      py      :     0.922286
      dz2     :     0.001873  d :     0.026377
      dxz     :     0.004676
      dyz     :     0.000743
      dx2y2   :     0.008905
      dxy     :     0.010180
  9 H s       :     0.973447  s :     0.973447
      pz      :     0.005612  p :     0.023739
      px      :     0.014850
      py      :     0.003277
 10 H s       :     0.979229  s :     0.979229
      pz      :     0.004496  p :     0.023127
      px      :     0.009719
      py      :     0.008911
 11 H s       :     0.962970  s :     0.962970
      pz      :     0.004880  p :     0.023647
      px      :     0.010419
      py      :     0.008348
 12 H s       :     0.949053  s :     0.949053
      pz      :     0.004996  p :     0.023605
      px      :     0.004387
      py      :     0.014221


                     *******************************
                     * LOEWDIN POPULATION ANALYSIS *
                     *******************************

----------------------
LOEWDIN ATOMIC CHARGES
----------------------
   0 C :   -0.087486
   1 C :   -0.078415
   2 F :   -0.047284
   3 S :    0.389882
   4 C :   -0.083872
   5 F :   -0.047417
   6 C :   -0.096291
   7 C :   -0.020953
   8 C :   -0.048930
   9 H :    0.039037
  10 H :    0.033104
  11 H :    0.020496
  12 H :    0.028129

-------------------------------
LOEWDIN REDUCED ORBITAL CHARGES
-------------------------------
  0 C s       :     2.866494  s :     2.866494
      pz      :     1.055974  p :     3.131695
      px      :     1.041841
      py      :     1.033879
      dz2     :     0.007160  d :     0.089297
      dxz     :     0.005940
      dyz     :     0.016353
      dx2y2   :     0.026247
      dxy     :     0.033596
  1 C s       :     2.905624  s :     2.905624
      pz      :     1.101862  p :     2.981172
      px      :     0.999415
      py      :     0.879894
      dz2     :     0.014342  d :     0.191619
      dxz     :     0.015107
      dyz     :     0.035540
      dx2y2   :     0.070542
      dxy     :     0.056089
  2 F s       :     3.717464  s :     3.717464
      pz      :     1.891839  p :     5.315667
      px      :     1.856504
      py      :     1.567324
      dz2     :     0.001999  d :     0.014153
      dxz     :     0.000436
      dyz     :     0.003080
      dx2y2   :     0.004354
      dxy     :     0.004283
  3 S s       :     5.531055  s :     5.531055
      pz      :     3.651204  p :     9.950695
      px      :     3.209314
      py      :     3.090177
      dz2     :     0.016265  d :     0.128368
      dxz     :     0.016145
      dyz     :     0.020399
      dx2y2   :     0.060244
      dxy     :     0.015317
  4 C s       :     2.908038  s :     2.908038
      pz      :     1.118471  p :     2.987985
      px      :     0.952406
      py      :     0.917108
      dz2     :     0.014650  d :     0.187850
      dxz     :     0.030190
      dyz     :     0.018891
      dx2y2   :     0.066161
      dxy     :     0.057959
  5 F s       :     3.717989  s :     3.717989
      pz      :     1.889756  p :     5.315272
      px      :     1.672784
      py      :     1.752732
      dz2     :     0.001977  d :     0.014156
      dxz     :     0.002237
      dyz     :     0.001428
      dx2y2   :     0.002783
      dxy     :     0.005731
  6 C s       :     2.851762  s :     2.851762
      pz      :     1.037261  p :     3.131931
      px      :     1.049324
      py      :     1.045346
      dz2     :     0.009045  d :     0.112599
      dxz     :     0.017079
      dyz     :     0.013749
      dx2y2   :     0.038246
      dxy     :     0.034480
  7 C s       :     2.862853  s :     2.862853
      pz      :     0.963986  p :     3.065443
      px      :     1.079244
      py      :     1.022213
      dz2     :     0.006522  d :     0.092657
      dxz     :     0.011870
      dyz     :     0.009011
      dx2y2   :     0.028826
      dxy     :     0.036429
  8 C s       :     2.883005  s :     2.883005
      pz      :     0.990181  p :     3.097723
      px      :     1.064248
      py      :     1.043294
      dz2     :     0.004902  d :     0.068202
      dxz     :     0.009182
      dyz     :     0.001507
      dx2y2   :     0.024888
      dxy     :     0.027723
  9 H s       :     0.890150  s :     0.890150
      pz      :     0.017347  p :     0.070813
      px      :     0.042839
      py      :     0.010627
 10 H s       :     0.900210  s :     0.900210
      pz      :     0.013624  p :     0.066686
      px      :     0.027462
      py      :     0.025599
 11 H s       :     0.911679  s :     0.911679
      pz      :     0.015012  p :     0.067825
      px      :     0.028595
      py      :     0.024218
 12 H s       :     0.903967  s :     0.903967
      pz      :     0.015427  p :     0.067904
      px      :     0.011600
      py      :     0.040877


                      *****************************
                      * MAYER POPULATION ANALYSIS *
                      *****************************

  NA   - Mulliken gross atomic population
  ZA   - Total nuclear charge
  QA   - Mulliken gross atomic charge
  VA   - Mayer's total valence
  BVA  - Mayer's bonded valence
  FA   - Mayer's free valence

  ATOM       NA         ZA         QA         VA         BVA        FA
  0 C      6.0047     6.0000    -0.0047     3.7948     3.7948    -0.0000
  1 C      5.8671     6.0000     0.1329     3.8737     3.8737    -0.0000
  2 F      9.1610     9.0000    -0.1610     1.2116     1.2116    -0.0000
  3 S     15.9279    16.0000     0.0721     2.3998     2.3998    -0.0000
  4 C      5.9277     6.0000     0.0723     3.8330     3.8330    -0.0000
  5 F      9.1620     9.0000    -0.1620     1.2189     1.2189     0.0000
  6 C      5.9700     6.0000     0.0300     3.8101     3.8101    -0.0000
  7 C      5.9912     6.0000     0.0088     4.0330     4.0330     0.0000
  8 C      6.0296     6.0000    -0.0296     3.9252     3.9252    -0.0000
  9 H      0.9972     1.0000     0.0028     1.0016     1.0016    -0.0000
 10 H      1.0024     1.0000    -0.0024     0.9903     0.9903    -0.0000
 11 H      0.9866     1.0000     0.0134     0.9824     0.9824    -0.0000
 12 H      0.9727     1.0000     0.0273     0.9764     0.9764     0.0000

  Mayer bond orders larger than 0.100000
B(  0-C ,  1-C ) :   1.5575 B(  0-C ,  6-C ) :   1.1389 B(  0-C ,  9-H ) :   0.9945 
B(  1-C ,  2-F ) :   1.1091 B(  1-C ,  3-S ) :   1.0981 B(  3-S ,  4-C ) :   1.0934 
B(  4-C ,  5-F ) :   1.1186 B(  4-C ,  6-C ) :   1.4743 B(  6-C ,  7-C ) :   1.1004 
B(  7-C ,  8-C ) :   1.9211 B(  7-C , 10-H ) :   0.9661 B(  8-C , 11-H ) :   0.9482 
B(  8-C , 12-H ) :   0.9486 

-------
TIMINGS
-------

Total SCF time: 0 days 0 hours 0 min 19 sec 

Total time                  ....      19.373 sec
Sum of individual times     ....      19.251 sec  ( 99.4%)

Fock matrix formation       ....      18.012 sec  ( 93.0%)
  Split-RI-J                ....       1.888 sec  ( 10.5% of F)
  Chain of spheres X        ....      14.239 sec  ( 79.1% of F)
  COS-X 1 center corr.      ....       0.000 sec  (  0.0% of F)
  XC integration            ....       1.831 sec  ( 10.2% of F)
    Basis function eval.    ....       0.731 sec  ( 39.9% of XC)
    Density eval.           ....       0.362 sec  ( 19.8% of XC)
    XC-Functional eval.     ....       0.169 sec  (  9.2% of XC)
    XC-Potential eval.      ....       0.492 sec  ( 26.9% of XC)
Diagonalization             ....       0.003 sec  (  0.0%)
Density matrix formation    ....       0.003 sec  (  0.0%)
Population analysis         ....       0.003 sec  (  0.0%)
Initial guess               ....       0.003 sec  (  0.0%)
Orbital Transformation      ....       0.000 sec  (  0.0%)
Orbital Orthonormalization  ....       0.002 sec  (  0.0%)
DIIS solution               ....       0.001 sec  (  0.0%)
SOSCF solution              ....       0.012 sec  (  0.1%)
Grid generation             ....       1.214 sec  (  6.3%)


-------------------------------------------------------------------------------
                          DFT DISPERSION CORRECTION                            
                                                                               
                              DFTD3 V3.1  Rev 1                                
                          USING Becke-Johnson damping                          
-------------------------------------------------------------------------------
Gaussians B3LYP functional is recognized, using regular B3LYP params
Active option DFTDOPT                   ...         4   

molecular C6(AA) [au] = 2825.447375 


            DFT-D V3
 parameters
 s6 scaling factor         :     1.0000 
 a1 scaling factor         :     0.3981 
 s8 scaling factor         :     1.9889 
 a2 scaling factor         :     4.4211 
 ad hoc parameters k1-k3   :    16.0000     1.3333    -4.0000 

 Edisp/kcal,au: -15.403246600703  -0.024546633309 
 E6   /kcal   :  -6.797059901 
 E8   /kcal   :  -8.606186700 
 % E8         :  55.872550266 

-------------------------   ----------------
Dispersion correction           -0.024546633
-------------------------   ----------------


-------------------------   --------------------
FINAL SINGLE POINT ENERGY      -828.452579810186
-------------------------   --------------------

                                *** OPTIMIZATION RUN DONE ***

                            ***************************************
                            *     ORCA property calculations      *
                            ***************************************

                                    ---------------------
                                    Active property flags
                                    ---------------------
   (+) Dipole Moment


------------------------------------------------------------------------------
                       ORCA ELECTRIC PROPERTIES CALCULATION
------------------------------------------------------------------------------

Dipole Moment Calculation                       ... on
Quadrupole Moment Calculation                   ... off
Polarizability Calculation                      ... off
GBWName                                         ... 922.gbw
Electron density file                           ... 922.scfp
The origin for moment calculation is the CENTER OF MASS  = ( 0.143914, -0.435863  0.037793)

-------------
DIPOLE MOMENT
-------------
                                X             Y             Z
Electronic contribution:      7.79340       9.08064       1.37267
Nuclear contribution   :     -8.01733      -9.23749      -1.41875
                        -----------------------------------------
Total Dipole Moment    :     -0.22393      -0.15685      -0.04609
                        -----------------------------------------
Magnitude (a.u.)       :      0.27725
Magnitude (Debye)      :      0.70472



--------------------
Rotational spectrum 
--------------------
 
Rotational constants in cm-1:     0.067990     0.038309     0.024505 
Rotational constants in MHz :  2038.298355  1148.479723   734.637910 

 Dipole components along the rotational axes: 
x,y,z [a.u.] :     0.199007    -0.192853    -0.008558 
x,y,z [Debye]:     0.505835    -0.490193    -0.021753 

 

Timings for individual modules:

Sum of individual times         ...      228.151 sec (=   3.803 min)
GTO integral calculation        ...        2.440 sec (=   0.041 min)   1.1 %
SCF iterations                  ...      180.626 sec (=   3.010 min)  79.2 %
SCF Gradient evaluation         ...       44.175 sec (=   0.736 min)  19.4 %
Geometry relaxation             ...        0.911 sec (=   0.015 min)   0.4 %
                             ****ORCA TERMINATED NORMALLY****
TOTAL RUN TIME: 0 days 0 hours 3 minutes 48 seconds 969 msec
