
                                 *****************
                                 * O   R   C   A *
                                 *****************

           --- An Ab Initio, DFT and Semiempirical electronic structure package ---

                  #######################################################
                  #                        -***-                        #
                  #          Department of theory and spectroscopy      #
                  #               Directorship: Frank Neese             #
                  #        Max Planck Institute fuer Kohlenforschung    #
                  #                Kaiser Wilhelm Platz 1               #
                  #                 D-45470 Muelheim/Ruhr               #
                  #                      Germany                        #
                  #                                                     #
                  #                  All rights reserved                #
                  #                        -***-                        #
                  #######################################################


                         Program Version 4.2.0 -  RELEASE  -


 With contributions from (in alphabetic order):
   Daniel Aravena         : Magnetic Suceptibility
   Michael Atanasov       : Ab Initio Ligand Field Theory (pilot matlab implementation)
   Alexander A. Auer      : GIAO ZORA, VPT2
   Ute Becker             : Parallelization
   Giovanni Bistoni       : ED, misc. LED, open-shell LED, HFLED
   Martin Brehm           : Molecular dynamics
   Dmytro Bykov           : SCF Hessian
   Vijay G. Chilkuri      : MRCI spin determinant printing, contributions to CSF-ICE
   Dipayan Datta          : RHF DLPNO-CCSD density
   Achintya Kumar Dutta   : EOM-CC, STEOM-CC
   Dmitry Ganyushin       : Spin-Orbit,Spin-Spin,Magnetic field MRCI
   Miquel Garcia          : C-PCM Hessian, Gaussian charge scheme
   Yang Guo               : DLPNO-NEVPT2, CIM, IAO-localization
   Andreas Hansen         : Spin unrestricted coupled pair/coupled cluster methods
   Benjamin Helmich-Paris : CASSCF linear response (MC-RPA)
   Lee Huntington         : MR-EOM, pCC
   Robert Izsak           : Overlap fitted RIJCOSX, COSX-SCS-MP3, EOM
   Christian Kollmar      : KDIIS, OOCD, Brueckner-CCSD(T), CCSD density
   Simone Kossmann        : Meta GGA functionals, TD-DFT gradient, OOMP2, MP2 Hessian
   Martin Krupicka        : AUTO-CI
   Lucas Lang             : DCDCAS
   Dagmar Lenk            : GEPOL surface, SMD
   Dimitrios Liakos       : Extrapolation schemes; Compound Job, initial MDCI parallelization
   Dimitrios Manganas     : Further ROCIS development; embedding schemes
   Dimitrios Pantazis     : SARC Basis sets
   Taras Petrenko         : DFT Hessian,TD-DFT gradient, ASA, ECA, R-Raman, ABS, FL, XAS/XES, NRVS
   Peter Pinski           : DLPNO-MP2, DLPNO-MP2 Gradient
   Christoph Reimann      : Effective Core Potentials
   Marius Retegan         : Local ZFS, SOC
   Christoph Riplinger    : Optimizer, TS searches, QM/MM, DLPNO-CCSD(T), (RO)-DLPNO pert. Triples
   Tobias Risthaus        : Range-separated hybrids, TD-DFT gradient, RPA, STAB
   Michael Roemelt        : Original ROCIS implementation
   Masaaki Saitow         : Open-shell DLPNO-CCSD energy and density
   Barbara Sandhoefer     : DKH picture change effects
   Avijit Sen             : IP-ROCIS
   Kantharuban Sivalingam : CASSCF convergence, NEVPT2, FIC-MRCI
   Bernardo de Souza      : ESD, SOC TD-DFT
   Georgi Stoychev        : AutoAux, RI-MP2 NMR
   Willem Van den Heuvel  : Paramagnetic NMR
   Boris Wezisla          : Elementary symmetry handling
   Frank Wennmohs         : Technical directorship


 We gratefully acknowledge several colleagues who have allowed us to
 interface, adapt or use parts of their codes:
   Stefan Grimme, W. Hujo, H. Kruse,             : VdW corrections, initial TS optimization,
                  C. Bannwarth                     DFT functionals, gCP, sTDA/sTD-DF
   Ed Valeev, F. Pavosevic, A. Kumar             : LibInt (2-el integral package), F12 methods
   Garnet Chan, S. Sharma, J. Yang, R. Olivares  : DMRG
   Ulf Ekstrom                                   : XCFun DFT Library
   Mihaly Kallay                                 : mrcc  (arbitrary order and MRCC methods)
   Andreas Klamt, Michael Diedenhofen            : otool_cosmo (COSMO solvation model)
   Jiri Pittner, Ondrej Demel                    : Mk-CCSD
   Frank Weinhold                                : gennbo (NPA and NBO analysis)
   Christopher J. Cramer and Donald G. Truhlar   : smd solvation model
   Lars Goerigk                                  : TD-DFT with DH, B97 family of functionals
   V. Asgeirsson, H. Jonsson                     : NEB implementation
   FAccTs GmbH                                   : IRC, NEB, NEB-TS, Multilevel, MM, QM/MM, CI optimization
   S Lehtola, MJT Oliveira, MAL Marques          : LibXC Library


 Your calculation uses the libint2 library for the computation of 2-el integrals
 For citations please refer to: http://libint.valeyev.net

 Your ORCA version has been built with support for libXC version: 4.2.3
 For citations please refer to: https://tddft.org/programs/libxc/

 This ORCA versions uses:
   CBLAS   interface :  Fast vector & matrix operations
   LAPACKE interface :  Fast linear algebra routines
   SCALAPACK package :  Parallel linear algebra routines


Your calculation utilizes the atom-pairwise dispersion correction
with the Becke-Johnson damping scheme (D3BJ)
Cite in your paper:
S.Grimme, S.Ehrlich, L.Goerigk, J Comput Chem, (2011), 32, 1456–1465 
S.Grimme, J.Antony, S.Ehrlich and H.Krieg, J.Chem.Phys., 132, (2010), 154104 
   

----- Orbital basis set information -----
Your calculation utilizes the basis: def2-SVP
   F. Weigend and R. Ahlrichs, Phys. Chem. Chem. Phys. 7, 3297 (2005).

----- AuxJ basis set information -----
Your calculation utilizes the auxiliary basis: def2/J
   F. Weigend, Phys. Chem. Chem. Phys. 8, 1057 (2006).

================================================================================
                                        WARNINGS
                       Please study these warnings very carefully!
================================================================================


WARNING: Geometry Optimization
  ===> : Switching off AutoStart
         For restart on a previous wavefunction, please use MOREAD

INFO   : the flag for use of LIBINT has been found!

================================================================================
                                       INPUT FILE
================================================================================
NAME = 971.inp
|  1> # ORCA input file
|  2> # SCF done        -43.385502159501          0.000892301895
|  3> ! B3LYP/G D3BJ Opt RIJCOSX def2-SVP def2/J
|  4> * xyz 0 1
|  5>    C        0.92907         1.54764         0.18001
|  6>    S        2.39663         0.66368         0.09652
|  7>    C        1.59335        -0.87243        -0.05600
|  8>    C        0.21682        -0.67934        -0.03577
|  9>    C       -0.13531         0.70535         0.09775
| 10>    S       -1.85183         0.97749         0.13105
| 11>    C       -2.13110        -0.74869        -0.01731
| 12>    C       -3.53695        -1.16581        -0.03187
| 13>    O       -4.41212        -0.33064         0.02776
| 14>    C       -3.80320        -2.65091        -0.11453
| 15>    C       -5.29377        -2.95568        -0.08346
| 16>    C       -0.96716        -1.46290        -0.09318
| 17>    F       -0.96010        -2.79858        -0.20965
| 18>    C        2.44081        -2.02567        -0.17539
| 19>    C        2.07641        -3.28979        -0.38179
| 20>    H        0.93823         2.61268         0.28311
| 21>    H       -3.29357        -3.14060         0.71910
| 22>    H       -3.35269        -3.03059        -1.03516
| 23>    H       -5.73568        -2.57443         0.83359
| 24>    H       -5.46189        -4.02809        -0.13774
| 25>    H       -5.79317        -2.47624        -0.92139
| 26>    H        3.49392        -1.78823        -0.09294
| 27>    H        1.05526        -3.59982        -0.48699
| 28>    H        2.81949        -4.06403        -0.45816
| 29> *
| 30> 
| 31>                          ****END OF INPUT****
================================================================================

                       *****************************
                       * Geometry Optimization Run *
                       *****************************

Geometry optimization settings:
Update method            Update   .... BFGS
Choice of coordinates    CoordSys .... Z-matrix Internals
Initial Hessian          InHess   .... Almoef's Model

Convergence Tolerances:
Energy Change            TolE     ....  5.0000e-06 Eh
Max. Gradient            TolMAXG  ....  3.0000e-04 Eh/bohr
RMS Gradient             TolRMSG  ....  1.0000e-04 Eh/bohr
Max. Displacement        TolMAXD  ....  4.0000e-03 bohr
RMS Displacement         TolRMSD  ....  2.0000e-03 bohr
Strict Convergence                ....  False
------------------------------------------------------------------------------
                        ORCA OPTIMIZATION COORDINATE SETUP
------------------------------------------------------------------------------

The optimization will be done in new redundant internal coordinates
Making redundant internal coordinates   ...  (new redundants) done
Evaluating the initial hessian          ...  (Almloef) done
Evaluating the coordinates              ...  done
Calculating the B-matrix                .... done
Calculating the G-matrix                .... done
Diagonalizing the G-matrix              .... done
Small eigenvalue found = 5.827e-03
Small eigenvalue found = 2.219e-02
The first mode is                       ....   55
The number of degrees of freedom        ....   66

    -----------------------------------------------------------------
                    Redundant Internal Coordinates


    -----------------------------------------------------------------
         Definition                    Initial Value    Approx d2E/dq
    -----------------------------------------------------------------
      1. B(S   1,C   0)                  1.7153         0.510021   
      2. B(C   2,S   1)                  1.7402         0.465424   
      3. B(C   3,C   2)                  1.3902         0.624443   
      4. B(C   4,C   3)                  1.4350         0.529619   
      5. B(C   4,C   0)                  1.3598         0.698041   
      6. B(S   5,C   4)                  1.7383         0.468653   
      7. B(C   6,S   5)                  1.7549         0.440880   
      8. B(C   7,C   6)                  1.4665         0.471728   
      9. B(O   8,C   7)                  1.2112         1.079323   
     10. B(C   9,C   7)                  1.5110         0.400522   
     11. B(C  10,C   9)                  1.5217         0.385105   
     12. B(C  11,C   6)                  1.3677         0.678131   
     13. B(C  11,C   3)                  1.4209         0.557668   
     14. B(F  12,C  11)                  1.3408         0.623038   
     15. B(C  13,C   2)                  1.4361         0.527445   
     16. B(C  14,C  13)                  1.3317         0.774060   
     17. B(H  15,C   0)                  1.0701         0.387471   
     18. B(H  16,C   9)                  1.0929         0.356268   
     19. B(H  17,C   9)                  1.0930         0.356137   
     20. B(H  18,C  10)                  1.0870         0.364061   
     21. B(H  19,C  10)                  1.0869         0.364272   
     22. B(H  20,C  10)                  1.0869         0.364201   
     23. B(H  21,C  13)                  1.0827         0.369902   
     24. B(H  22,C  14)                  1.0723         0.384223   
     25. B(H  23,C  14)                  1.0758         0.379317   
     26. A(C   4,C   0,H  15)          128.9790         0.364619   
     27. A(S   1,C   0,C   4)          110.3371         0.451934   
     28. A(S   1,C   0,H  15)          120.6839         0.363743   
     29. A(C   0,S   1,C   2)           93.6830         0.443366   
     30. A(S   1,C   2,C  13)          116.3436         0.422647   
     31. A(S   1,C   2,C   3)          109.4633         0.435642   
     32. A(C   3,C   2,C  13)          134.1928         0.422205   
     33. A(C   2,C   3,C   4)          112.2326         0.422516   
     34. A(C   2,C   3,C  11)          138.4079         0.426434   
     35. A(C   4,C   3,C  11)          109.3539         0.414087   
     36. A(C   0,C   4,S   5)          132.4389         0.445052   
     37. A(C   3,C   4,S   5)          113.2766         0.423481   
     38. A(C   0,C   4,C   3)          114.2837         0.431033   
     39. A(C   4,S   5,C   6)           90.0877         0.432409   
     40. A(S   5,C   6,C   7)          115.6690         0.410357   
     41. A(C   7,C   6,C  11)          131.8162         0.420013   
     42. A(S   5,C   6,C  11)          112.5141         0.437870   
     43. A(O   8,C   7,C   9)          123.5786         0.440444   
     44. A(C   6,C   7,C   9)          116.6801         0.382822   
     45. A(C   6,C   7,O   8)          119.7403         0.453704   
     46. A(H  16,C   9,H  17)          107.1349         0.289848   
     47. A(C  10,C   9,H  17)          110.5706         0.325351   
     48. A(C   7,C   9,H  17)          108.3522         0.327460   
     49. A(C  10,C   9,H  16)          110.5758         0.325370   
     50. A(C   7,C   9,H  16)          108.4500         0.327480   
     51. A(C   7,C   9,C  10)          111.6120         0.369635   
     52. A(C   9,C  10,H  18)          110.1934         0.326531   
     53. A(H  18,C  10,H  20)          107.9920         0.291859   
     54. A(H  19,C  10,H  20)          109.0057         0.291886   
     55. A(C   9,C  10,H  20)          110.2412         0.326551   
     56. A(H  18,C  10,H  19)          108.9846         0.291868   
     57. A(C   9,C  10,H  19)          110.3719         0.326562   
     58. A(C   6,C  11,F  12)          121.9727         0.436674   
     59. A(C   3,C  11,F  12)          123.2620         0.421619   
     60. A(C   3,C  11,C   6)          114.7652         0.432793   
     61. A(C   2,C  13,C  14)          127.8573         0.438804   
     62. A(C  14,C  13,H  21)          119.0875         0.368196   
     63. A(C   2,C  13,H  21)          113.0508         0.344977   
     64. A(H  22,C  14,H  23)          116.2756         0.296248   
     65. A(C  13,C  14,H  23)          120.3410         0.369789   
     66. A(C  13,C  14,H  22)          123.3823         0.370607   
     67. D(C   2,S   1,C   0,C   4)      0.1232         0.005363   
     68. D(C   2,S   1,C   0,H  15)   -179.9112         0.005363   
     69. D(C   3,C   2,S   1,C   0)     -0.1885         0.004689   
     70. D(C  13,C   2,S   1,C   0)    179.6411         0.004689   
     71. D(C  11,C   3,C   2,S   1)   -178.8010         0.027006   
     72. D(C  11,C   3,C   2,C  13)      1.4119         0.027006   
     73. D(C   4,C   3,C   2,C  13)   -179.5837         0.027006   
     74. D(C   4,C   3,C   2,S   1)      0.2033         0.027006   
     75. D(C   0,C   4,C   3,C  11)    179.1801         0.019145   
     76. D(S   5,C   4,C   0,H  15)     -0.3615         0.034302   
     77. D(C   0,C   4,C   3,C   2)     -0.1193         0.019145   
     78. D(S   5,C   4,C   3,C   2)   -179.8193         0.019145   
     79. D(S   5,C   4,C   0,S   1)    179.6005         0.034302   
     80. D(C   3,C   4,C   0,H  15)   -179.9880         0.034302   
     81. D(S   5,C   4,C   3,C  11)     -0.5198         0.019145   
     82. D(C   3,C   4,C   0,S   1)     -0.0260         0.034302   
     83. D(C   6,S   5,C   4,C   3)      0.4879         0.004735   
     84. D(C   6,S   5,C   4,C   0)   -179.1416         0.004735   
     85. D(C  11,C   6,S   5,C   4)     -0.3290         0.004348   
     86. D(C   7,C   6,S   5,C   4)    179.4059         0.004348   
     87. D(C   9,C   7,C   6,C  11)      1.5555         0.015152   
     88. D(O   8,C   7,C   6,C  11)   -178.7969         0.015152   
     89. D(O   8,C   7,C   6,S   5)      1.5316         0.015152   
     90. D(C   9,C   7,C   6,S   5)   -178.1160         0.015152   
     91. D(H  17,C   9,C   7,O   8)    120.7812         0.011904   
     92. D(H  17,C   9,C   7,C   6)    -59.5861         0.011904   
     93. D(H  16,C   9,C   7,O   8)   -123.2487         0.011904   
     94. D(H  16,C   9,C   7,C   6)     56.3840         0.011904   
     95. D(C  10,C   9,C   7,O   8)     -1.1974         0.011904   
     96. D(C  10,C   9,C   7,C   6)    178.4353         0.011904   
     97. D(H  18,C  10,C   9,C   7)    -59.2320         0.011804   
     98. D(H  20,C  10,C   9,H  16)   -179.3090         0.011804   
     99. D(H  20,C  10,C   9,C   7)     59.8723         0.011804   
    100. D(H  19,C  10,C   9,H  17)     59.6578         0.011804   
    101. D(H  19,C  10,C   9,H  16)    -58.8325         0.011804   
    102. D(H  19,C  10,C   9,C   7)   -179.6512         0.011804   
    103. D(H  18,C  10,C   9,H  17)   -179.9230         0.011804   
    104. D(H  20,C  10,C   9,H  17)    -60.8187         0.011804   
    105. D(H  18,C  10,C   9,H  16)     61.5867         0.011804   
    106. D(F  12,C  11,C   6,S   5)    179.9571         0.032221   
    107. D(C   3,C  11,C   6,C   7)   -179.5895         0.032221   
    108. D(C   3,C  11,C   6,S   5)      0.0900         0.032221   
    109. D(F  12,C  11,C   3,C   4)   -179.5949         0.021296   
    110. D(F  12,C  11,C   3,C   2)     -0.5718         0.021296   
    111. D(C   6,C  11,C   3,C   4)      0.2703         0.021296   
    112. D(F  12,C  11,C   6,C   7)      0.2776         0.032221   
    113. D(C   6,C  11,C   3,C   2)    179.2934         0.021296   
    114. D(H  21,C  13,C   2,C   3)   -176.6740         0.018985   
    115. D(H  21,C  13,C   2,S   1)      3.5501         0.018985   
    116. D(C  14,C  13,C   2,C   3)      4.1113         0.018985   
    117. D(C  14,C  13,C   2,S   1)   -175.6646         0.018985   
    118. D(H  23,C  14,C  13,H  21)      0.4377         0.042999   
    119. D(H  23,C  14,C  13,C   2)    179.6108         0.042999   
    120. D(H  22,C  14,C  13,H  21)   -179.1628         0.042999   
    121. D(H  22,C  14,C  13,C   2)      0.0103         0.042999   
    -----------------------------------------------------------------

Number of atoms                         .... 24
Number of degrees of freedom            .... 121

         *************************************************************
         *                GEOMETRY OPTIMIZATION CYCLE   1            *
         *************************************************************
---------------------------------
CARTESIAN COORDINATES (ANGSTROEM)
---------------------------------
  C      0.929070    1.547640    0.180010
  S      2.396630    0.663680    0.096520
  C      1.593350   -0.872430   -0.056000
  C      0.216820   -0.679340   -0.035770
  C     -0.135310    0.705350    0.097750
  S     -1.851830    0.977490    0.131050
  C     -2.131100   -0.748690   -0.017310
  C     -3.536950   -1.165810   -0.031870
  O     -4.412120   -0.330640    0.027760
  C     -3.803200   -2.650910   -0.114530
  C     -5.293770   -2.955680   -0.083460
  C     -0.967160   -1.462900   -0.093180
  F     -0.960100   -2.798580   -0.209650
  C      2.440810   -2.025670   -0.175390
  C      2.076410   -3.289790   -0.381790
  H      0.938230    2.612680    0.283110
  H     -3.293570   -3.140600    0.719100
  H     -3.352690   -3.030590   -1.035160
  H     -5.735680   -2.574430    0.833590
  H     -5.461890   -4.028090   -0.137740
  H     -5.793170   -2.476240   -0.921390
  H      3.493920   -1.788230   -0.092940
  H      1.055260   -3.599820   -0.486990
  H      2.819490   -4.064030   -0.458160

----------------------------
CARTESIAN COORDINATES (A.U.)
----------------------------
  NO LB      ZA    FRAG     MASS         X           Y           Z
   0 C     6.0000    0    12.011    1.755688    2.924616    0.340170
   1 S    16.0000    0    32.060    4.528974    1.254173    0.182396
   2 C     6.0000    0    12.011    3.010995   -1.648654   -0.105825
   3 C     6.0000    0    12.011    0.409730   -1.283767   -0.067596
   4 C     6.0000    0    12.011   -0.255699    1.332918    0.184721
   5 S    16.0000    0    32.060   -3.499452    1.847188    0.247649
   6 C     6.0000    0    12.011   -4.027195   -1.414819   -0.032711
   7 C     6.0000    0    12.011   -6.683867   -2.203062   -0.060226
   8 O     8.0000    0    15.999   -8.337698   -0.624819    0.052459
   9 C     6.0000    0    12.011   -7.187006   -5.009494   -0.216430
  10 C     6.0000    0    12.011  -10.003776   -5.585426   -0.157717
  11 C     6.0000    0    12.011   -1.827668   -2.764480   -0.176085
  12 F     9.0000    0    18.998   -1.814326   -5.288550   -0.396181
  13 C     6.0000    0    12.011    4.612462   -3.827962   -0.331439
  14 C     6.0000    0    12.011    3.923846   -6.216802   -0.721479
  15 H     1.0000    0     1.008    1.772998    4.937250    0.535000
  16 H     1.0000    0     1.008   -6.223945   -5.934874    1.358902
  17 H     1.0000    0     1.008   -6.335666   -5.726985   -1.956169
  18 H     1.0000    0     1.008  -10.838864   -4.864968    1.575257
  19 H     1.0000    0     1.008  -10.321476   -7.611987   -0.260291
  20 H     1.0000    0     1.008  -10.947505   -4.679415   -1.741175
  21 H     1.0000    0     1.008    6.602552   -3.379265   -0.175631
  22 H     1.0000    0     1.008    1.994152   -6.802674   -0.920278
  23 H     1.0000    0     1.008    5.328064   -7.679904   -0.865797

--------------------------------
INTERNAL COORDINATES (ANGSTROEM)
--------------------------------
 C      0   0   0     0.000000000000     0.00000000     0.00000000
 S      1   0   0     1.715251647806     0.00000000     0.00000000
 C      2   1   0     1.740159487202    93.68298262     0.00000000
 C      3   2   1     1.390153891445   109.46325473   359.81146913
 C      1   2   3     1.359824965244   110.33708290     0.12315863
 S      5   1   2     1.738277877671   132.43890124   179.60050760
 C      6   5   1     1.754907352227    90.08770459   180.85844745
 C      7   6   5     1.466497633991   115.66899972   179.40592863
 O      8   7   6     1.211192468066   119.74027587     1.53155490
 C      8   7   6     1.511040617621   116.68012387   181.88398191
 C     10   8   7     1.521725672616   111.61201447   178.43526904
 C      7   6   5     1.367701906338   112.51407139   359.67095486
 F     12   7   6     1.340767006940   121.97274654   179.95714017
 C      3   2   1     1.436107559099   116.34362220   179.64107775
 C     14   3   2     1.331686034469   127.85730447   184.33537427
 H      1   2   3     1.070057810214   120.68394921   180.08880613
 H     10   8   7     1.092912626837   108.45001895    56.38402129
 H     10   8   7     1.093012241194   108.35219502   300.41386958
 H     11  10   8     1.087021946927   110.19343902   300.76802309
 H     11  10   8     1.086864232966   110.37191337   180.34877661
 H     11  10   8     1.086917549081   110.24124857    59.87228160
 H     14   3   2     1.082689442176   113.05076899     3.55008887
 H     15  14   3     1.072349273045   123.38227025     0.00000000
 H     15  14   3     1.075847498905   120.34097568   179.61077456

---------------------------
INTERNAL COORDINATES (A.U.)
---------------------------
 C      0   0   0     0.000000000000     0.00000000     0.00000000
 S      1   0   0     3.241355865110     0.00000000     0.00000000
 C      2   1   0     3.288424860157    93.68298262     0.00000000
 C      3   2   1     2.627010138836   109.46325473   359.81146913
 C      1   2   3     2.569696774380   110.33708290     0.12315863
 S      5   1   2     3.284869133452   132.43890124   179.60050760
 C      6   5   1     3.316294286114    90.08770459   180.85844745
 C      7   6   5     2.771278904286   115.66899972   179.40592863
 O      8   7   6     2.288822060113   119.74027587     1.53155490
 C      8   7   6     2.855452944535   116.68012387   181.88398191
 C     10   8   7     2.875644772202   111.61201447   178.43526904
 C      7   6   5     2.584582035820   112.51407139   359.67095486
 F     12   7   6     2.533682452515   121.97274654   179.95714017
 C      3   2   1     2.713849985550   116.34362220   179.64107775
 C     14   3   2     2.516521901514   127.85730447   184.33537427
 H      1   2   3     2.022116208768   120.68394921   180.08880613
 H     10   8   7     2.065305553027   108.45001895    56.38402129
 H     10   8   7     2.065493796880   108.35219502   300.41386958
 H     11  10   8     2.054173781253   110.19343902   300.76802309
 H     11  10   8     2.053875745059   110.37191337   180.34877661
 H     11  10   8     2.053976497916   110.24124857    59.87228160
 H     14   3   2     2.045986533801   113.05076899     3.55008887
 H     15  14   3     2.026446445964   123.38227025     0.00000000
 H     15  14   3     2.033057134794   120.34097568   179.61077456

---------------------
BASIS SET INFORMATION
---------------------
There are 5 groups of distinct atoms

 Group   1 Type C   : 7s4p1d contracted to 3s2p1d pattern {511/31/1}
 Group   2 Type S   : 10s7p1d contracted to 4s3p1d pattern {5311/511/1}
 Group   3 Type O   : 7s4p1d contracted to 3s2p1d pattern {511/31/1}
 Group   4 Type F   : 7s4p1d contracted to 3s2p1d pattern {511/31/1}
 Group   5 Type H   : 4s1p contracted to 2s1p pattern {31/1}

Atom   0C    basis set group =>   1
Atom   1S    basis set group =>   2
Atom   2C    basis set group =>   1
Atom   3C    basis set group =>   1
Atom   4C    basis set group =>   1
Atom   5S    basis set group =>   2
Atom   6C    basis set group =>   1
Atom   7C    basis set group =>   1
Atom   8O    basis set group =>   3
Atom   9C    basis set group =>   1
Atom  10C    basis set group =>   1
Atom  11C    basis set group =>   1
Atom  12F    basis set group =>   4
Atom  13C    basis set group =>   1
Atom  14C    basis set group =>   1
Atom  15H    basis set group =>   5
Atom  16H    basis set group =>   5
Atom  17H    basis set group =>   5
Atom  18H    basis set group =>   5
Atom  19H    basis set group =>   5
Atom  20H    basis set group =>   5
Atom  21H    basis set group =>   5
Atom  22H    basis set group =>   5
Atom  23H    basis set group =>   5
---------------------------------
AUXILIARY/J BASIS SET INFORMATION
---------------------------------
There are 5 groups of distinct atoms

 Group   1 Type C   : 12s5p4d2f1g contracted to 6s4p3d1f1g pattern {711111/2111/211/2/1}
 Group   2 Type S   : 14s5p5d2f1g contracted to 8s4p3d1f1g pattern {71111111/2111/311/2/1}
 Group   3 Type O   : 12s5p4d2f1g contracted to 6s4p3d1f1g pattern {711111/2111/211/2/1}
 Group   4 Type F   : 12s5p4d2f1g contracted to 6s4p3d1f1g pattern {711111/2111/211/2/1}
 Group   5 Type H   : 5s2p1d contracted to 3s1p1d pattern {311/2/1}

Atom   0C    basis set group =>   1
Atom   1S    basis set group =>   2
Atom   2C    basis set group =>   1
Atom   3C    basis set group =>   1
Atom   4C    basis set group =>   1
Atom   5S    basis set group =>   2
Atom   6C    basis set group =>   1
Atom   7C    basis set group =>   1
Atom   8O    basis set group =>   3
Atom   9C    basis set group =>   1
Atom  10C    basis set group =>   1
Atom  11C    basis set group =>   1
Atom  12F    basis set group =>   4
Atom  13C    basis set group =>   1
Atom  14C    basis set group =>   1
Atom  15H    basis set group =>   5
Atom  16H    basis set group =>   5
Atom  17H    basis set group =>   5
Atom  18H    basis set group =>   5
Atom  19H    basis set group =>   5
Atom  20H    basis set group =>   5
Atom  21H    basis set group =>   5
Atom  22H    basis set group =>   5
Atom  23H    basis set group =>   5
------------------------------------------------------------------------------
                           ORCA GTO INTEGRAL CALCULATION
                           -- RI-GTO INTEGRALS CHOSEN --
------------------------------------------------------------------------------

                         BASIS SET STATISTICS AND STARTUP INFO

Gaussian basis set:
 # of primitive gaussian shells          ...  237
 # of primitive gaussian functions       ...  447
 # of contracted shells                  ...  121
 # of contracted basis functions         ...  263
 Highest angular momentum                ...    2
 Maximum contraction depth               ...    5
Auxiliary gaussian basis set:
 # of primitive gaussian shells          ...  438
 # of primitive gaussian functions       ... 1208
 # of contracted shells                  ...  274
 # of contracted aux-basis functions     ...  838
 Highest angular momentum                ...    4
 Maximum contraction depth               ...    7
Ratio of auxiliary to basis functions    ...  3.19
Integral package used                  ... LIBINT
 One Electron integrals                  ... done
 Ordering auxiliary basis shells         ... done
 Integral threshhold             Thresh  ...  2.500e-11
 Primitive cut-off               TCut    ...  2.500e-12
 Pre-screening matrix                    ... done
 Shell pair data                         ... 
 Ordering of the shell pairs             ... done (   0.001 sec) 5905 of 7381 pairs
 Determination of significant pairs      ... done (   0.000 sec)
 Creation of shell pair data             ... done (   0.001 sec)
 Storage of shell pair data              ... done (   0.001 sec)
 Shell pair data done in (   0.003 sec)
 Computing two index integrals           ... done
 Cholesky decomposition of the V-matrix  ... done


Timings:
 Total evaluation time                   ...   0.199 sec (  0.003 min)
 One electron matrix time                ...   0.030 sec (  0.000 min) = 14.9%
 Schwartz matrix evaluation time         ...   0.120 sec (  0.002 min) = 60.2%
 Two index repulsion integral time       ...   0.017 sec (  0.000 min) =  8.7%
 Cholesky decomposition of V             ...   0.012 sec (  0.000 min) =  6.1%
 Three index repulsion integral time     ...   0.000 sec (  0.000 min) =  0.0%

-------------------------------------------------------------------------------
                                 ORCA SCF
-------------------------------------------------------------------------------

------------
SCF SETTINGS
------------
Hamiltonian:
 Density Functional     Method          .... DFT(GTOs)
 Exchange Functional    Exchange        .... B88
   X-Alpha parameter    XAlpha          ....  0.666667
   Becke's b parameter  XBeta           ....  0.004200
 Correlation Functional Correlation     .... LYP
 LDA part of GGA corr.  LDAOpt          .... VWN-3
 Gradients option       PostSCFGGA      .... off
 Hybrid DFT is turned on
   Fraction HF Exchange ScalHFX         ....  0.200000
   Scaling of DF-GGA-X  ScalDFX         ....  0.720000
   Scaling of DF-GGA-C  ScalDFC         ....  0.810000
   Scaling of DF-LDA-C  ScalLDAC        ....  1.000000
   Perturbative correction              ....  0.000000
   Density functional embedding theory  .... OFF
   NL short-range parameter             ....  4.800000
 RI-approximation to the Coulomb term is turned on
   Number of auxiliary basis functions  .... 838
   RIJ-COSX (HFX calculated with COS-X)).... on


General Settings:
 Integral files         IntName         .... 971
 Hartree-Fock type      HFTyp           .... RHF
 Total Charge           Charge          ....    0
 Multiplicity           Mult            ....    1
 Number of Electrons    NEL             ....  124
 Basis Dimension        Dim             ....  263
 Nuclear Repulsion      ENuc            ....   1179.4203677774 Eh

Convergence Acceleration:
 DIIS                   CNVDIIS         .... on
   Start iteration      DIISMaxIt       ....    12
   Startup error        DIISStart       ....  0.200000
   # of expansion vecs  DIISMaxEq       ....     5
   Bias factor          DIISBfac        ....   1.050
   Max. coefficient     DIISMaxC        ....  10.000
 Newton-Raphson         CNVNR           .... off
 SOSCF                  CNVSOSCF        .... on
   Start iteration      SOSCFMaxIt      ....   150
   Startup grad/error   SOSCFStart      ....  0.003300
 Level Shifting         CNVShift        .... on
   Level shift para.    LevelShift      ....    0.2500
   Turn off err/grad.   ShiftErr        ....    0.0010
 Zerner damping         CNVZerner       .... off
 Static damping         CNVDamp         .... on
   Fraction old density DampFac         ....    0.7000
   Max. Damping (<1)    DampMax         ....    0.9800
   Min. Damping (>=0)   DampMin         ....    0.0000
   Turn off err/grad.   DampErr         ....    0.1000
 Fernandez-Rico         CNVRico         .... off

SCF Procedure:
 Maximum # iterations   MaxIter         ....   125
 SCF integral mode      SCFMode         .... Direct
   Integral package                     .... LIBINT
 Reset frequency        DirectResetFreq ....    20
 Integral Threshold     Thresh          ....  2.500e-11 Eh
 Primitive CutOff       TCut            ....  2.500e-12 Eh

Convergence Tolerance:
 Convergence Check Mode ConvCheckMode   .... Total+1el-Energy
 Convergence forced     ConvForced      .... 0
 Energy Change          TolE            ....  1.000e-08 Eh
 1-El. energy change                    ....  1.000e-05 Eh
 Orbital Gradient       TolG            ....  1.000e-05
 Orbital Rotation angle TolX            ....  1.000e-05
 DIIS Error             TolErr          ....  5.000e-07


Diagonalization of the overlap matrix:
Smallest eigenvalue                        ... 4.878e-04
Time for diagonalization                   ...    0.089 sec
Threshold for overlap eigenvalues          ... 1.000e-08
Number of eigenvalues below threshold      ... 0
Time for construction of square roots      ...    0.004 sec
Total time needed                          ...    0.094 sec

-------------------
DFT GRID GENERATION
-------------------

General Integration Accuracy     IntAcc      ...  4.340
Radial Grid Type                 RadialGrid  ... Gauss-Chebyshev
Angular Grid (max. acc.)         AngularGrid ... Lebedev-110
Angular grid pruning method      GridPruning ... 3 (G Style)
Weight generation scheme         WeightScheme... Becke
Basis function cutoff            BFCut       ...    1.0000e-11
Integration weight cutoff        WCut        ...    1.0000e-14
Grids for H and He will be reduced by one unit

# of grid points (after initial pruning)     ...  32430 (   0.0 sec)
# of grid points (after weights+screening)   ...  29667 (   0.1 sec)
nearest neighbour list constructed           ...    0.0 sec
Grid point re-assignment to atoms done       ...    0.0 sec
Grid point division into batches done        ...    0.0 sec
Reduced shell lists constructed in    0.2 sec

Total number of grid points                  ...    29667
Total number of batches                      ...      474
Average number of points per batch           ...       62
Average number of grid points per atom       ...     1236
Average number of shells per batch           ...    66.31 (54.80%)
Average number of basis functions per batch  ...   141.21 (53.69%)
Average number of large shells per batch     ...    46.94 (70.80%)
Average number of large basis fcns per batch ...   100.00 (70.81%)
Maximum spatial batch extension              ...  21.60, 19.41, 25.63 au
Average spatial batch extension              ...   3.42,  3.51,  4.40 au

Time for grid setup =    0.373 sec

------------------------------
INITIAL GUESS: MODEL POTENTIAL
------------------------------
Loading Hartree-Fock densities                     ... done
Calculating cut-offs                               ... done
Setting up the integral package                    ... done
Initializing the effective Hamiltonian             ... done
Starting the Coulomb interaction                   ... done (   0.3 sec)
Reading the grid                                   ... done
Mapping shells                                     ... done
Starting the XC term evaluation                    ... done (   0.4 sec)
  promolecular density results
     # of electrons  =    124.002019685
     EX              =   -127.597372628
     EC              =     -4.486400595
     EX+EC           =   -132.083773222
Transforming the Hamiltonian                       ... done (   0.0 sec)
Diagonalizing the Hamiltonian                      ... done (   0.0 sec)
Back transforming the eigenvectors                 ... done (   0.0 sec)
Now organizing SCF variables                       ... done
                      ------------------
                      INITIAL GUESS DONE (   1.1 sec)
                      ------------------
--------------------
COSX GRID GENERATION
--------------------

General Integration Accuracy     IntAcc      ...  3.340
Radial Grid Type                 RadialGrid  ... Gauss-Chebyshev
Angular Grid (max. acc.)         AngularGrid ... Lebedev-50
Angular grid pruning method      GridPruning ... 3 (G Style)
Weight generation scheme         WeightScheme... Becke
Basis function cutoff            BFCut       ...    1.0000e-11
Integration weight cutoff        WCut        ...    1.0000e-14
Grids for H and He will be reduced by one unit

# of grid points (after initial pruning)     ...  11832 (   0.0 sec)
# of grid points (after weights+screening)   ...  10972 (   0.0 sec)
nearest neighbour list constructed           ...    0.0 sec
Grid point re-assignment to atoms done       ...    0.0 sec
Grid point division into batches done        ...    0.0 sec
Reduced shell lists constructed in    0.1 sec

Total number of grid points                  ...    10972
Total number of batches                      ...      182
Average number of points per batch           ...       60
Average number of grid points per atom       ...      457
Average number of shells per batch           ...    71.67 (59.23%)
Average number of basis functions per batch  ...   153.69 (58.44%)
Average number of large shells per batch     ...    50.78 (70.86%)
Average number of large basis fcns per batch ...   109.23 (71.07%)
Maximum spatial batch extension              ...  17.38, 17.91, 24.91 au
Average spatial batch extension              ...   4.30,  4.70,  5.83 au

Overlap Fitting                  UseSFitting ... on
Constructing numerical overlap ... done (      0.1 sec)
Inverting numerical overlap    ... done (      0.0 sec)
Obtaining analytic overlap     ... done (      0.0 sec)
Final contraction and storage  ... done (      0.0 sec)


General Integration Accuracy     IntAcc      ...  3.670
Radial Grid Type                 RadialGrid  ... Gauss-Chebyshev
Angular Grid (max. acc.)         AngularGrid ... Lebedev-50
Angular grid pruning method      GridPruning ... 3 (G Style)
Weight generation scheme         WeightScheme... Becke
Basis function cutoff            BFCut       ...    1.0000e-11
Integration weight cutoff        WCut        ...    1.0000e-14
Grids for H and He will be reduced by one unit

# of grid points (after initial pruning)     ...  14866 (   0.0 sec)
# of grid points (after weights+screening)   ...  13751 (   0.0 sec)
nearest neighbour list constructed           ...    0.0 sec
Grid point re-assignment to atoms done       ...    0.0 sec
Grid point division into batches done        ...    0.0 sec
Reduced shell lists constructed in    0.1 sec

Total number of grid points                  ...    13751
Total number of batches                      ...      229
Average number of points per batch           ...       60
Average number of grid points per atom       ...      573
Average number of shells per batch           ...    69.85 (57.73%)
Average number of basis functions per batch  ...   149.17 (56.72%)
Average number of large shells per batch     ...    49.21 (70.45%)
Average number of large basis fcns per batch ...   105.43 (70.68%)
Maximum spatial batch extension              ...  18.81, 18.13, 22.94 au
Average spatial batch extension              ...   3.87,  4.30,  5.44 au

Overlap Fitting                  UseSFitting ... on
Constructing numerical overlap ... done (      0.1 sec)
Inverting numerical overlap    ... done (      0.0 sec)
Obtaining analytic overlap     ... done (      0.0 sec)
Final contraction and storage  ... done (      0.0 sec)


General Integration Accuracy     IntAcc      ...  4.010
Radial Grid Type                 RadialGrid  ... Gauss-Chebyshev
Angular Grid (max. acc.)         AngularGrid ... Lebedev-110
Angular grid pruning method      GridPruning ... 3 (G Style)
Weight generation scheme         WeightScheme... Becke
Basis function cutoff            BFCut       ...    1.0000e-11
Integration weight cutoff        WCut        ...    1.0000e-14
Grids for H and He will be reduced by one unit

# of grid points (after initial pruning)     ...  28292 (   0.0 sec)
# of grid points (after weights+screening)   ...  25952 (   0.1 sec)
nearest neighbour list constructed           ...    0.0 sec
Grid point re-assignment to atoms done       ...    0.0 sec
Grid point division into batches done        ...    0.0 sec
Reduced shell lists constructed in    0.2 sec

Total number of grid points                  ...    25952
Total number of batches                      ...      418
Average number of points per batch           ...       62
Average number of grid points per atom       ...     1081
Average number of shells per batch           ...    67.09 (55.45%)
Average number of basis functions per batch  ...   142.98 (54.36%)
Average number of large shells per batch     ...    47.40 (70.66%)
Average number of large basis fcns per batch ...   101.13 (70.73%)
Maximum spatial batch extension              ...  20.46, 18.98, 24.26 au
Average spatial batch extension              ...   3.52,  3.62,  4.45 au

Overlap Fitting                  UseSFitting ... on
Constructing numerical overlap ... done (      0.1 sec)
Inverting numerical overlap    ... done (      0.0 sec)
Obtaining analytic overlap     ... done (      0.0 sec)
Final contraction and storage  ... done (      0.0 sec)

Time for X-Grid setup             =    1.004 sec
--------------
SCF ITERATIONS
--------------
ITER       Energy         Delta-E        Max-DP      RMS-DP      [F,P]     Damp
               ***  Starting incremental Fock matrix formation  ***
  0  -1394.9460281166   0.000000000000 0.13583643  0.00243858  0.2617587 0.7000
  1  -1395.1345332515  -0.188505134922 0.09100190  0.00163204  0.1001158 0.7000
                               ***Turning on DIIS***
  2  -1395.2040055439  -0.069472292416 0.12673128  0.00246875  0.0361886 0.0000
  3  -1395.3042682209  -0.100262677052 0.08722450  0.00127865  0.0544900 0.0000
  4  -1395.3352454337  -0.030977212803 0.01329990  0.00037541  0.0139517 0.0000
  5  -1395.3373611426  -0.002115708860 0.01279625  0.00017723  0.0142261 0.0000
                      *** Initiating the SOSCF procedure ***
                           *** Shutting down DIIS ***
                      *** Re-Reading the Fockian *** 
                      *** Removing any level shift *** 
ITER      Energy       Delta-E        Grad      Rot      Max-DP    RMS-DP
  6  -1395.33774472  -0.0003835725  0.000554  0.000554  0.002510  0.000053
               *** Restarting incremental Fock matrix formation ***
  7  -1395.33777168  -0.0000269680  0.000491  0.002625  0.003258  0.000055
  8  -1395.33776596   0.0000057226  0.000711  0.001157  0.001246  0.000031
  9  -1395.33778031  -0.0000143540  0.000083  0.000564  0.000515  0.000014
 10  -1395.33777961   0.0000007003  0.000140  0.000428  0.000327  0.000008
 11  -1395.33778083  -0.0000012173  0.000034  0.000193  0.000197  0.000004
 12  -1395.33778079   0.0000000387  0.000053  0.000128  0.000132  0.000003
 13  -1395.33778090  -0.0000001028  0.000005  0.000026  0.000038  0.000001
 14  -1395.33778089   0.0000000067  0.000011  0.000017  0.000026  0.000001
                  ***Gradient check signals convergence***
              ***Rediagonalizing the Fockian in SOSCF/NRSCF***

               *****************************************************
               *                     SUCCESS                       *
               *           SCF CONVERGED AFTER  15 CYCLES          *
               *****************************************************

Setting up the final grid:

General Integration Accuracy     IntAcc      ...  4.670
Radial Grid Type                 RadialGrid  ... Gauss-Chebyshev
Angular Grid (max. acc.)         AngularGrid ... Lebedev-302
Angular grid pruning method      GridPruning ... 3 (G Style)
Weight generation scheme         WeightScheme... Becke
Basis function cutoff            BFCut       ...    1.0000e-11
Integration weight cutoff        WCut        ...    1.0000e-14
Grids for H and He will be reduced by one unit

# of grid points (after initial pruning)     ... 125054 (   0.1 sec)
# of grid points (after weights+screening)   ... 112515 (   0.4 sec)
nearest neighbour list constructed           ...    0.0 sec
Grid point re-assignment to atoms done       ...    0.0 sec
Grid point division into batches done        ...    0.4 sec
Reduced shell lists constructed in    1.2 sec

Total number of grid points                  ...   112515
Total number of batches                      ...     1770
Average number of points per batch           ...       63
Average number of grid points per atom       ...     4688
Average number of shells per batch           ...    59.56 (49.23%)
Average number of basis functions per batch  ...   125.71 (47.80%)
Average number of large shells per batch     ...    41.38 (69.48%)
Average number of large basis fcns per batch ...    87.42 (69.55%)
Maximum spatial batch extension              ...  20.12, 22.37, 22.61 au
Average spatial batch extension              ...   2.30,  2.34,  2.59 au

Final grid set up in    1.7 sec
Final integration                            ... done (   1.6 sec)
Change in XC energy                          ...     0.000040008
Integrated number of electrons               ...   123.999977373
Previous integrated no of electrons          ...   124.003046207
Old exchange energy                            =    -25.705043793 Eh
New exchange energy                            =    -25.703640623 Eh
Exchange energy change after final integration =      0.001403170 Eh
Total energy after final integration           =  -1395.336337715 Eh
Final COS-X integration done in                =    13.196 sec

----------------
TOTAL SCF ENERGY
----------------

Total Energy       :        -1395.33633771 Eh          -37969.03206 eV

Components:
Nuclear Repulsion  :         1179.42036778 Eh           32093.65982 eV
Electronic Energy  :        -2574.75670549 Eh          -70062.69187 eV
One Electron Energy:        -4259.03862335 Eh         -115894.33290 eV
Two Electron Energy:         1684.28191786 Eh           45831.64102 eV

Virial components:
Potential Energy   :        -2783.49451643 Eh          -75742.73648 eV
Kinetic Energy     :         1388.15817872 Eh           37773.70442 eV
Virial Ratio       :            2.00517099


DFT components:
N(Alpha)           :       61.999988686292 electrons
N(Beta)            :       61.999988686292 electrons
N(Total)           :      123.999977372584 electrons
E(X)               :     -102.117335516055 Eh       
E(C)               :       -5.732683056011 Eh       
E(XC)              :     -107.850018572066 Eh       
DFET-embed. en.    :        0.000000000000 Eh       

---------------
SCF CONVERGENCE
---------------

  Last Energy change         ...   -3.3319e-09  Tolerance :   1.0000e-08
  Last MAX-Density change    ...    4.8850e-15  Tolerance :   1.0000e-07
  Last RMS-Density change    ...    5.5153e-17  Tolerance :   5.0000e-09
  Last Orbital Gradient      ...    1.1478e-06  Tolerance :   1.0000e-05
  Last Orbital Rotation      ...    5.6977e-06  Tolerance :   1.0000e-05

             **** THE GBW FILE WAS UPDATED (971.gbw) ****
             **** DENSITY FILE WAS UPDATED (971.scfp) ****
             **** ENERGY FILE WAS UPDATED (971.en.tmp) ****
             **** THE GBW FILE WAS UPDATED (971.gbw) ****
             **** DENSITY FILE WAS UPDATED (971.scfp) ****
----------------
ORBITAL ENERGIES
----------------

  NO   OCC          E(Eh)            E(eV) 
   0   2.0000     -88.897168     -2419.0149 
   1   2.0000     -88.878567     -2418.5088 
   2   2.0000     -24.732847      -673.0150 
   3   2.0000     -19.128035      -520.5003 
   4   2.0000     -10.301918      -280.3294 
   5   2.0000     -10.280541      -279.7477 
   6   2.0000     -10.241121      -278.6751 
   7   2.0000     -10.233665      -278.4722 
   8   2.0000     -10.227777      -278.3120 
   9   2.0000     -10.227225      -278.2969 
  10   2.0000     -10.221812      -278.1496 
  11   2.0000     -10.212767      -277.9035 
  12   2.0000     -10.194453      -277.4052 
  13   2.0000     -10.194325      -277.4017 
  14   2.0000     -10.176177      -276.9078 
  15   2.0000      -7.992289      -217.4812 
  16   2.0000      -7.973450      -216.9686 
  17   2.0000      -5.960278      -162.1874 
  18   2.0000      -5.956096      -162.0736 
  19   2.0000      -5.953892      -162.0136 
  20   2.0000      -5.942146      -161.6940 
  21   2.0000      -5.938315      -161.5898 
  22   2.0000      -5.933131      -161.4487 
  23   2.0000      -1.240052       -33.7435 
  24   2.0000      -1.040737       -28.3199 
  25   2.0000      -0.926628       -25.2148 
  26   2.0000      -0.868204       -23.6250 
  27   2.0000      -0.804743       -21.8982 
  28   2.0000      -0.783883       -21.3305 
  29   2.0000      -0.762261       -20.7422 
  30   2.0000      -0.747339       -20.3361 
  31   2.0000      -0.705449       -19.1963 
  32   2.0000      -0.671205       -18.2644 
  33   2.0000      -0.625633       -17.0243 
  34   2.0000      -0.613194       -16.6858 
  35   2.0000      -0.592573       -16.1247 
  36   2.0000      -0.574895       -15.6437 
  37   2.0000      -0.544008       -14.8032 
  38   2.0000      -0.515846       -14.0369 
  39   2.0000      -0.503966       -13.7136 
  40   2.0000      -0.495731       -13.4895 
  41   2.0000      -0.477193       -12.9851 
  42   2.0000      -0.469223       -12.7682 
  43   2.0000      -0.468466       -12.7476 
  44   2.0000      -0.445297       -12.1172 
  45   2.0000      -0.435692       -11.8558 
  46   2.0000      -0.429427       -11.6853 
  47   2.0000      -0.422905       -11.5078 
  48   2.0000      -0.403977       -10.9928 
  49   2.0000      -0.397541       -10.8176 
  50   2.0000      -0.386696       -10.5225 
  51   2.0000      -0.379202       -10.3186 
  52   2.0000      -0.366186        -9.9644 
  53   2.0000      -0.365072        -9.9341 
  54   2.0000      -0.356352        -9.6968 
  55   2.0000      -0.347577        -9.4581 
  56   2.0000      -0.346848        -9.4382 
  57   2.0000      -0.323383        -8.7997 
  58   2.0000      -0.276008        -7.5106 
  59   2.0000      -0.264188        -7.1889 
  60   2.0000      -0.260672        -7.0932 
  61   2.0000      -0.212659        -5.7867 
  62   0.0000      -0.089145        -2.4258 
  63   0.0000      -0.031175        -0.8483 
  64   0.0000       0.004542         0.1236 
  65   0.0000       0.013908         0.3785 
  66   0.0000       0.023125         0.6293 
  67   0.0000       0.049420         1.3448 
  68   0.0000       0.062025         1.6878 
  69   0.0000       0.075165         2.0453 
  70   0.0000       0.079433         2.1615 
  71   0.0000       0.102507         2.7894 
  72   0.0000       0.109280         2.9737 
  73   0.0000       0.113399         3.0857 
  74   0.0000       0.122612         3.3365 
  75   0.0000       0.126137         3.4324 
  76   0.0000       0.135459         3.6860 
  77   0.0000       0.147083         4.0023 
  78   0.0000       0.160185         4.3589 
  79   0.0000       0.166169         4.5217 
  80   0.0000       0.169014         4.5991 
  81   0.0000       0.216501         5.8913 
  82   0.0000       0.228433         6.2160 
  83   0.0000       0.245510         6.6807 
  84   0.0000       0.264779         7.2050 
  85   0.0000       0.274280         7.4635 
  86   0.0000       0.289460         7.8766 
  87   0.0000       0.298133         8.1126 
  88   0.0000       0.304058         8.2738 
  89   0.0000       0.311838         8.4855 
  90   0.0000       0.328998         8.9525 
  91   0.0000       0.344069         9.3626 
  92   0.0000       0.354109         9.6358 
  93   0.0000       0.374514        10.1910 
  94   0.0000       0.389078        10.5873 
  95   0.0000       0.410848        11.1797 
  96   0.0000       0.418358        11.3841 
  97   0.0000       0.425821        11.5872 
  98   0.0000       0.432446        11.7675 
  99   0.0000       0.437362        11.9012 
 100   0.0000       0.443070        12.0566 
 101   0.0000       0.469528        12.7765 
 102   0.0000       0.474170        12.9028 
 103   0.0000       0.475685        12.9441 
 104   0.0000       0.479211        13.0400 
 105   0.0000       0.502775        13.6812 
 106   0.0000       0.513899        13.9839 
 107   0.0000       0.523650        14.2492 
 108   0.0000       0.533723        14.5233 
 109   0.0000       0.536352        14.5949 
 110   0.0000       0.554309        15.0835 
 111   0.0000       0.555601        15.1187 
 112   0.0000       0.564983        15.3740 
 113   0.0000       0.577458        15.7134 
 114   0.0000       0.582218        15.8429 
 115   0.0000       0.611847        16.6492 
 116   0.0000       0.614678        16.7262 
 117   0.0000       0.625704        17.0263 
 118   0.0000       0.639453        17.4004 
 119   0.0000       0.642104        17.4725 
 120   0.0000       0.642338        17.4789 
 121   0.0000       0.645163        17.5558 
 122   0.0000       0.650000        17.6874 
 123   0.0000       0.659069        17.9342 
 124   0.0000       0.673012        18.3136 
 125   0.0000       0.676954        18.4209 
 126   0.0000       0.677794        18.4437 
 127   0.0000       0.684177        18.6174 
 128   0.0000       0.687273        18.7016 
 129   0.0000       0.693453        18.8698 
 130   0.0000       0.694134        18.8884 
 131   0.0000       0.701716        19.0947 
 132   0.0000       0.702794        19.1240 
 133   0.0000       0.720659        19.6101 
 134   0.0000       0.732728        19.9386 
 135   0.0000       0.744266        20.2525 
 136   0.0000       0.750046        20.4098 
 137   0.0000       0.761094        20.7104 
 138   0.0000       0.774058        21.0632 
 139   0.0000       0.788677        21.4610 
 140   0.0000       0.792269        21.5587 
 141   0.0000       0.803584        21.8666 
 142   0.0000       0.818746        22.2792 
 143   0.0000       0.840602        22.8739 
 144   0.0000       0.842705        22.9312 
 145   0.0000       0.866378        23.5753 
 146   0.0000       0.878371        23.9017 
 147   0.0000       0.894671        24.3452 
 148   0.0000       0.918068        24.9819 
 149   0.0000       0.942563        25.6485 
 150   0.0000       0.977904        26.6101 
 151   0.0000       1.019508        27.7422 
 152   0.0000       1.043487        28.3947 
 153   0.0000       1.047945        28.5160 
 154   0.0000       1.058654        28.8074 
 155   0.0000       1.109848        30.2005 
 156   0.0000       1.119487        30.4628 
 157   0.0000       1.146546        31.1991 
 158   0.0000       1.152425        31.3591 
 159   0.0000       1.159162        31.5424 
 160   0.0000       1.160166        31.5697 
 161   0.0000       1.189129        32.3579 
 162   0.0000       1.201890        32.7051 
 163   0.0000       1.207854        32.8674 
 164   0.0000       1.231226        33.5034 
 165   0.0000       1.235799        33.6278 
 166   0.0000       1.252632        34.0858 
 167   0.0000       1.263870        34.3917 
 168   0.0000       1.277956        34.7750 
 169   0.0000       1.305944        35.5365 
 170   0.0000       1.320239        35.9255 
 171   0.0000       1.332290        36.2535 
 172   0.0000       1.344283        36.5798 
 173   0.0000       1.358760        36.9738 
 174   0.0000       1.380929        37.5770 
 175   0.0000       1.393881        37.9294 
 176   0.0000       1.447501        39.3885 
 177   0.0000       1.487001        40.4634 
 178   0.0000       1.518130        41.3104 
 179   0.0000       1.543990        42.0141 
 180   0.0000       1.570410        42.7330 
 181   0.0000       1.580281        43.0016 
 182   0.0000       1.615399        43.9572 
 183   0.0000       1.624182        44.1962 
 184   0.0000       1.644659        44.7534 
 185   0.0000       1.655941        45.0604 
 186   0.0000       1.671896        45.4946 
 187   0.0000       1.712906        46.6106 
 188   0.0000       1.729129        47.0520 
 189   0.0000       1.731612        47.1196 
 190   0.0000       1.745391        47.4945 
 191   0.0000       1.764649        48.0185 
 192   0.0000       1.773765        48.2666 
 193   0.0000       1.783219        48.5239 
 194   0.0000       1.788401        48.6649 
 195   0.0000       1.810648        49.2702 
 196   0.0000       1.817834        49.4658 
 197   0.0000       1.824627        49.6506 
 198   0.0000       1.833131        49.8820 
 199   0.0000       1.860692        50.6320 
 200   0.0000       1.864111        50.7250 
 201   0.0000       1.865187        50.7543 
 202   0.0000       1.888341        51.3844 
 203   0.0000       1.915089        52.1122 
 204   0.0000       1.937796        52.7301 
 205   0.0000       1.966736        53.5176 
 206   0.0000       1.970128        53.6099 
 207   0.0000       1.992493        54.2185 
 208   0.0000       2.010866        54.7184 
 209   0.0000       2.018719        54.9321 
 210   0.0000       2.032525        55.3078 
 211   0.0000       2.052609        55.8543 
 212   0.0000       2.055459        55.9319 
 213   0.0000       2.079582        56.5883 
 214   0.0000       2.091980        56.9257 
 215   0.0000       2.094771        57.0016 
 216   0.0000       2.151156        58.5359 
 217   0.0000       2.160673        58.7949 
 218   0.0000       2.237962        60.8980 
 219   0.0000       2.239715        60.9458 
 220   0.0000       2.242281        61.0156 
 221   0.0000       2.284891        62.1750 
 222   0.0000       2.288505        62.2734 
 223   0.0000       2.300960        62.6123 
 224   0.0000       2.320878        63.1543 
 225   0.0000       2.334249        63.5181 
 226   0.0000       2.381221        64.7963 
 227   0.0000       2.399845        65.3031 
 228   0.0000       2.404132        65.4198 
 229   0.0000       2.418983        65.8239 
 230   0.0000       2.426531        66.0293 
 231   0.0000       2.428440        66.0812 
 232   0.0000       2.503950        68.1359 
 233   0.0000       2.528988        68.8172 
 234   0.0000       2.539473        69.1026 
 235   0.0000       2.581332        70.2416 
 236   0.0000       2.607430        70.9518 
 237   0.0000       2.613620        71.1202 
 238   0.0000       2.659903        72.3796 
 239   0.0000       2.670078        72.6565 
 240   0.0000       2.716710        73.9254 
 241   0.0000       2.725058        74.1526 
 242   0.0000       2.772937        75.4555 
 243   0.0000       2.796001        76.0830 
 244   0.0000       2.851551        77.5946 
 245   0.0000       2.874757        78.2261 
 246   0.0000       2.901193        78.9455 
 247   0.0000       2.930304        79.7376 
 248   0.0000       2.971729        80.8649 
 249   0.0000       2.991984        81.4160 
 250   0.0000       3.015219        82.0483 
 251   0.0000       3.034324        82.5682 
 252   0.0000       3.053688        83.0951 
 253   0.0000       3.096789        84.2679 
 254   0.0000       3.115318        84.7721 
 255   0.0000       3.156927        85.9043 
 256   0.0000       3.158920        85.9586 
 257   0.0000       3.295033        89.6624 
 258   0.0000       3.375107        91.8413 
 259   0.0000       3.409239        92.7701 
 260   0.0000       3.533261        96.1449 
 261   0.0000       3.634404        98.8972 
 262   0.0000       3.856400       104.9380 

                    ********************************
                    * MULLIKEN POPULATION ANALYSIS *
                    ********************************

-----------------------
MULLIKEN ATOMIC CHARGES
-----------------------
   0 C :   -0.148433
   1 S :    0.136376
   2 C :   -0.150883
   3 C :    0.074755
   4 C :    0.005984
   5 S :    0.169879
   6 C :   -0.175230
   7 C :    0.036049
   8 O :   -0.193805
   9 C :   -0.018118
  10 C :    0.068734
  11 C :    0.228414
  12 F :   -0.180037
  13 C :    0.043046
  14 C :   -0.017043
  15 H :    0.021499
  16 H :    0.026233
  17 H :    0.024927
  18 H :    0.011400
  19 H :    0.001313
  20 H :    0.013107
  21 H :   -0.018860
  22 H :    0.017962
  23 H :    0.022730
Sum of atomic charges:    0.0000000

--------------------------------
MULLIKEN REDUCED ORBITAL CHARGES
--------------------------------
  0 C s       :     3.223408  s :     3.223408
      pz      :     1.129131  p :     2.889191
      px      :     0.892207
      py      :     0.867853
      dz2     :     0.003152  d :     0.035833
      dxz     :     0.007037
      dyz     :     0.003420
      dx2y2   :     0.010446
      dxy     :     0.011779
  1 S s       :     5.849972  s :     5.849972
      pz      :     3.610910  p :     9.897345
      px      :     3.305793
      py      :     2.980643
      dz2     :     0.012825  d :     0.116307
      dxz     :     0.013455
      dyz     :     0.024680
      dx2y2   :     0.024842
      dxy     :     0.040506
  2 C s       :     3.081794  s :     3.081794
      pz      :     1.084774  p :     3.024168
      px      :     1.049896
      py      :     0.889499
      dz2     :     0.003662  d :     0.044920
      dxz     :     0.008039
      dyz     :     0.006275
      dx2y2   :     0.012443
      dxy     :     0.014501
  3 C s       :     3.116004  s :     3.116004
      pz      :     1.064234  p :     2.766376
      px      :     0.791549
      py      :     0.910592
      dz2     :     0.003652  d :     0.042866
      dxz     :     0.008986
      dyz     :     0.005315
      dx2y2   :     0.012504
      dxy     :     0.012409
  4 C s       :     2.986557  s :     2.986557
      pz      :     1.053015  p :     2.959615
      px      :     0.897552
      py      :     1.009048
      dz2     :     0.003815  d :     0.047843
      dxz     :     0.009470
      dyz     :     0.007081
      dx2y2   :     0.015558
      dxy     :     0.011919
  5 S s       :     5.883199  s :     5.883199
      pz      :     3.728467  p :     9.841559
      px      :     2.992831
      py      :     3.120261
      dz2     :     0.012798  d :     0.105363
      dxz     :     0.014305
      dyz     :     0.013730
      dx2y2   :     0.048473
      dxy     :     0.016057
  6 C s       :     3.114283  s :     3.114283
      pz      :     1.141948  p :     3.021392
      px      :     0.956421
      py      :     0.923023
      dz2     :     0.003743  d :     0.039555
      dxz     :     0.005643
      dyz     :     0.006903
      dx2y2   :     0.012779
      dxy     :     0.010488
  7 C s       :     3.140327  s :     3.140327
      pz      :     0.792502  p :     2.725706
      px      :     0.947209
      py      :     0.985995
      dz2     :     0.005143  d :     0.097918
      dxz     :     0.013533
      dyz     :     0.012485
      dx2y2   :     0.043720
      dxy     :     0.023037
  8 O s       :     3.735291  s :     3.735291
      pz      :     1.322490  p :     4.440125
      px      :     1.553056
      py      :     1.564579
      dz2     :     0.002032  d :     0.018389
      dxz     :     0.003175
      dyz     :     0.002739
      dx2y2   :     0.004061
      dxy     :     0.006382
  9 C s       :     2.970499  s :     2.970499
      pz      :     1.004060  p :     3.012800
      px      :     1.011216
      py      :     0.997524
      dz2     :     0.005823  d :     0.034819
      dxz     :     0.008840
      dyz     :     0.004171
      dx2y2   :     0.009402
      dxy     :     0.006582
 10 C s       :     2.950950  s :     2.950950
      pz      :     1.022683  p :     2.950964
      px      :     0.965412
      py      :     0.962869
      dz2     :     0.005882  d :     0.029352
      dxz     :     0.007198
      dyz     :     0.003673
      dx2y2   :     0.008559
      dxy     :     0.004041
 11 C s       :     3.105280  s :     3.105280
      pz      :     1.003303  p :     2.582092
      px      :     0.992441
      py      :     0.586348
      dz2     :     0.006351  d :     0.084214
      dxz     :     0.008970
      dyz     :     0.016246
      dx2y2   :     0.027251
      dxy     :     0.025397
 12 F s       :     3.903871  s :     3.903871
      pz      :     1.884184  p :     5.267958
      px      :     1.908064
      py      :     1.475710
      dz2     :     0.001092  d :     0.008208
      dxz     :     0.000035
      dyz     :     0.002117
      dx2y2   :     0.003242
      dxy     :     0.001722
 13 C s       :     3.142640  s :     3.142640
      pz      :     0.998313  p :     2.776656
      px      :     0.901884
      py      :     0.876458
      dz2     :     0.002960  d :     0.037658
      dxz     :     0.001992
      dyz     :     0.008426
      dx2y2   :     0.011770
      dxy     :     0.012510
 14 C s       :     3.098174  s :     3.098174
      pz      :     0.981244  p :     2.891698
      px      :     0.929356
      py      :     0.981098
      dz2     :     0.001925  d :     0.027172
      dxz     :     0.000715
      dyz     :     0.005005
      dx2y2   :     0.008776
      dxy     :     0.010751
 15 H s       :     0.953817  s :     0.953817
      pz      :     0.006072  p :     0.024684
      px      :     0.002934
      py      :     0.015678
 16 H s       :     0.950333  s :     0.950333
      pz      :     0.010479  p :     0.023434
      px      :     0.006291
      py      :     0.006664
 17 H s       :     0.951628  s :     0.951628
      pz      :     0.011679  p :     0.023445
      px      :     0.005880
      py      :     0.005885
 18 H s       :     0.964561  s :     0.964561
      pz      :     0.011587  p :     0.024039
      px      :     0.005884
      py      :     0.006568
 19 H s       :     0.974966  s :     0.974966
      pz      :     0.005275  p :     0.023720
      px      :     0.004501
      py      :     0.013943
 20 H s       :     0.962834  s :     0.962834
      pz      :     0.010507  p :     0.024060
      px      :     0.006313
      py      :     0.007240
 21 H s       :     0.995079  s :     0.995079
      pz      :     0.004849  p :     0.023781
      px      :     0.014691
      py      :     0.004241
 22 H s       :     0.956002  s :     0.956002
      pz      :     0.004935  p :     0.026036
      px      :     0.015843
      py      :     0.005258
 23 H s       :     0.952686  s :     0.952686
      pz      :     0.005150  p :     0.024584
      px      :     0.009598
      py      :     0.009836


                     *******************************
                     * LOEWDIN POPULATION ANALYSIS *
                     *******************************

----------------------
LOEWDIN ATOMIC CHARGES
----------------------
   0 C :   -0.217451
   1 S :    0.480154
   2 C :   -0.167201
   3 C :   -0.099014
   4 C :   -0.182712
   5 S :    0.428379
   6 C :   -0.231343
   7 C :    0.056901
   8 O :   -0.152335
   9 C :   -0.062341
  10 C :   -0.043473
  11 C :    0.068019
  12 F :   -0.037583
  13 C :   -0.049435
  14 C :   -0.031953
  15 H :    0.026177
  16 H :    0.036503
  17 H :    0.036804
  18 H :    0.025924
  19 H :    0.021470
  20 H :    0.026300
  21 H :    0.026394
  22 H :    0.016146
  23 H :    0.025672

-------------------------------
LOEWDIN REDUCED ORBITAL CHARGES
-------------------------------
  0 C s       :     2.915398  s :     2.915398
      pz      :     1.128172  p :     3.214546
      px      :     1.029782
      py      :     1.056591
      dz2     :     0.006661  d :     0.087508
      dxz     :     0.015113
      dyz     :     0.005656
      dx2y2   :     0.028523
      dxy     :     0.031555
  1 S s       :     5.497211  s :     5.497211
      pz      :     3.564176  p :     9.880489
      px      :     3.332153
      py      :     2.984160
      dz2     :     0.016200  d :     0.142146
      dxz     :     0.013586
      dyz     :     0.030072
      dx2y2   :     0.030360
      dxy     :     0.051928
  2 C s       :     2.902152  s :     2.902152
      pz      :     1.077397  p :     3.157333
      px      :     1.066258
      py      :     1.013678
      dz2     :     0.007897  d :     0.107716
      dxz     :     0.016690
      dyz     :     0.011883
      dx2y2   :     0.032606
      dxy     :     0.038640
  3 C s       :     2.843939  s :     2.843939
      pz      :     1.053532  p :     3.139499
      px      :     1.052689
      py      :     1.033278
      dz2     :     0.009209  d :     0.115577
      dxz     :     0.018679
      dyz     :     0.010903
      dx2y2   :     0.039736
      dxy     :     0.037051
  4 C s       :     2.897963  s :     2.897963
      pz      :     1.049916  p :     3.169356
      px      :     1.054737
      py      :     1.064703
      dz2     :     0.008478  d :     0.115394
      dxz     :     0.018925
      dyz     :     0.014862
      dx2y2   :     0.041138
      dxy     :     0.031991
  5 S s       :     5.513901  s :     5.513901
      pz      :     3.691814  p :     9.922807
      px      :     3.050690
      py      :     3.180304
      dz2     :     0.017009  d :     0.134912
      dxz     :     0.016514
      dyz     :     0.016124
      dx2y2   :     0.064982
      dxy     :     0.020284
  6 C s       :     2.925133  s :     2.925133
      pz      :     1.113200  p :     3.206526
      px      :     1.077848
      py      :     1.015478
      dz2     :     0.009197  d :     0.099683
      dxz     :     0.011133
      dyz     :     0.013742
      dx2y2   :     0.035739
      dxy     :     0.029872
  7 C s       :     2.866338  s :     2.866338
      pz      :     0.783153  p :     2.851081
      px      :     1.015837
      py      :     1.052090
      dz2     :     0.012640  d :     0.225680
      dxz     :     0.026250
      dyz     :     0.021123
      dx2y2   :     0.107365
      dxy     :     0.058302
  8 O s       :     3.543569  s :     3.543569
      pz      :     1.322766  p :     4.577229
      px      :     1.620772
      py      :     1.633692
      dz2     :     0.004338  d :     0.031536
      dxz     :     0.003865
      dyz     :     0.003353
      dx2y2   :     0.006874
      dxy     :     0.013106
  9 C s       :     2.840427  s :     2.840427
      pz      :     1.058234  p :     3.134360
      px      :     1.047828
      py      :     1.028298
      dz2     :     0.016024  d :     0.087554
      dxz     :     0.019009
      dyz     :     0.011193
      dx2y2   :     0.026081
      dxy     :     0.015247
 10 C s       :     2.826102  s :     2.826102
      pz      :     1.073715  p :     3.143696
      px      :     1.012958
      py      :     1.057022
      dz2     :     0.015413  d :     0.073675
      dxz     :     0.016500
      dyz     :     0.009052
      dx2y2   :     0.022678
      dxy     :     0.010033
 11 C s       :     2.848039  s :     2.848039
      pz      :     1.005258  p :     2.888988
      px      :     1.086233
      py      :     0.797498
      dz2     :     0.014127  d :     0.194954
      dxz     :     0.018311
      dyz     :     0.032131
      dx2y2   :     0.063308
      dxy     :     0.067078
 12 F s       :     3.719423  s :     3.719423
      pz      :     1.883073  p :     5.305255
      px      :     1.902437
      py      :     1.519746
      dz2     :     0.001826  d :     0.012905
      dxz     :     0.000045
      dyz     :     0.003056
      dx2y2   :     0.005449
      dxy     :     0.002529
 13 C s       :     2.854350  s :     2.854350
      pz      :     0.981394  p :     3.095656
      px      :     1.037582
      py      :     1.076680
      dz2     :     0.007172  d :     0.099429
      dxz     :     0.004109
      dyz     :     0.018609
      dx2y2   :     0.034222
      dxy     :     0.035316
 14 C s       :     2.872508  s :     2.872508
      pz      :     0.965563  p :     3.088887
      px      :     1.061455
      py      :     1.061869
      dz2     :     0.005272  d :     0.070558
      dxz     :     0.001631
      dyz     :     0.010052
      dx2y2   :     0.024041
      dxy     :     0.029563
 15 H s       :     0.896011  s :     0.896011
      pz      :     0.019996  p :     0.077812
      px      :     0.011272
      py      :     0.046544
 16 H s       :     0.894971  s :     0.894971
      pz      :     0.028966  p :     0.068526
      px      :     0.019461
      py      :     0.020099
 17 H s       :     0.894691  s :     0.894691
      pz      :     0.032541  p :     0.068505
      px      :     0.018141
      py      :     0.017824
 18 H s       :     0.907661  s :     0.907661
      pz      :     0.032293  p :     0.066415
      px      :     0.017673
      py      :     0.016449
 19 H s       :     0.912232  s :     0.912232
      pz      :     0.013151  p :     0.066297
      px      :     0.014200
      py      :     0.038946
 20 H s       :     0.907182  s :     0.907182
      pz      :     0.028958  p :     0.066518
      px      :     0.018955
      py      :     0.018605
 21 H s       :     0.905434  s :     0.905434
      pz      :     0.014668  p :     0.068172
      px      :     0.041390
      py      :     0.012113
 22 H s       :     0.908011  s :     0.908011
      pz      :     0.015824  p :     0.075842
      px      :     0.045814
      py      :     0.014204
 23 H s       :     0.903581  s :     0.903581
      pz      :     0.016077  p :     0.070748
      px      :     0.027684
      py      :     0.026987


                      *****************************
                      * MAYER POPULATION ANALYSIS *
                      *****************************

  NA   - Mulliken gross atomic population
  ZA   - Total nuclear charge
  QA   - Mulliken gross atomic charge
  VA   - Mayer's total valence
  BVA  - Mayer's bonded valence
  FA   - Mayer's free valence

  ATOM       NA         ZA         QA         VA         BVA        FA
  0 C      6.1484     6.0000    -0.1484     3.8584     3.8584     0.0000
  1 S     15.8636    16.0000     0.1364     2.5552     2.5552     0.0000
  2 C      6.1509     6.0000    -0.1509     3.8378     3.8378     0.0000
  3 C      5.9252     6.0000     0.0748     3.8819     3.8819     0.0000
  4 C      5.9940     6.0000     0.0060     3.9216     3.9216    -0.0000
  5 S     15.8301    16.0000     0.1699     2.3548     2.3548     0.0000
  6 C      6.1752     6.0000    -0.1752     3.6720     3.6720    -0.0000
  7 C      5.9640     6.0000     0.0360     4.2830     4.2830    -0.0000
  8 O      8.1938     8.0000    -0.1938     2.3149     2.3149     0.0000
  9 C      6.0181     6.0000    -0.0181     3.9608     3.9608    -0.0000
 10 C      5.9313     6.0000     0.0687     4.0453     4.0453     0.0000
 11 C      5.7716     6.0000     0.2284     3.8774     3.8774     0.0000
 12 F      9.1800     9.0000    -0.1800     1.2137     1.2137    -0.0000
 13 C      5.9570     6.0000     0.0430     4.0484     4.0484    -0.0000
 14 C      6.0170     6.0000    -0.0170     3.9282     3.9282     0.0000
 15 H      0.9785     1.0000     0.0215     1.0021     1.0021     0.0000
 16 H      0.9738     1.0000     0.0262     0.9914     0.9914    -0.0000
 17 H      0.9751     1.0000     0.0249     0.9917     0.9917    -0.0000
 18 H      0.9886     1.0000     0.0114     0.9975     0.9975     0.0000
 19 H      0.9987     1.0000     0.0013     0.9819     0.9819    -0.0000
 20 H      0.9869     1.0000     0.0131     0.9976     0.9976     0.0000
 21 H      1.0189     1.0000    -0.0189     0.9846     0.9846    -0.0000
 22 H      0.9820     1.0000     0.0180     1.0197     1.0197    -0.0000
 23 H      0.9773     1.0000     0.0227     0.9744     0.9744    -0.0000

  Mayer bond orders larger than 0.100000
B(  0-C ,  1-S ) :   1.1596 B(  0-C ,  4-C ) :   1.5147 B(  0-C , 15-H ) :   0.9744 
B(  1-S ,  2-C ) :   1.1645 B(  2-C ,  3-C ) :   1.3591 B(  2-C , 13-C ) :   1.1436 
B(  3-C ,  4-C ) :   1.2352 B(  3-C , 11-C ) :   1.1416 B(  4-C ,  5-S ) :   1.0271 
B(  5-S ,  6-C ) :   1.0568 B(  6-C ,  7-C ) :   0.9955 B(  6-C , 11-C ) :   1.5306 
B(  7-C ,  8-O ) :   2.1599 B(  7-C ,  9-C ) :   1.0283 B(  9-C , 10-C ) :   1.1102 
B(  9-C , 16-H ) :   0.9148 B(  9-C , 17-H ) :   0.9120 B( 10-C , 18-H ) :   0.9662 
B( 10-C , 19-H ) :   0.9598 B( 10-C , 20-H ) :   0.9656 B( 11-C , 12-F ) :   1.0939 
B( 13-C , 14-C ) :   1.9086 B( 13-C , 21-H ) :   0.9413 B( 14-C , 22-H ) :   0.9468 
B( 14-C , 23-H ) :   0.9396 

-------
TIMINGS
-------

Total SCF time: 0 days 0 hours 2 min 4 sec 

Total time                  ....     124.040 sec
Sum of individual times     ....     123.773 sec  ( 99.8%)

Fock matrix formation       ....     119.780 sec  ( 96.6%)
  Split-RI-J                ....      11.211 sec  (  9.4% of F)
  Chain of spheres X        ....     100.354 sec  ( 83.8% of F)
  COS-X 1 center corr.      ....       0.000 sec  (  0.0% of F)
  XC integration            ....       8.149 sec  (  6.8% of F)
    Basis function eval.    ....       2.973 sec  ( 36.5% of XC)
    Density eval.           ....       1.809 sec  ( 22.2% of XC)
    XC-Functional eval.     ....       0.548 sec  (  6.7% of XC)
    XC-Potential eval.      ....       2.543 sec  ( 31.2% of XC)
Diagonalization             ....       0.073 sec  (  0.1%)
Density matrix formation    ....       0.025 sec  (  0.0%)
Population analysis         ....       0.009 sec  (  0.0%)
Initial guess               ....       0.746 sec  (  0.6%)
Orbital Transformation      ....       0.000 sec  (  0.0%)
Orbital Orthonormalization  ....       0.000 sec  (  0.0%)
DIIS solution               ....       0.025 sec  (  0.0%)
SOSCF solution              ....       0.060 sec  (  0.0%)
Grid generation             ....       3.055 sec  (  2.5%)


-------------------------------------------------------------------------------
                          DFT DISPERSION CORRECTION                            
                                                                               
                              DFTD3 V3.1  Rev 1                                
                          USING Becke-Johnson damping                          
-------------------------------------------------------------------------------
Gaussians B3LYP functional is recognized, using regular B3LYP params
Active option DFTDOPT                   ...         4   

molecular C6(AA) [au] = 9386.469413 


            DFT-D V3
 parameters
 s6 scaling factor         :     1.0000 
 a1 scaling factor         :     0.3981 
 s8 scaling factor         :     1.9889 
 a2 scaling factor         :     4.4211 
 ad hoc parameters k1-k3   :    16.0000     1.3333    -4.0000 

 Edisp/kcal,au: -34.765355917065  -0.055402115260 
 E6   /kcal   : -15.359537492 
 E8   /kcal   : -19.405818425 
 % E8         :  55.819415371 

-------------------------   ----------------
Dispersion correction           -0.055402115
-------------------------   ----------------


-------------------------   --------------------
FINAL SINGLE POINT ENERGY     -1395.391739830007
-------------------------   --------------------

------------------------------------------------------------------------------
                         ORCA SCF GRADIENT CALCULATION
------------------------------------------------------------------------------

Gradient of the Kohn-Sham DFT energy:
Kohn-Sham wavefunction type      ... RKS
Hartree-Fock exchange scaling    ...    0.200
Number of operators              ...    1
Number of atoms                  ...   24
[...]
      dz2     :     0.003638  d :     0.041685
      dxz     :     0.008579
      dyz     :     0.005192
      dx2y2   :     0.012113
      dxy     :     0.012163
  4 C s       :     3.002203  s :     3.002203
      pz      :     1.052527  p :     2.954097
      px      :     0.899484
      py      :     1.002086
      dz2     :     0.003716  d :     0.046136
      dxz     :     0.009083
      dyz     :     0.006810
      dx2y2   :     0.015095
      dxy     :     0.011431
  5 S s       :     5.881832  s :     5.881832
      pz      :     3.735252  p :     9.844994
      px      :     2.992296
      py      :     3.117446
      dz2     :     0.012548  d :     0.101638
      dxz     :     0.013724
      dyz     :     0.013164
      dx2y2   :     0.047207
      dxy     :     0.014996
  6 C s       :     3.119608  s :     3.119608
      pz      :     1.141865  p :     3.018741
      px      :     0.956537
      py      :     0.920340
      dz2     :     0.003707  d :     0.038563
      dxz     :     0.005552
      dyz     :     0.006592
      dx2y2   :     0.012379
      dxy     :     0.010333
  7 C s       :     3.150590  s :     3.150590
      pz      :     0.793508  p :     2.708656
      px      :     0.936530
      py      :     0.978617
      dz2     :     0.005135  d :     0.095633
      dxz     :     0.013302
      dyz     :     0.012122
      dx2y2   :     0.042160
      dxy     :     0.022914
  8 O s       :     3.742923  s :     3.742923
      pz      :     1.323519  p :     4.441712
      px      :     1.547762
      py      :     1.570432
      dz2     :     0.001991  d :     0.017967
      dxz     :     0.003148
      dyz     :     0.002621
      dx2y2   :     0.003951
      dxy     :     0.006255
  9 C s       :     2.983371  s :     2.983371
      pz      :     1.008919  p :     3.002177
      px      :     1.000087
      py      :     0.993170
      dz2     :     0.005214  d :     0.034213
      dxz     :     0.008957
      dyz     :     0.004194
      dx2y2   :     0.009084
      dxy     :     0.006764
 10 C s       :     2.976152  s :     2.976152
      pz      :     1.023392  p :     2.946818
      px      :     0.958159
      py      :     0.965267
      dz2     :     0.005433  d :     0.028519
      dxz     :     0.007174
      dyz     :     0.003601
      dx2y2   :     0.008334
      dxy     :     0.003977
 11 C s       :     3.099680  s :     3.099680
      pz      :     1.000776  p :     2.579643
      px      :     0.990084
      py      :     0.588782
      dz2     :     0.006419  d :     0.083947
      dxz     :     0.008822
      dyz     :     0.016306
      dx2y2   :     0.027162
      dxy     :     0.025238
 12 F s       :     3.901999  s :     3.901999
      pz      :     1.882994  p :     5.265873
      px      :     1.907417
      py      :     1.475462
      dz2     :     0.001100  d :     0.008295
      dxz     :     0.000038
      dyz     :     0.002159
      dx2y2   :     0.003248
      dxy     :     0.001750
 13 C s       :     3.144810  s :     3.144810
      pz      :     1.002247  p :     2.786891
      px      :     0.905820
      py      :     0.878824
      dz2     :     0.002722  d :     0.036093
      dxz     :     0.001667
      dyz     :     0.008265
      dx2y2   :     0.011509
      dxy     :     0.011931
 14 C s       :     3.117311  s :     3.117311
      pz      :     0.979282  p :     2.886927
      px      :     0.928779
      py      :     0.978866
      dz2     :     0.001756  d :     0.026196
      dxz     :     0.000512
      dyz     :     0.005001
      dx2y2   :     0.008606
      dxy     :     0.010321
 15 H s       :     0.941129  s :     0.941129
      pz      :     0.005773  p :     0.023919
      px      :     0.002760
      py      :     0.015387
 16 H s       :     0.949840  s :     0.949840
      pz      :     0.010380  p :     0.022971
      px      :     0.005893
      py      :     0.006698
 17 H s       :     0.950330  s :     0.950330
      pz      :     0.011266  p :     0.023043
      px      :     0.006069
      py      :     0.005708
 18 H s       :     0.958569  s :     0.958569
      pz      :     0.011316  p :     0.023379
      px      :     0.005976
      py      :     0.006087
 19 H s       :     0.970675  s :     0.970675
      pz      :     0.005190  p :     0.023036
      px      :     0.004288
      py      :     0.013559
 20 H s       :     0.957619  s :     0.957619
      pz      :     0.010110  p :     0.023434
      px      :     0.005918
      py      :     0.007406
 21 H s       :     0.986341  s :     0.986341
      pz      :     0.004681  p :     0.023121
      px      :     0.014469
      py      :     0.003971
 22 H s       :     0.948269  s :     0.948269
      pz      :     0.004651  p :     0.025095
      px      :     0.015468
      py      :     0.004976
 23 H s       :     0.946524  s :     0.946524
      pz      :     0.005010  p :     0.023658
      px      :     0.009287
      py      :     0.009360


                     *******************************
                     * LOEWDIN POPULATION ANALYSIS *
                     *******************************

----------------------
LOEWDIN ATOMIC CHARGES
----------------------
   0 C :   -0.219827
   1 S :    0.477377
   2 C :   -0.169191
   3 C :   -0.098896
   4 C :   -0.180191
   5 S :    0.418606
   6 C :   -0.229495
   7 C :    0.062853
   8 O :   -0.159318
   9 C :   -0.065448
  10 C :   -0.048654
  11 C :    0.067433
  12 F :   -0.034598
  13 C :   -0.051387
  14 C :   -0.037583
  15 H :    0.031883
  16 H :    0.038264
  17 H :    0.037846
  18 H :    0.028642
  19 H :    0.023998
  20 H :    0.028806
  21 H :    0.029662
  22 H :    0.019766
  23 H :    0.029452

-------------------------------
LOEWDIN REDUCED ORBITAL CHARGES
-------------------------------
  0 C s       :     2.926608  s :     2.926608
      pz      :     1.128937  p :     3.209057
      px      :     1.026636
      py      :     1.053484
      dz2     :     0.006457  d :     0.084162
      dxz     :     0.014523
      dyz     :     0.005383
      dx2y2   :     0.026842
      dxy     :     0.030958
  1 S s       :     5.501929  s :     5.501929
      pz      :     3.563412  p :     9.880180
      px      :     3.333538
      py      :     2.983230
      dz2     :     0.016230  d :     0.140514
      dxz     :     0.013351
      dyz     :     0.029768
      dx2y2   :     0.029621
      dxy     :     0.051544
  2 C s       :     2.910540  s :     2.910540
      pz      :     1.079967  p :     3.155030
      px      :     1.063111
      py      :     1.011953
      dz2     :     0.007659  d :     0.103621
      dxz     :     0.015879
      dyz     :     0.011537
      dx2y2   :     0.031386
      dxy     :     0.037160
  3 C s       :     2.851721  s :     2.851721
      pz      :     1.054495  p :     3.135519
      px      :     1.049439
      py      :     1.031585
      dz2     :     0.009025  d :     0.111657
      dxz     :     0.017721
      dyz     :     0.010592
      dx2y2   :     0.038358
      dxy     :     0.035962
  4 C s       :     2.906820  s :     2.906820
      pz      :     1.050436  p :     3.162868
      px      :     1.050118
      py      :     1.062314
      dz2     :     0.008175  d :     0.110504
      dxz     :     0.017983
      dyz     :     0.014194
      dx2y2   :     0.039421
      dxy     :     0.030730
  5 S s       :     5.527163  s :     5.527163
      pz      :     3.700123  p :     9.924721
      px      :     3.049290
      py      :     3.175307
      dz2     :     0.016489  d :     0.129510
      dxz     :     0.015790
      dyz     :     0.015411
      dx2y2   :     0.062967
      dxy     :     0.018853
  6 C s       :     2.931089  s :     2.931089
      pz      :     1.114788  p :     3.201856
      px      :     1.074775
      py      :     1.012294
      dz2     :     0.009003  d :     0.096550
      dxz     :     0.010924
      dyz     :     0.013073
      dx2y2   :     0.034310
      dxy     :     0.029240
  7 C s       :     2.874086  s :     2.874086
      pz      :     0.785231  p :     2.844260
      px      :     1.011458
      py      :     1.047571
      dz2     :     0.012424  d :     0.218800
      dxz     :     0.025551
      dyz     :     0.020496
      dx2y2   :     0.102705
      dxy     :     0.057624
  8 O s       :     3.549870  s :     3.549870
      pz      :     1.323826  p :     4.578662
      px      :     1.617080
      py      :     1.637756
      dz2     :     0.004271  d :     0.030785
      dxz     :     0.003825
      dyz     :     0.003202
      dx2y2   :     0.006592
      dxy     :     0.012896
  9 C s       :     2.848248  s :     2.848248
      pz      :     1.059999  p :     3.131316
      px      :     1.045364
      py      :     1.025953
      dz2     :     0.014279  d :     0.085883
      dxz     :     0.019396
      dyz     :     0.011217
      dx2y2   :     0.025316
      dxy     :     0.015674
 10 C s       :     2.836262  s :     2.836262
      pz      :     1.074009  p :     3.140724
      px      :     1.010883
      py      :     1.055832
      dz2     :     0.014182  d :     0.071669
      dxz     :     0.016595
      dyz     :     0.008898
      dx2y2   :     0.022083
      dxy     :     0.009911
 11 C s       :     2.852367  s :     2.852367
      pz      :     1.002625  p :     2.886237
      px      :     1.084747
      py      :     0.798866
      dz2     :     0.014226  d :     0.193963
      dxz     :     0.017875
      dyz     :     0.032351
      dx2y2   :     0.062767
      dxy     :     0.066745
 12 F s       :     3.717196  s :     3.717196
      pz      :     1.881305  p :     5.304307
      px      :     1.901607
      py      :     1.521396
      dz2     :     0.001842  d :     0.013096
      dxz     :     0.000050
      dyz     :     0.003127
      dx2y2   :     0.005497
      dxy     :     0.002580
 13 C s       :     2.864769  s :     2.864769
      pz      :     0.982242  p :     3.092034
      px      :     1.035390
      py      :     1.074403
      dz2     :     0.006544  d :     0.094584
      dxz     :     0.003256
      dyz     :     0.017797
      dx2y2   :     0.033477
      dxy     :     0.033510
 14 C s       :     2.886351  s :     2.886351
      pz      :     0.964163  p :     3.083832
      px      :     1.058145
      py      :     1.061524
      dz2     :     0.004755  d :     0.067400
      dxz     :     0.001022
      dyz     :     0.009648
      dx2y2   :     0.023608
      dxy     :     0.028366
 15 H s       :     0.893380  s :     0.893380
      pz      :     0.018684  p :     0.074737
      px      :     0.010258
      py      :     0.045795
 16 H s       :     0.895126  s :     0.895126
      pz      :     0.028329  p :     0.066610
      px      :     0.018206
      py      :     0.020076
 17 H s       :     0.895399  s :     0.895399
      pz      :     0.030990  p :     0.066755
      px      :     0.018644
      py      :     0.017121
 18 H s       :     0.907051  s :     0.907051
      pz      :     0.031713  p :     0.064308
      px      :     0.017696
      py      :     0.014898
 19 H s       :     0.911953  s :     0.911953
      pz      :     0.012796  p :     0.064049
      px      :     0.013178
      py      :     0.038075
 20 H s       :     0.906532  s :     0.906532
      pz      :     0.027797  p :     0.064662
      px      :     0.017670
      py      :     0.019196
 21 H s       :     0.904236  s :     0.904236
      pz      :     0.013980  p :     0.066101
      px      :     0.040947
      py      :     0.011174
 22 H s       :     0.906897  s :     0.906897
      pz      :     0.014670  p :     0.073337
      px      :     0.045392
      py      :     0.013275
 23 H s       :     0.902357  s :     0.902357
      pz      :     0.015363  p :     0.068191
      px      :     0.027188
      py      :     0.025639


                      *****************************
                      * MAYER POPULATION ANALYSIS *
                      *****************************

  NA   - Mulliken gross atomic population
  ZA   - Total nuclear charge
  QA   - Mulliken gross atomic charge
  VA   - Mayer's total valence
  BVA  - Mayer's bonded valence
  FA   - Mayer's free valence

  ATOM       NA         ZA         QA         VA         BVA        FA
  0 C      6.1538     6.0000    -0.1538     3.8602     3.8602    -0.0000
  1 S     15.8637    16.0000     0.1363     2.5590     2.5590    -0.0000
  2 C      6.1478     6.0000    -0.1478     3.8383     3.8383    -0.0000
  3 C      5.9396     6.0000     0.0604     3.8909     3.8909     0.0000
  4 C      6.0024     6.0000    -0.0024     3.9211     3.9211    -0.0000
  5 S     15.8285    16.0000     0.1715     2.3489     2.3489     0.0000
  6 C      6.1769     6.0000    -0.1769     3.6744     3.6744     0.0000
  7 C      5.9549     6.0000     0.0451     4.2646     4.2646     0.0000
  8 O      8.2026     8.0000    -0.2026     2.3041     2.3041    -0.0000
  9 C      6.0198     6.0000    -0.0198     3.9485     3.9485     0.0000
 10 C      5.9515     6.0000     0.0485     4.0434     4.0434    -0.0000
 11 C      5.7633     6.0000     0.2367     3.8866     3.8866    -0.0000
 12 F      9.1762     9.0000    -0.1762     1.2171     1.2171    -0.0000
 13 C      5.9678     6.0000     0.0322     4.0455     4.0455     0.0000
 14 C      6.0304     6.0000    -0.0304     3.9339     3.9339     0.0000
 15 H      0.9650     1.0000     0.0350     1.0004     1.0004    -0.0000
 16 H      0.9728     1.0000     0.0272     0.9896     0.9896    -0.0000
 17 H      0.9734     1.0000     0.0266     0.9912     0.9912     0.0000
 18 H      0.9819     1.0000     0.0181     0.9949     0.9949    -0.0000
 19 H      0.9937     1.0000     0.0063     0.9816     0.9816     0.0000
 20 H      0.9811     1.0000     0.0189     0.9965     0.9965    -0.0000
 21 H      1.0095     1.0000    -0.0095     0.9846     0.9846    -0.0000
 22 H      0.9734     1.0000     0.0266     1.0175     1.0175     0.0000
 23 H      0.9702     1.0000     0.0298     0.9740     0.9740     0.0000

  Mayer bond orders larger than 0.100000
B(  0-C ,  1-S ) :   1.1624 B(  0-C ,  2-C ) :   0.1000 B(  0-C ,  4-C ) :   1.5106 
B(  0-C , 15-H ) :   0.9713 B(  1-S ,  2-C ) :   1.1654 B(  2-C ,  3-C ) :   1.3592 
B(  2-C , 13-C ) :   1.1351 B(  3-C ,  4-C ) :   1.2386 B(  3-C , 11-C ) :   1.1395 
B(  4-C ,  5-S ) :   1.0289 B(  5-S ,  6-C ) :   1.0538 B(  6-C ,  7-C ) :   0.9920 
B(  6-C , 11-C ) :   1.5328 B(  7-C ,  8-O ) :   2.1487 B(  7-C ,  9-C ) :   1.0234 
B(  9-C , 10-C ) :   1.1063 B(  9-C , 16-H ) :   0.9144 B(  9-C , 17-H ) :   0.9123 
B( 10-C , 18-H ) :   0.9675 B( 10-C , 19-H ) :   0.9603 B( 10-C , 20-H ) :   0.9663 
B( 11-C , 12-F ) :   1.0942 B( 13-C , 14-C ) :   1.9130 B( 13-C , 21-H ) :   0.9404 
B( 14-C , 22-H ) :   0.9449 B( 14-C , 23-H ) :   0.9387 

-------
TIMINGS
-------

Total SCF time: 0 days 0 hours 1 min 3 sec 

Total time                  ....      63.773 sec
Sum of individual times     ....      63.604 sec  ( 99.7%)

Fock matrix formation       ....      60.455 sec  ( 94.8%)
  Split-RI-J                ....       5.092 sec  (  8.4% of F)
  Chain of spheres X        ....      51.038 sec  ( 84.4% of F)
  COS-X 1 center corr.      ....       0.000 sec  (  0.0% of F)
  XC integration            ....       4.271 sec  (  7.1% of F)
    Basis function eval.    ....       1.647 sec  ( 38.6% of XC)
    Density eval.           ....       0.955 sec  ( 22.4% of XC)
    XC-Functional eval.     ....       0.296 sec  (  6.9% of XC)
    XC-Potential eval.      ....       1.223 sec  ( 28.6% of XC)
Diagonalization             ....       0.011 sec  (  0.0%)
Density matrix formation    ....       0.012 sec  (  0.0%)
Population analysis         ....       0.008 sec  (  0.0%)
Initial guess               ....       0.010 sec  (  0.0%)
Orbital Transformation      ....       0.000 sec  (  0.0%)
Orbital Orthonormalization  ....       0.007 sec  (  0.0%)
DIIS solution               ....       0.002 sec  (  0.0%)
SOSCF solution              ....       0.041 sec  (  0.1%)
Grid generation             ....       3.064 sec  (  4.8%)


-------------------------------------------------------------------------------
                          DFT DISPERSION CORRECTION                            
                                                                               
                              DFTD3 V3.1  Rev 1                                
                          USING Becke-Johnson damping                          
-------------------------------------------------------------------------------
Gaussians B3LYP functional is recognized, using regular B3LYP params
Active option DFTDOPT                   ...         4   

molecular C6(AA) [au] = 9425.335916 


            DFT-D V3
 parameters
 s6 scaling factor         :     1.0000 
 a1 scaling factor         :     0.3981 
 s8 scaling factor         :     1.9889 
 a2 scaling factor         :     4.4211 
 ad hoc parameters k1-k3   :    16.0000     1.3333    -4.0000 

 Edisp/kcal,au: -34.526565368936  -0.055021578340 
 E6   /kcal   : -15.250724981 
 E8   /kcal   : -19.275840388 
 % E8         :  55.829012189 

-------------------------   ----------------
Dispersion correction           -0.055021578
-------------------------   ----------------


-------------------------   --------------------
FINAL SINGLE POINT ENERGY     -1395.395189592444
-------------------------   --------------------

                                *** OPTIMIZATION RUN DONE ***

                            ***************************************
                            *     ORCA property calculations      *
                            ***************************************

                                    ---------------------
                                    Active property flags
                                    ---------------------
   (+) Dipole Moment


------------------------------------------------------------------------------
                       ORCA ELECTRIC PROPERTIES CALCULATION
------------------------------------------------------------------------------

Dipole Moment Calculation                       ... on
Quadrupole Moment Calculation                   ... off
Polarizability Calculation                      ... off
GBWName                                         ... 971.gbw
Electron density file                           ... 971.scfp
The origin for moment calculation is the CENTER OF MASS  = (-1.488009, -1.486219 -0.029192)

-------------
DIPOLE MOMENT
-------------
                                X             Y             Z
Electronic contribution:      8.93166      12.05916       1.06733
Nuclear contribution   :     -7.75883     -12.44090      -1.11679
                        -----------------------------------------
Total Dipole Moment    :      1.17283      -0.38174      -0.04946
                        -----------------------------------------
Magnitude (a.u.)       :      1.23439
Magnitude (Debye)      :      3.13756



--------------------
Rotational spectrum 
--------------------
 
Rotational constants in cm-1:     0.029842     0.010644     0.007870 
Rotational constants in MHz :   894.655086   319.094923   235.928630 

 Dipole components along the rotational axes: 
x,y,z [a.u.] :     1.055762    -0.639319     0.018711 
x,y,z [Debye]:     2.683534    -1.625020     0.047558 

 

Timings for individual modules:

Sum of individual times         ...      990.960 sec (=  16.516 min)
GTO integral calculation        ...        4.658 sec (=   0.078 min)   0.5 %
SCF iterations                  ...      788.289 sec (=  13.138 min)  79.5 %
SCF Gradient evaluation         ...      193.740 sec (=   3.229 min)  19.6 %
Geometry relaxation             ...        4.272 sec (=   0.071 min)   0.4 %
                             ****ORCA TERMINATED NORMALLY****
TOTAL RUN TIME: 0 days 0 hours 16 minutes 32 seconds 144 msec
