
                                 *****************
                                 * O   R   C   A *
                                 *****************

           --- An Ab Initio, DFT and Semiempirical electronic structure package ---

                  #######################################################
                  #                        -***-                        #
                  #          Department of theory and spectroscopy      #
                  #               Directorship: Frank Neese             #
                  #        Max Planck Institute fuer Kohlenforschung    #
                  #                Kaiser Wilhelm Platz 1               #
                  #                 D-45470 Muelheim/Ruhr               #
                  #                      Germany                        #
                  #                                                     #
                  #                  All rights reserved                #
                  #                        -***-                        #
                  #######################################################


                         Program Version 4.2.0 -  RELEASE  -


 With contributions from (in alphabetic order):
   Daniel Aravena         : Magnetic Suceptibility
   Michael Atanasov       : Ab Initio Ligand Field Theory (pilot matlab implementation)
   Alexander A. Auer      : GIAO ZORA, VPT2
   Ute Becker             : Parallelization
   Giovanni Bistoni       : ED, misc. LED, open-shell LED, HFLED
   Martin Brehm           : Molecular dynamics
   Dmytro Bykov           : SCF Hessian
   Vijay G. Chilkuri      : MRCI spin determinant printing, contributions to CSF-ICE
   Dipayan Datta          : RHF DLPNO-CCSD density
   Achintya Kumar Dutta   : EOM-CC, STEOM-CC
   Dmitry Ganyushin       : Spin-Orbit,Spin-Spin,Magnetic field MRCI
   Miquel Garcia          : C-PCM Hessian, Gaussian charge scheme
   Yang Guo               : DLPNO-NEVPT2, CIM, IAO-localization
   Andreas Hansen         : Spin unrestricted coupled pair/coupled cluster methods
   Benjamin Helmich-Paris : CASSCF linear response (MC-RPA)
   Lee Huntington         : MR-EOM, pCC
   Robert Izsak           : Overlap fitted RIJCOSX, COSX-SCS-MP3, EOM
   Christian Kollmar      : KDIIS, OOCD, Brueckner-CCSD(T), CCSD density
   Simone Kossmann        : Meta GGA functionals, TD-DFT gradient, OOMP2, MP2 Hessian
   Martin Krupicka        : AUTO-CI
   Lucas Lang             : DCDCAS
   Dagmar Lenk            : GEPOL surface, SMD
   Dimitrios Liakos       : Extrapolation schemes; Compound Job, initial MDCI parallelization
   Dimitrios Manganas     : Further ROCIS development; embedding schemes
   Dimitrios Pantazis     : SARC Basis sets
   Taras Petrenko         : DFT Hessian,TD-DFT gradient, ASA, ECA, R-Raman, ABS, FL, XAS/XES, NRVS
   Peter Pinski           : DLPNO-MP2, DLPNO-MP2 Gradient
   Christoph Reimann      : Effective Core Potentials
   Marius Retegan         : Local ZFS, SOC
   Christoph Riplinger    : Optimizer, TS searches, QM/MM, DLPNO-CCSD(T), (RO)-DLPNO pert. Triples
   Tobias Risthaus        : Range-separated hybrids, TD-DFT gradient, RPA, STAB
   Michael Roemelt        : Original ROCIS implementation
   Masaaki Saitow         : Open-shell DLPNO-CCSD energy and density
   Barbara Sandhoefer     : DKH picture change effects
   Avijit Sen             : IP-ROCIS
   Kantharuban Sivalingam : CASSCF convergence, NEVPT2, FIC-MRCI
   Bernardo de Souza      : ESD, SOC TD-DFT
   Georgi Stoychev        : AutoAux, RI-MP2 NMR
   Willem Van den Heuvel  : Paramagnetic NMR
   Boris Wezisla          : Elementary symmetry handling
   Frank Wennmohs         : Technical directorship


 We gratefully acknowledge several colleagues who have allowed us to
 interface, adapt or use parts of their codes:
   Stefan Grimme, W. Hujo, H. Kruse,             : VdW corrections, initial TS optimization,
                  C. Bannwarth                     DFT functionals, gCP, sTDA/sTD-DF
   Ed Valeev, F. Pavosevic, A. Kumar             : LibInt (2-el integral package), F12 methods
   Garnet Chan, S. Sharma, J. Yang, R. Olivares  : DMRG
   Ulf Ekstrom                                   : XCFun DFT Library
   Mihaly Kallay                                 : mrcc  (arbitrary order and MRCC methods)
   Andreas Klamt, Michael Diedenhofen            : otool_cosmo (COSMO solvation model)
   Jiri Pittner, Ondrej Demel                    : Mk-CCSD
   Frank Weinhold                                : gennbo (NPA and NBO analysis)
   Christopher J. Cramer and Donald G. Truhlar   : smd solvation model
   Lars Goerigk                                  : TD-DFT with DH, B97 family of functionals
   V. Asgeirsson, H. Jonsson                     : NEB implementation
   FAccTs GmbH                                   : IRC, NEB, NEB-TS, Multilevel, MM, QM/MM, CI optimization
   S Lehtola, MJT Oliveira, MAL Marques          : LibXC Library


 Your calculation uses the libint2 library for the computation of 2-el integrals
 For citations please refer to: http://libint.valeyev.net

 Your ORCA version has been built with support for libXC version: 4.2.3
 For citations please refer to: https://tddft.org/programs/libxc/

 This ORCA versions uses:
   CBLAS   interface :  Fast vector & matrix operations
   LAPACKE interface :  Fast linear algebra routines
   SCALAPACK package :  Parallel linear algebra routines


XCFun DFT library Copyright 2009-2010 Ulf Ekstrom and contributors.
See http://admol.org/xcfun for more information. This is free soft-
ware; see the source code for copying conditions. There is ABSOLUTELY
NO WARRANTY; not even for MERCHANTABILITY or FITNESS FOR A PARTICULAR
PURPOSE. For details see the documentation. Scientific users of this 
library should cite U. Ekstrom, L. Visscher, R. Bast, A. J. Thorvald-
sen and K. Ruud; J.Chem.Theor.Comp. 2010, DOI: 10.1021/ct100117s
XCFun Version 0.99 
----- Orbital basis set information -----
Your calculation utilizes the basis: def2-SVP
   F. Weigend and R. Ahlrichs, Phys. Chem. Chem. Phys. 7, 3297 (2005).

----- AuxJ basis set information -----
Your calculation utilizes the auxiliary basis: def2/J
   F. Weigend, Phys. Chem. Chem. Phys. 8, 1057 (2006).

================================================================================
                                        WARNINGS
                       Please study these warnings very carefully!
================================================================================

INFO   : Checking CIS options ...

WARNING: CIS/ROCIS methods need fully converged wavefunctions
  ===> : Setting SCFConvForced true
         You can overwrite this default with %scf ConvForced false 


INFO   : the flag for use of LIBINT has been found!

================================================================================
                                       INPUT FILE
================================================================================
NAME = 90_30_6_30_90.inp
|  1> # ORCA input file
|  2> # SCF done       -260.439345135161          0.000841020023
|  3> ! CAM-B3LYP def2-SVP def2/J RIJCOSX Grid4 TightSCF
|  4> %maxcore 5000
|  5> %tddft
|  6>     Mode sTDDFT
|  7>     Ethresh 5.0
|  8>     maxcore 5000
|  9> end
| 10> 
| 11> %pal
| 12>   nprocs 6
| 13>   end
| 14> * xyz 0 1
| 15>    C        5.76160         4.16689         2.99008
| 16>    C        5.58214         2.88664         2.53234
| 17>    C        6.59557         1.90526         2.51370
| 18>    N        7.37054         1.05936         2.46734
| 19>    C        4.37823         2.34399         2.03735
| 20>    N        3.44182         1.81781         1.62897
| 21>    C        7.00419         4.69592         3.54181
| 22>    C        6.77122         6.02629         3.99346
| 23>    C        7.75623         6.78036         4.56235
| 24>    C        9.04950         6.22927         4.70447
| 25>    C        9.29343         4.90095         4.25100
| 26>    C        8.25123         4.14329         3.66896
| 27>    C       10.58829         4.36203         4.39305
| 28>    C       11.59520         5.09825         4.95566
| 29>    C       11.35383         6.40605         5.40202
| 30>    C       10.10800         6.95930         5.27953
| 31>    C        5.36971         6.39063         3.73016
| 32>    O        4.83325         7.44558         4.00679
| 33>    C        4.76679         5.22390         3.05704
| 34>    C        3.50922         5.16127         2.52826
| 35>    C        2.46161         6.10636         2.52889
| 36>    C        1.26185         5.84436         1.89129
| 37>    C        0.32028         6.87760         1.99320
| 38>    C       -0.97105         6.93866         1.41241
| 39>    C       -1.53877         5.80326         0.72167
| 40>    C       -1.46771         4.48187         1.07021
| 41>    C       -2.15732         3.63299         0.18382
| 42>    C       -2.75272         4.29323        -0.84708
| 43>    S       -2.47985         6.00138        -0.73287
| 44>    C       -3.55105         3.73313        -1.96762
| 45>    C       -1.65092         8.13640         1.56992
| 46>    C       -1.14727         9.23162         2.31968
| 47>    C        0.13268         9.16401         2.90721
| 48>    C        0.83787         7.97565         2.73011
| 49>    S        2.45927         7.68099         3.29143
| 50>    C        0.68387        10.28593         3.63530
| 51>    C        0.61596        11.61657         3.32358
| 52>    C        1.27010        12.44096         4.25765
| 53>    C        1.83221        11.75109         5.28824
| 54>    S        1.57609        10.04723         5.11256
| 55>    C        2.58555        12.28169         6.45379
| 56>    C       -2.08408        10.28797         2.41056
| 57>    C       -3.24568        10.04996         1.73034
| 58>    S       -3.24388         8.47654         0.95308
| 59>    C       -4.38949        10.88560         1.57313
| 60>    C       -4.66862        12.11616         2.15417
| 61>    C       -3.77774        12.77961         3.01092
| 62>    N       -3.02409        13.32015         3.68677
| 63>    C       -5.92821        12.63843         1.74052
| 64>    C       -6.54861        11.78835         0.83225
| 65>    S       -5.66012        10.35646         0.49616
| 66>    S       -8.07305        12.33858         0.21890
| 67>    C       -7.89606        13.74350         1.21730
| 68>    C       -6.73683        13.78996         1.98343
| 69>    C       -6.71258        14.95294         2.80619
| 70>    C       -5.72112        15.23520         3.75785
| 71>    N       -4.93938        15.47030         4.56399
| 72>    C       -7.83385        15.75276         2.62533
| 73>    S       -8.94018        15.08892         1.44717
| 74>    C       -8.18644        16.96720         3.28321
| 75>    C       -7.45382        17.72148         4.15644
| 76>    C       -8.15152        18.84586         4.65748
| 77>    C       -7.70317        19.77951         5.61579
| 78>    C       -6.42049        19.62804         6.26728
| 79>    C       -5.82484        18.48073         6.71594
| 80>    C       -4.56697        18.70085         7.30772
| 81>    C       -4.18988        20.00883         7.31111
| 82>    S       -5.40476        21.00955         6.58661
| 83>    C       -2.93835        20.61091         7.83823
| 84>    C       -8.57448        20.82440         5.90980
| 85>    C       -9.86633        20.95087         5.33007
| 86>    C      -10.33060        19.99021         4.40152
| 87>    C       -9.44346        18.96919         4.08707
| 88>    S       -9.77781        17.64990         3.00027
| 89>    C      -11.65427        20.03969         3.82137
| 90>    C      -12.02003        19.73110         2.53831
| 91>    C      -13.40264        19.85225         2.30983
| 92>    C      -14.10320        20.23351         3.41444
| 93>    S      -13.05339        20.46555         4.76884
| 94>    C      -15.56469        20.46461         3.54927
| 95>    C      -10.54605        22.09506         5.78747
| 96>    C       -9.84906        22.81735         6.72507
| 97>    S       -8.27056        22.10096         7.04548
| 98>    C      -10.16393        23.98668         7.45429
| 99>    C      -11.30527        24.73514         7.52322
|100>    C      -11.44552        25.89139         8.40060
|101>    C      -10.44501        26.56649         9.04949
|102>    C      -10.66231        27.69079         9.87458
|103>    N      -10.76408        28.60683        10.55936
|104>    C       -9.06208        26.29309         8.97626
|105>    N       -7.92046        26.16568         8.96979
|106>    C      -12.85491        26.26464         8.43001
|107>    C      -13.55441        25.44376         7.50335
|108>    C      -12.61634        24.50483         6.86522
|109>    O      -12.90081        23.72701         5.97747
|110>    C      -14.89784        25.56651         7.29591
|111>    C      -15.62191        26.53143         8.03027
|112>    C      -14.93208        27.35065         8.96974
|113>    C      -13.53836        27.20363         9.15701
|114>    C      -15.66507        28.30631         9.70262
|115>    C      -17.01312        28.44857         9.51636
|116>    C      -17.69076        27.64245         8.58947
|117>    C      -17.00984        26.70427         7.86239
|118>    H        7.55165         7.78646         4.89723
|119>    H        8.47079         3.14241         3.33331
|120>    H       10.76884         3.35436         4.04840
|121>    H       12.58372         4.67659         5.05975
|122>    H       12.15998         6.97302         5.84313
|123>    H        9.91627         7.96596         5.62133
|124>    H        3.24522         4.24939         2.00548
|125>    H        1.09530         4.93504         1.34206
|126>    H       -0.97750         4.13347         1.96151
|127>    H       -2.20996         2.56613         0.30925
|128>    H       -3.61305         2.65162        -1.87515
|129>    H       -3.09463         3.97914        -2.92603
|130>    H       -4.55958         4.14601        -1.96453
|131>    H        0.15112        11.99230         2.42977
|132>    H        1.31628        13.51148         4.16811
|133>    H        2.66616        13.36362         6.38270
|134>    H        3.58659        11.85295         6.49011
|135>    H        2.08069        12.02745         7.38548
|136>    H       -1.90768        11.18136         2.97764
|137>    H       -6.43824        17.49623         4.41828
|138>    H       -6.28707        17.51152         6.66511
|139>    H       -3.96209        17.90939         7.71199
|140>    H       -2.29836        19.83450         8.25010
|141>    H       -3.16117        21.33726         8.61948
|142>    H       -2.39812        21.13010         7.04705
|143>    H      -11.31618        19.46994         1.76875
|144>    H      -13.86278        19.66382         1.35610
|145>    H      -16.05960        20.28986         2.59692
|146>    H      -15.75907        21.48886         3.86627
|147>    H      -15.99373        19.79793         4.29714
|148>    H      -11.51583        22.39871         5.44133
|149>    H       -9.34998        24.30469         8.09597
|150>    H      -15.40176        24.93205         6.58184
|151>    H      -13.04884        27.83746         9.87884
|152>    H      -15.13893        28.92601        10.41387
|153>    H      -17.56530        29.18390        10.08222
|154>    H      -18.75478        27.76823         8.45508
|155>    H      -17.52602        26.08004         7.14750
|156> *
|157> 
|158>                          ****END OF INPUT****
================================================================================

                       ****************************
                       * Single Point Calculation *
                       ****************************

---------------------------------
CARTESIAN COORDINATES (ANGSTROEM)
---------------------------------
  C      5.761600    4.166890    2.990080
  C      5.582140    2.886640    2.532340
  C      6.595570    1.905260    2.513700
  N      7.370540    1.059360    2.467340
  C      4.378230    2.343990    2.037350
  N      3.441820    1.817810    1.628970
  C      7.004190    4.695920    3.541810
  C      6.771220    6.026290    3.993460
  C      7.756230    6.780360    4.562350
  C      9.049500    6.229270    4.704470
  C      9.293430    4.900950    4.251000
  C      8.251230    4.143290    3.668960
  C     10.588290    4.362030    4.393050
  C     11.595200    5.098250    4.955660
  C     11.353830    6.406050    5.402020
  C     10.108000    6.959300    5.279530
  C      5.369710    6.390630    3.730160
  O      4.833250    7.445580    4.006790
  C      4.766790    5.223900    3.057040
  C      3.509220    5.161270    2.528260
  C      2.461610    6.106360    2.528890
  C      1.261850    5.844360    1.891290
  C      0.320280    6.877600    1.993200
  C     -0.971050    6.938660    1.412410
  C     -1.538770    5.803260    0.721670
  C     -1.467710    4.481870    1.070210
  C     -2.157320    3.632990    0.183820
  C     -2.752720    4.293230   -0.847080
  S     -2.479850    6.001380   -0.732870
  C     -3.551050    3.733130   -1.967620
  C     -1.650920    8.136400    1.569920
  C     -1.147270    9.231620    2.319680
  C      0.132680    9.164010    2.907210
  C      0.837870    7.975650    2.730110
  S      2.459270    7.680990    3.291430
  C      0.683870   10.285930    3.635300
  C      0.615960   11.616570    3.323580
  C      1.270100   12.440960    4.257650
  C      1.832210   11.751090    5.288240
  S      1.576090   10.047230    5.112560
  C      2.585550   12.281690    6.453790
  C     -2.084080   10.287970    2.410560
  C     -3.245680   10.049960    1.730340
  S     -3.243880    8.476540    0.953080
  C     -4.389490   10.885600    1.573130
  C     -4.668620   12.116160    2.154170
  C     -3.777740   12.779610    3.010920
  N     -3.024090   13.320150    3.686770
  C     -5.928210   12.638430    1.740520
  C     -6.548610   11.788350    0.832250
  S     -5.660120   10.356460    0.496160
  S     -8.073050   12.338580    0.218900
  C     -7.896060   13.743500    1.217300
  C     -6.736830   13.789960    1.983430
  C     -6.712580   14.952940    2.806190
  C     -5.721120   15.235200    3.757850
  N     -4.939380   15.470300    4.563990
  C     -7.833850   15.752760    2.625330
  S     -8.940180   15.088920    1.447170
  C     -8.186440   16.967200    3.283210
  C     -7.453820   17.721480    4.156440
  C     -8.151520   18.845860    4.657480
  C     -7.703170   19.779510    5.615790
  C     -6.420490   19.628040    6.267280
  C     -5.824840   18.480730    6.715940
  C     -4.566970   18.700850    7.307720
  C     -4.189880   20.008830    7.311110
  S     -5.404760   21.009550    6.586610
  C     -2.938350   20.610910    7.838230
  C     -8.574480   20.824400    5.909800
  C     -9.866330   20.950870    5.330070
  C    -10.330600   19.990210    4.401520
  C     -9.443460   18.969190    4.087070
  S     -9.777810   17.649900    3.000270
  C    -11.654270   20.039690    3.821370
  C    -12.020030   19.731100    2.538310
  C    -13.402640   19.852250    2.309830
  C    -14.103200   20.233510    3.414440
  S    -13.053390   20.465550    4.768840
  C    -15.564690   20.464610    3.549270
  C    -10.546050   22.095060    5.787470
  C     -9.849060   22.817350    6.725070
  S     -8.270560   22.100960    7.045480
  C    -10.163930   23.986680    7.454290
  C    -11.305270   24.735140    7.523220
  C    -11.445520   25.891390    8.400600
  C    -10.445010   26.566490    9.049490
  C    -10.662310   27.690790    9.874580
  N    -10.764080   28.606830   10.559360
  C     -9.062080   26.293090    8.976260
  N     -7.920460   26.165680    8.969790
  C    -12.854910   26.264640    8.430010
  C    -13.554410   25.443760    7.503350
  C    -12.616340   24.504830    6.865220
  O    -12.900810   23.727010    5.977470
  C    -14.897840   25.566510    7.295910
  C    -15.621910   26.531430    8.030270
  C    -14.932080   27.350650    8.969740
  C    -13.538360   27.203630    9.157010
  C    -15.665070   28.306310    9.702620
  C    -17.013120   28.448570    9.516360
  C    -17.690760   27.642450    8.589470
  C    -17.009840   26.704270    7.862390
  H      7.551650    7.786460    4.897230
  H      8.470790    3.142410    3.333310
  H     10.768840    3.354360    4.048400
  H     12.583720    4.676590    5.059750
  H     12.159980    6.973020    5.843130
  H      9.916270    7.965960    5.621330
  H      3.245220    4.249390    2.005480
  H      1.095300    4.935040    1.342060
  H     -0.977500    4.133470    1.961510
  H     -2.209960    2.566130    0.309250
  H     -3.613050    2.651620   -1.875150
  H     -3.094630    3.979140   -2.926030
  H     -4.559580    4.146010   -1.964530
  H      0.151120   11.992300    2.429770
  H      1.316280   13.511480    4.168110
  H      2.666160   13.363620    6.382700
  H      3.586590   11.852950    6.490110
  H      2.080690   12.027450    7.385480
  H     -1.907680   11.181360    2.977640
  H     -6.438240   17.496230    4.418280
  H     -6.287070   17.511520    6.665110
  H     -3.962090   17.909390    7.711990
  H     -2.298360   19.834500    8.250100
  H     -3.161170   21.337260    8.619480
  H     -2.398120   21.130100    7.047050
  H    -11.316180   19.469940    1.768750
  H    -13.862780   19.663820    1.356100
  H    -16.059600   20.289860    2.596920
  H    -15.759070   21.488860    3.866270
  H    -15.993730   19.797930    4.297140
  H    -11.515830   22.398710    5.441330
  H     -9.349980   24.304690    8.095970
  H    -15.401760   24.932050    6.581840
  H    -13.048840   27.837460    9.878840
  H    -15.138930   28.926010   10.413870
  H    -17.565300   29.183900   10.082220
  H    -18.754780   27.768230    8.455080
  H    -17.526020   26.080040    7.147500

----------------------------
CARTESIAN COORDINATES (A.U.)
----------------------------
  NO LB      ZA    FRAG     MASS         X           Y           Z
   0 C     6.0000    0    12.011   10.887846    7.874281    5.650432
   1 C     6.0000    0    12.011   10.548716    5.454959    4.785429
   2 C     6.0000    0    12.011   12.463821    3.600420    4.750205
   3 N     7.0000    0    14.007   13.928302    2.001900    4.662597
   4 C     6.0000    0    12.011    8.273656    4.429499    3.850034
   5 N     7.0000    0    14.007    6.504097    3.435163    3.078307
   6 C     6.0000    0    12.011   13.236001    8.874003    6.693051
   7 C     6.0000    0    12.011   12.795751   11.388038    7.546546
   8 C     6.0000    0    12.011   14.657151   12.813023    8.621592
   9 C     6.0000    0    12.011   17.101077   11.771614    8.890160
  10 C     6.0000    0    12.011   17.562038    9.261453    8.033226
  11 C     6.0000    0    12.011   15.592565    7.829683    6.933330
  12 C     6.0000    0    12.011   20.008968    8.243042    8.301661
  13 C     6.0000    0    12.011   21.911752    9.634296    9.364840
  14 C     6.0000    0    12.011   21.455629   12.105680   10.208338
  15 C     6.0000    0    12.011   19.101352   13.151171    9.976866
  16 C     6.0000    0    12.011   10.147281   12.076541    7.048981
  17 O     8.0000    0    15.999    9.133519   14.070107    7.571736
  18 C     6.0000    0    12.011    9.007928    9.871740    5.776968
  19 C     6.0000    0    12.011    6.631465    9.753387    4.777719
  20 C     6.0000    0    12.011    4.651769   11.539348    4.778910
  21 C     6.0000    0    12.011    2.384551   11.044240    3.574020
  22 C     6.0000    0    12.011    0.605241   12.996780    3.766602
  23 C     6.0000    0    12.011   -1.835019   13.112167    2.669068
  24 C     6.0000    0    12.011   -2.907854   10.966572    1.363759
  25 C     6.0000    0    12.011   -2.773570    8.469507    2.022404
  26 C     6.0000    0    12.011   -4.076744    6.865356    0.347369
  27 C     6.0000    0    12.011   -5.201887    8.113029   -1.600749
  28 S    16.0000    0    32.060   -4.686237   11.340965   -1.384924
  29 C     6.0000    0    12.011   -6.710512    7.054593   -3.718263
  30 C     6.0000    0    12.011   -3.119787   15.375568    2.966719
  31 C     6.0000    0    12.011   -2.168026   17.445234    4.383560
  32 C     6.0000    0    12.011    0.250729   17.317469    5.493831
  33 C     6.0000    0    12.011    1.583345   15.071794    5.159160
  34 S    16.0000    0    32.060    4.647347   14.514968    6.219901
  35 C     6.0000    0    12.011    1.292327   19.437591    6.869721
  36 C     6.0000    0    12.011    1.163996   21.952136    6.280656
  37 C     6.0000    0    12.011    2.400141   23.510007    8.045792
  38 C     6.0000    0    12.011    3.462375   22.206342    9.993325
  39 S    16.0000    0    32.060    2.978378   18.986513    9.661338
  40 C     6.0000    0    12.011    4.885981   23.209031   12.195896
  41 C     6.0000    0    12.011   -3.938340   19.441446    4.555298
  42 C     6.0000    0    12.011   -6.133446   18.991672    3.269869
  43 S    16.0000    0    32.060   -6.130045   16.018339    1.801060
  44 C     6.0000    0    12.011   -8.294934   20.570803    2.972785
  45 C     6.0000    0    12.011   -8.822413   22.896224    4.070791
  46 C     6.0000    0    12.011   -7.138894   24.149963    5.689814
  47 N     7.0000    0    14.007   -5.714702   25.171436    6.966986
  48 C     6.0000    0    12.011  -11.202693   23.883171    3.289106
  49 C     6.0000    0    12.011  -12.375079   22.276753    1.572725
  50 S    16.0000    0    32.060  -10.696077   19.570873    0.937607
  51 S    16.0000    0    32.060  -15.255854   23.316537    0.413661
  52 C     6.0000    0    12.011  -14.921391   25.971451    2.300364
  53 C     6.0000    0    12.011  -12.730764   26.059248    3.748140
  54 C     6.0000    0    12.011  -12.684938   28.256961    5.302931
  55 C     6.0000    0    12.011  -10.811350   28.790356    7.101307
  56 N     7.0000    0    14.007   -9.334075   29.234630    8.624691
  57 C     6.0000    0    12.011  -14.803831   29.768402    4.961155
  58 S    16.0000    0    32.060  -16.894492   28.513926    2.734755
  59 C     6.0000    0    12.011  -15.470130   32.063361    6.204368
  60 C     6.0000    0    12.011  -14.085678   33.488744    7.854533
  61 C     6.0000    0    12.011  -15.404140   35.613514    8.801362
  62 C     6.0000    0    12.011  -14.556882   37.377857   10.612305
  63 C     6.0000    0    12.011  -12.132968   37.091620   11.843443
  64 C     6.0000    0    12.011  -11.007352   34.923518   12.691287
  65 C     6.0000    0    12.011   -8.630323   35.339485   13.809589
  66 C     6.0000    0    12.011   -7.917726   37.811209   13.815996
  67 S    16.0000    0    32.060  -10.213516   39.702296   12.446889
  68 C     6.0000    0    12.011   -5.552677   38.948975   14.812108
  69 C     6.0000    0    12.011  -16.203419   39.352413   11.167904
  70 C     6.0000    0    12.011  -18.644662   39.591407   10.072373
  71 C     6.0000    0    12.011  -19.522005   37.776022    8.317667
  72 C     6.0000    0    12.011  -17.845553   35.846574    7.723443
  73 S    16.0000    0    32.060  -18.477383   33.353477    5.669689
  74 C     6.0000    0    12.011  -22.023379   37.869526    7.221343
  75 C     6.0000    0    12.011  -22.714565   37.286375    4.796711
  76 C     6.0000    0    12.011  -25.327319   37.515316    4.364946
  77 C     6.0000    0    12.011  -26.651186   38.235793    6.452357
  78 S    16.0000    0    32.060  -24.667332   38.674285    9.011802
  79 C     6.0000    0    12.011  -29.413001   38.672508    6.707148
  80 C     6.0000    0    12.011  -19.929146   41.753612   10.936733
  81 C     6.0000    0    12.011  -18.612026   43.118543   12.708541
  82 S    16.0000    0    32.060  -15.629093   41.764762   13.314028
  83 C     6.0000    0    12.011  -19.207044   45.328256   14.086567
  84 C     6.0000    0    12.011  -21.363864   46.742640   14.216825
  85 C     6.0000    0    12.011  -21.628898   48.927636   15.874833
  86 C     6.0000    0    12.011  -19.738208   50.203390   17.101058
  87 C     6.0000    0    12.011  -20.148846   52.328010   18.660252
  88 N     7.0000    0    14.007  -20.341163   54.059074   19.954299
  89 C     6.0000    0    12.011  -17.124849   49.686739   16.962673
  90 N     7.0000    0    14.007  -14.967500   49.445969   16.950447
  91 C     6.0000    0    12.011  -24.292259   49.632977   15.930410
  92 C     6.0000    0    12.011  -25.614123   48.081738   14.179277
  93 C     6.0000    0    12.011  -23.841427   46.307418   12.973386
  94 O     8.0000    0    15.999  -24.378998   44.837551   11.295781
  95 C     6.0000    0    12.011  -28.152838   48.313702   13.787272
  96 C     6.0000    0    12.011  -29.521132   50.137137   15.175011
  97 C     6.0000    0    12.011  -28.217542   51.685238   16.950352
  98 C     6.0000    0    12.011  -25.583793   51.407411   17.304241
  99 C     6.0000    0    12.011  -29.602692   53.491174   18.335295
 100 C     6.0000    0    12.011  -32.150137   53.760006   17.983314
 101 C     6.0000    0    12.011  -33.430692   52.236660   16.231746
 102 C     6.0000    0    12.011  -32.143939   50.463757   14.857764
 103 H     1.0000    0     1.008   14.270550   14.714277    9.254424
 104 H     1.0000    0     1.008   16.007473    5.938294    6.299043
 105 H     1.0000    0     1.008   20.350158    6.338822    7.650367
 106 H     1.0000    0     1.008   23.779785    8.837474    9.561542
 107 H     1.0000    0     1.008   22.979032   13.177098   11.041915
 108 H     1.0000    0     1.008   18.739035   15.053483   10.622774
 109 H     1.0000    0     1.008    6.132577    8.030183    3.789808
 110 H     1.0000    0     1.008    2.069817    9.325874    2.536126
 111 H     1.0000    0     1.008   -1.847207    7.811126    3.706717
 112 H     1.0000    0     1.008   -4.176219    4.849283    0.584398
 113 H     1.0000    0     1.008   -6.827675    5.010836   -3.543520
 114 H     1.0000    0     1.008   -5.848003    7.519485   -5.529395
 115 H     1.0000    0     1.008   -8.616357    7.834823   -3.712424
 116 H     1.0000    0     1.008    0.285575   22.662163    4.591600
 117 H     1.0000    0     1.008    2.487409   25.532997    7.876586
 118 H     1.0000    0     1.008    5.038312   25.253582   12.061555
 119 H     1.0000    0     1.008    6.777673   22.398829   12.264530
 120 H     1.0000    0     1.008    3.931934   22.728587   13.956535
 121 H     1.0000    0     1.008   -3.604993   21.129708    5.626924
 122 H     1.0000    0     1.008  -12.166510   33.063083    8.349339
 123 H     1.0000    0     1.008  -11.880840   33.091977   12.595233
 124 H     1.0000    0     1.008   -7.487265   33.843842   14.573549
 125 H     1.0000    0     1.008   -4.343271   37.481773   15.590430
 126 H     1.0000    0     1.008   -5.973746   40.321578   16.288457
 127 H     1.0000    0     1.008   -4.531790   39.930102   13.316995
 128 H     1.0000    0     1.008  -21.384481   36.792854    3.342453
 129 H     1.0000    0     1.008  -26.196858   37.159235    2.562658
 130 H     1.0000    0     1.008  -30.348246   38.342279    4.907468
 131 H     1.0000    0     1.008  -29.780326   40.608060    7.306191
 132 H     1.0000    0     1.008  -30.223770   37.412666    8.120418
 133 H     1.0000    0     1.008  -21.761765   42.327428   10.282624
 134 H     1.0000    0     1.008  -17.668902   45.929208   15.299166
 135 H     1.0000    0     1.008  -29.105108   47.114746   12.437875
 136 H     1.0000    0     1.008  -24.658734   52.605176   18.668302
 137 H     1.0000    0     1.008  -28.608432   54.662237   19.679362
 138 H     1.0000    0     1.008  -33.193606   55.149579   19.052635
 139 H     1.0000    0     1.008  -35.441398   52.474350   15.977786
 140 H     1.0000    0     1.008  -33.119378   49.284133   13.506818

--------------------------------
INTERNAL COORDINATES (ANGSTROEM)
--------------------------------
 C      0   0   0     0.000000000000     0.00000000     0.00000000
 C      1   0   0     1.371412360197     0.00000000     0.00000000
 C      2   1   0     1.410848864656   124.03988490     0.00000000
 N      3   2   1     1.148161382603   176.23782378   181.28944865
 C      2   1   3     1.410277777851   126.01973413   178.86480477
 N      5   2   1     1.149131543776   175.25008738   185.54072244
 C      1   2   3     1.458872387120   125.18449742   358.88233113
 C      7   1   2     1.424130289089   108.62417213   184.12640018
 C      8   7   1     1.364735174713   122.02514465   179.93007529
 C      9   8   7     1.412956324661   119.14653440     0.25140767
 C     10   9   8     1.424630095218   119.23299719     0.00000000
 C      7   1   2     1.369918173104   131.61816516     4.41991712
 C     11  10   9     1.409707554247   118.79304649   179.77907917
 C     13  11  10     1.368363127463   120.77358637     0.00000000
 C     14  13  11     1.402796338212   120.38504538     0.00000000
 C     15  14  13     1.368642302247   120.33165883     0.00000000
 C      8   7   1     1.471835862350   109.28583062   359.47264639
 O     17   8   7     1.215414740325   126.47230269   178.93299568
 C      1   2   3     1.453065971592   127.21957567   180.86309751
 C     19   1   2     1.365654828352   125.39708816   352.06606963
 C     20  19   1     1.410915382686   130.75651696   179.82483110
 C     21  20  19     1.383691373681   121.11549471   178.18498772
 C     22  21  20     1.401615000847   114.16649873   179.46894024
 C     23  22  21     1.417243280668   127.88335941   177.36107010
 C     24  23  22     1.445185422705   121.32923778     6.90328993
 C     25  24  23     1.368430190876   128.06104188    40.17973735
 C     26  25  24     1.407780678444   113.35690891   178.87354417
 C     27  26  25     1.361312905838   113.49132948     0.28407053
 S     28  27  26     1.733573875986   111.04831280   359.51419054
 C     28  27  26     1.485480626094   128.56658731   179.62689384
 C     24  23  22     1.386222826460   115.94679035   185.85304672
 C     31  24  23     1.419616225781   123.54567192   356.76129615
 C     32  31  24     1.409976813816   120.34078387     2.78251303
 C     33  32  31     1.393146379854   116.57933260   358.80314142
 S     34  33  32     1.740931537425   125.08687895   176.89471527
 C     33  32  31     1.446592530950   121.22684715   177.80518105
 C     36  33  32     1.368350808857   128.36128726   319.30204946
 C     37  36  33     1.407126425237   113.29271705   180.15388293
 C     38  37  36     1.361618161270   113.42270997   359.61791610
 S     39  38  37     1.731935280661   111.13811303     0.64746795
 C     39  38  37     1.485787440417   128.47196689   180.55247136
 C     32  31  24     1.414831252482   112.02601925   184.79704849
 C     42  32  31     1.366990332263   113.62130397   358.09882471
 S     31  24  23     1.741754393363   125.24281503   179.80624942
 C     43  42  32     1.425240509458   129.40218056   181.51309507
 C     45  43  42     1.389172038338   129.38224719   354.36994933
 C     46  45  43     1.402802067079   123.14713348     2.19643445
 N     47  46  45     1.147582257008   178.23553825    54.64992410
 C     46  45  43     1.424934820790   112.38765591   179.98579302
 C     49  46  45     1.390139043154   111.10253772   358.76778633
 S     50  49  46     1.718336387411   113.99159108     1.34363075
 S     50  49  46     1.732878700025   115.44820522   181.67615183
 C     52  50  49     1.732607349199    87.91659194   359.34200599
 C     53  52  50     1.390297774363   115.45564280   359.78651159
 C     54  53  52     1.424796322462   111.08046959   182.37687723
 C     55  54  53     1.402968422595   124.60715383   175.36508802
 N     56  55  54     1.147279886166   177.97721103   234.13343468
 C     55  54  53     1.389125186907   112.39866013   359.14495835
 S     53  52  50     1.718482402499   130.53058685   181.26239010
 C     58  55  54     1.425478977783   129.05725790   178.25175497
 C     60  58  55     1.366821501038   129.22898158     7.34322590
 C     61  60  58     1.414940548574   113.60672632   182.47821278
 C     62  61  60     1.411055669029   127.56103235   176.77797984
 C     63  62  61     1.446599586409   121.21921223   356.89508527
 C     64  63  62     1.368362142929   128.42084060   320.35034431
 C     65  64  63     1.407442119485   113.31409357   180.11492323
 C     66  65  64     1.361256787164   113.50944041   359.71919718
 S     67  66  65     1.732707183225   111.08012780     0.53743085
 C     67  66  65     1.485490882402   128.58790978   180.35125642
 C     63  62  61     1.391911674030   116.18427490   178.19198935
 C     70  63  62     1.421604008260   123.33206089     2.01149502
 C     71  70  63     1.414432526139   120.36917763   359.93043851
 C     72  71  70     1.388660513769   115.99770118   358.49156572
 S     73  72  71     1.741680299768   125.14174210   178.77005787
 C     72  71  70     1.446072115007   122.72373691   177.48690350
 C     75  72  71     1.369398090148   127.78299515   142.09288782
 C     76  75  72     1.406588370846   113.28638820   178.36220899
 C     77  76  75     1.362463486960   113.44253067   359.11788872
 S     78  77  76     1.729260812515   111.12409448     0.49421245
 C     78  77  76     1.485779041109   128.52664286   179.79213194
 C     71  70  63     1.407268558058   112.25362540   180.22642053
 C     81  71  70     1.373532549378   113.84901676   357.75238971
 S     70  63  62     1.735437081084   125.50658190   179.98084396
 C     82  81  71     1.413590313422   132.38469610   181.71728256
 C     84  82  81     1.366601885005   131.68941419     4.72863048
 C     85  84  82     1.458211160772   123.02071390   177.00398706
 C     86  85  84     1.370342476245   127.25209053    14.57295949
 C     87  86  85     1.411397636423   123.83802653   179.31424507
 N     88  87  86     1.148220389516   176.19515391   178.62382891
 C     87  86  85     1.411596818429   126.53452404     1.43622774
 N     90  87  86     1.148725987083   174.50572790   169.81322257
 C     86  85  84     1.458273185209   107.94123964   191.91886848
 C     92  86  85     1.421915250639   108.33334391   354.86062304
 C     93  92  86     1.472676056266   109.70040812     0.81646862
 O     94  93  92     1.214095216941   125.17343865   184.24532348
 C     93  92  86     1.364882075859   122.09590894   180.62357313
 C     96  93  92     1.412314618242   119.14643383   359.50999035
 C     97  96  93     1.424637047883   119.17764584   359.92291098
 C     92  86  85     1.370158794666   131.92825663   174.71402411
 C     98  97  96     1.409848740149   118.74021270   180.31256611
 C    100  98  97     1.368272450099   120.79284815   359.90095120
 C    101 100  98     1.402907871565   120.40326112     0.00000000
 C    102 101 100     1.368385576217   120.30826215     0.04715157
 H      9   8   7     1.079923516181   120.48427492   180.07054787
 H     12   7   1     1.078252424296   122.06796837     0.13164720
 H     13  11  10     1.080176260570   118.55557800   179.96836554
 H     14  13  11     1.079723887899   120.21297780   180.01920627
 H     15  14  13     1.079773511205   119.40971491   180.02914875
 H     16  15  14     1.080255520004   120.65950542   180.00904608
 H     20  19   1     1.083752768301   116.72333926   359.10100772
 H     22  21  20     1.075293149704   121.99082330   357.55210877
 H     26  25  24     1.075222811374   123.20901224     1.93438270
 H     27  26  25     1.075497054436   123.27743807   180.35543143
 H     30  28  27     1.087225174929   109.97182313   359.74165650
 H     30  28  27     1.089674201126   110.68511471   239.41892521
 H     30  28  27     1.089776217120   110.63204233   120.07486126
 H     37  36  33     1.075242100459   123.41027055   357.33571325
 H     38  37  36     1.075250238038   123.22839155   179.93396093
 H     41  39  38     1.087255390927   109.97849141   358.72909071
 H     41  39  38     1.089595434829   110.57609980   238.29435815
 H     41  39  38     1.089755868670   110.63846822   118.96108418
 H     42  32  31     1.072773218579   123.15164276   176.81238042
 H     61  60  58     1.072707082339   123.19731403     3.91640512
 H     65  64  63     1.074992225972   123.59179212   357.43239002
 H     66  65  64     1.075045570615   123.08172571   180.06004139
 H     69  67  66     1.087215059268   109.93325545     0.36409611
 H     69  67  66     1.089763569496   110.62625150   239.99189236
 H     69  67  66     1.089666233945   110.68090128   120.67485111
 H     76  75  72     1.075096256946   123.40493966   355.47403039
 H     77  76  75     1.075562921172   123.33043649   179.03820046
 H     80  78  77     1.087402406242   110.07302780   359.64688458
 H     80  78  77     1.089660794422   110.36954190   239.35659031
 H     80  78  77     1.089883975889   110.75341564   120.09714714
 H     81  71  70     1.073540623591   124.15941294   177.15685768
 H     84  82  81     1.084157822921   112.37916753   182.00390014
 H     96  93  92     1.079986491999   120.45890759   179.70508210
 H     99  92  86     1.078150661179   122.11676034   359.36170943
 H    100  98  97     1.080151819005   118.55080884   180.01868535
 H    101 100  98     1.079727049258   120.21953390   180.03816020
 H    102 101 100     1.079823986074   119.42286132   180.00809451
 H    103 102 101     1.080357624771   120.66331987   179.96423149

---------------------------
INTERNAL COORDINATES (A.U.)
---------------------------
 C      0   0   0     0.000000000000     0.00000000     0.00000000
 C      1   0   0     2.591593777446     0.00000000     0.00000000
 C      2   1   0     2.666117970553   124.03988490     0.00000000
 N      3   2   1     2.169710570663   176.23782378   181.28944865
 C      2   1   3     2.665038772893   126.01973413   178.86480477
 N      5   2   1     2.171543909586   175.25008738   185.54072244
 C      1   2   3     2.756869275996   125.18449742   358.88233113
 C      7   1   2     2.691216225400   108.62417213   184.12640018
 C      8   7   1     2.578975725537   122.02514465   179.93007529
 C      9   8   7     2.670100492802   119.14653440     0.25140767
 C     10   9   8     2.692160722104   119.23299719     0.00000000
 C      7   1   2     2.588770173048   131.61816516     4.41991712
 C     11  10   9     2.663961206446   118.79304649   179.77907917
 C     13  11  10     2.585831562661   120.77358637     0.00000000
 C     14  13  11     2.650900900888   120.38504538     0.00000000
 C     15  14  13     2.586359126546   120.33165883     0.00000000
 C      8   7   1     2.781366693926   109.28583062   359.47264639
 O     17   8   7     2.296800998346   126.47230269   178.93299568
 C      1   2   3     2.745896740830   127.21957567   180.86309751
 C     19   1   2     2.580713619052   125.39708816   352.06606963
 C     20  19   1     2.666243671413   130.75651696   179.82483110
 C     21  20  19     2.614797750127   121.11549471   178.18498772
 C     22  21  20     2.648668496797   114.16649873   179.46894024
 C     23  22  21     2.678201665604   127.88335941   177.36107010
 C     24  23  22     2.731004661648   121.32923778     6.90328993
 C     25  24  23     2.585958294145   128.06104188    40.17973735
 C     26  25  24     2.660319938885   113.35690891   178.87354417
 C     27  26  25     2.572508574606   113.49132948     0.28407053
 S     28  27  26     3.275979858533   111.04831280   359.51419054
 C     28  27  26     2.807151560563   128.56658731   179.62689384
 C     24  23  22     2.619581502600   115.94679035   185.85304672
 C     31  24  23     2.682685881997   123.54567192   356.76129615
 C     32  31  24     2.664470033292   120.34078387     2.78251303
 C     33  32  31     2.632665122388   116.57933260   358.80314142
 S     34  33  32     3.289883823639   125.08687895   176.89471527
 C     33  32  31     2.733663710871   121.22684715   177.80518105
 C     36  33  32     2.585808283870   128.36128726   319.30204946
 C     37  36  33     2.659083579501   113.29271705   180.15388293
 C     38  37  36     2.573085423774   113.42270997   359.61791610
 S     39  38  37     3.272883362126   111.13811303     0.64746795
 C     39  38  37     2.807731355607   128.47196689   180.55247136
 C     32  31  24     2.673643592904   112.02601925   184.79704849
 C     42  32  31     2.583237355695   113.62130397   358.09882471
 S     31  24  23     3.291438796011   125.24281503   179.80624942
 C     43  42  32     2.693314237846   129.40218056   181.51309507
 C     45  43  42     2.625154705360   129.38224719   354.36994933
 C     46  45  43     2.650911726877   123.14713348     2.19643445
 N     47  46  45     2.168616181893   178.23553825    54.64992410
 C     46  45  43     2.692736569981   112.38765591   179.98579302
 C     49  46  45     2.626982079632   111.10253772   358.76778633
 S     50  49  46     3.247185178158   113.99159108     1.34363075
 S     50  49  46     3.274666166353   115.44820522   181.67615183
 C     52  50  49     3.274153387606    87.91659194   359.34200599
 C     53  52  50     2.627282038147   115.45564280   359.78651159
 C     54  53  52     2.692474846071   111.08046959   182.37687723
 C     55  54  53     2.651226093245   124.60715383   175.36508802
 N     56  55  54     2.168044783809   177.97721103   234.13343468
 C     55  54  53     2.625066168987   112.39866013   359.14495835
 S     53  52  50     3.247461106687   130.53058685   181.26239010
 C     58  55  54     2.693764877671   129.05725790   178.25175497
 C     60  58  55     2.582918310917   129.22898158     7.34322590
 C     61  60  58     2.673850132586   113.60672632   182.47821278
 C     62  61  60     2.666508774183   127.56103235   176.77797984
 C     63  62  61     2.733677043758   121.21921223   356.89508527
 C     64  63  62     2.585829702161   128.42084060   320.35034431
 C     65  64  63     2.659680155172   113.31409357   180.11492323
 C     66  65  64     2.572402525681   113.50944041   359.71919718
 S     67  66  65     3.274342046574   111.08012780     0.53743085
 C     67  66  65     2.807170942177   128.58790978   180.35125642
 C     63  62  61     2.630331866524   116.18427490   178.19198935
 C     70  63  62     2.686442246496   123.33206089     2.01149502
 C     71  70  63     2.672890109313   120.36917763   359.93043851
 C     72  71  70     2.624188064013   115.99770118   358.49156572
 S     73  72  71     3.291298779407   125.14174210   178.77005787
 C     72  71  70     2.732680267263   122.72373691   177.48690350
 C     75  72  71     2.587787358694   127.78299515   142.09288782
 C     76  75  72     2.658066804058   113.28638820   178.36220899
 C     77  76  75     2.574682857822   113.44253067   359.11788872
 S     78  77  76     3.267829349775   111.12409448     0.49421245
 C     78  77  76     2.807715483217   128.52664286   179.79213194
 C     71  70  63     2.659352171609   112.25362540   180.22642053
 C     81  71  70     2.595600354351   113.84901676   357.75238971
 S     70  63  62     3.279500805900   125.50658190   179.98084396
 C     82  81  71     2.671298557931   132.38469610   181.71728256
 C     84  82  81     2.582503296761   131.68941419     4.72863048
 C     85  84  82     2.755619739286   123.02071390   177.00398706
 C     86  85  84     2.589571989782   127.25209053    14.57295949
 C     87  86  85     2.667154998903   123.83802653   179.31424507
 N     88  87  86     2.169822077569   176.19515391   178.62382891
 C     87  86  85     2.667531398346   126.53452404     1.43622774
 N     90  87  86     2.170777518505   174.50572790   169.81322257
 C     86  85  84     2.755736948486   107.94123964   191.91886848
 C     92  86  85     2.687030409354   108.33334391   354.86062304
 C     93  92  86     2.782954430326   109.70040812     0.81646862
 O     94  93  92     2.294307460523   125.17343865   184.24532348
 C     93  92  86     2.579253328471   122.09590894   180.62357313
 C     96  93  92     2.668887843411   119.14643383   359.50999035
 C     97  96  93     2.692173860736   119.17764584   359.92291098
 C     92  86  85     2.589224881902   131.92825663   174.71402411
 C     98  97  96     2.664228009136   118.74021270   180.31256611
 C    100  98  97     2.585660207277   120.79284815   359.90095120
 C    101 100  98     2.651111668381   120.40326112     0.00000000
 C    102 101 100     2.585873984659   120.30826215     0.04715157
 H      9   8   7     2.040759691163   120.48427492   180.07054787
 H     12   7   1     2.037601785156   122.06796837     0.13164720
 H     13  11  10     2.041237308841   118.55557800   179.96836554
 H     14  13  11     2.040382448382   120.21297780   180.01920627
 H     15  14  13     2.040476222840   119.40971491   180.02914875
 H     16  15  14     2.041387087465   120.65950542   180.00904608
 H     20  19   1     2.047995928968   116.72333926   359.10100772
 H     22  21  20     2.032009566622   121.99082330   357.55210877
 H     26  25  24     2.031876646443   123.20901224     1.93438270
 H     27  26  25     2.032394890723   123.27743807   180.35543143
 H     30  28  27     2.054557826521   109.97182313   359.74165650
 H     30  28  27     2.059185815328   110.68511471   239.41892521
 H     30  28  27     2.059378597617   110.63204233   120.07486126
 H     37  36  33     2.031913097530   123.41027055   357.33571325
 H     38  37  36     2.031928475325   123.22839155   179.93396093
 H     41  39  38     2.054614926482   109.97849141   358.72909071
 H     41  39  38     2.059036968597   110.57609980   238.29435815
 H     41  39  38     2.059340144619   110.63846822   118.96108418
 H     42  32  31     2.027247586919   123.15164276   176.81238042
 H     61  60  58     2.027122607538   123.19731403     3.91640512
 H     65  64  63     2.031440903181   123.59179212   357.43239002
 H     66  65  64     2.031541709948   123.08172571   180.06004139
 H     69  67  66     2.054538710692   109.93325545     0.36409611
 H     69  67  66     2.059354697071   110.62625150   239.99189236
 H     69  67  66     2.059170759538   110.68090128   120.67485111
 H     76  75  72     2.031637493232   123.40493966   355.47403039
 H     77  76  75     2.032519360815   123.33043649   179.03820046
 H     80  78  77     2.054892745164   110.07302780   359.64688458
 H     80  78  77     2.059160480328   110.36954190   239.35659031
 H     80  78  77     2.059582232180   110.75341564   120.09714714
 H     81  71  70     2.028697772226   124.15941294   177.15685768
 H     84  82  81     2.048761371268   112.37916753   182.00390014
 H     96  93  92     2.040878698212   120.45890759   179.70508210
 H     99  92  86     2.037409480734   122.11676034   359.36170943
 H    100  98  97     2.041191120976   118.55080884   180.01868535
 H    101 100  98     2.040388422485   120.21953390   180.03816020
 H    102 101 100     2.040571606518   119.42286132   180.00809451
 H    103 102 101     2.041580037510   120.66331987   179.96423149

---------------------
BASIS SET INFORMATION
---------------------
There are 5 groups of distinct atoms

 Group   1 Type C   : 7s4p1d contracted to 3s2p1d pattern {511/31/1}
 Group   2 Type N   : 7s4p1d contracted to 3s2p1d pattern {511/31/1}
 Group   3 Type O   : 7s4p1d contracted to 3s2p1d pattern {511/31/1}
 Group   4 Type S   : 10s7p1d contracted to 4s3p1d pattern {5311/511/1}
 Group   5 Type H   : 4s1p contracted to 2s1p pattern {31/1}

Atom   0C    basis set group =>   1
Atom   1C    basis set group =>   1
Atom   2C    basis set group =>   1
Atom   3N    basis set group =>   2
Atom   4C    basis set group =>   1
Atom   5N    basis set group =>   2
Atom   6C    basis set group =>   1
Atom   7C    basis set group =>   1
Atom   8C    basis set group =>   1
Atom   9C    basis set group =>   1
Atom  10C    basis set group =>   1
Atom  11C    basis set group =>   1
Atom  12C    basis set group =>   1
Atom  13C    basis set group =>   1
Atom  14C    basis set group =>   1
Atom  15C    basis set group =>   1
Atom  16C    basis set group =>   1
Atom  17O    basis set group =>   3
Atom  18C    basis set group =>   1
Atom  19C    basis set group =>   1
Atom  20C    basis set group =>   1
Atom  21C    basis set group =>   1
Atom  22C    basis set group =>   1
Atom  23C    basis set group =>   1
Atom  24C    basis set group =>   1
Atom  25C    basis set group =>   1
Atom  26C    basis set group =>   1
Atom  27C    basis set group =>   1
Atom  28S    basis set group =>   4
Atom  29C    basis set group =>   1
Atom  30C    basis set group =>   1
Atom  31C    basis set group =>   1
Atom  32C    basis set group =>   1
Atom  33C    basis set group =>   1
Atom  34S    basis set group =>   4
Atom  35C    basis set group =>   1
Atom  36C    basis set group =>   1
Atom  37C    basis set group =>   1
Atom  38C    basis set group =>   1
Atom  39S    basis set group =>   4
Atom  40C    basis set group =>   1
Atom  41C    basis set group =>   1
Atom  42C    basis set group =>   1
Atom  43S    basis set group =>   4
Atom  44C    basis set group =>   1
Atom  45C    basis set group =>   1
Atom  46C    basis set group =>   1
Atom  47N    basis set group =>   2
Atom  48C    basis set group =>   1
Atom  49C    basis set group =>   1
Atom  50S    basis set group =>   4
Atom  51S    basis set group =>   4
Atom  52C    basis set group =>   1
Atom  53C    basis set group =>   1
Atom  54C    basis set group =>   1
Atom  55C    basis set group =>   1
Atom  56N    basis set group =>   2
Atom  57C    basis set group =>   1
Atom  58S    basis set group =>   4
Atom  59C    basis set group =>   1
Atom  60C    basis set group =>   1
Atom  61C    basis set group =>   1
Atom  62C    basis set group =>   1
Atom  63C    basis set group =>   1
Atom  64C    basis set group =>   1
Atom  65C    basis set group =>   1
Atom  66C    basis set group =>   1
Atom  67S    basis set group =>   4
Atom  68C    basis set group =>   1
Atom  69C    basis set group =>   1
Atom  70C    basis set group =>   1
Atom  71C    basis set group =>   1
Atom  72C    basis set group =>   1
Atom  73S    basis set group =>   4
Atom  74C    basis set group =>   1
Atom  75C    basis set group =>   1
Atom  76C    basis set group =>   1
Atom  77C    basis set group =>   1
Atom  78S    basis set group =>   4
Atom  79C    basis set group =>   1
Atom  80C    basis set group =>   1
Atom  81C    basis set group =>   1
Atom  82S    basis set group =>   4
Atom  83C    basis set group =>   1
Atom  84C    basis set group =>   1
Atom  85C    basis set group =>   1
Atom  86C    basis set group =>   1
Atom  87C    basis set group =>   1
Atom  88N    basis set group =>   2
Atom  89C    basis set group =>   1
Atom  90N    basis set group =>   2
Atom  91C    basis set group =>   1
Atom  92C    basis set group =>   1
Atom  93C    basis set group =>   1
Atom  94O    basis set group =>   3
Atom  95C    basis set group =>   1
Atom  96C    basis set group =>   1
Atom  97C    basis set group =>   1
Atom  98C    basis set group =>   1
Atom  99C    basis set group =>   1
Atom 100C    basis set group =>   1
Atom 101C    basis set group =>   1
Atom 102C    basis set group =>   1
Atom 103H    basis set group =>   5
Atom 104H    basis set group =>   5
Atom 105H    basis set group =>   5
Atom 106H    basis set group =>   5
Atom 107H    basis set group =>   5
Atom 108H    basis set group =>   5
Atom 109H    basis set group =>   5
Atom 110H    basis set group =>   5
Atom 111H    basis set group =>   5
Atom 112H    basis set group =>   5
Atom 113H    basis set group =>   5
Atom 114H    basis set group =>   5
Atom 115H    basis set group =>   5
Atom 116H    basis set group =>   5
Atom 117H    basis set group =>   5
Atom 118H    basis set group =>   5
Atom 119H    basis set group =>   5
Atom 120H    basis set group =>   5
Atom 121H    basis set group =>   5
Atom 122H    basis set group =>   5
Atom 123H    basis set group =>   5
Atom 124H    basis set group =>   5
Atom 125H    basis set group =>   5
Atom 126H    basis set group =>   5
Atom 127H    basis set group =>   5
Atom 128H    basis set group =>   5
Atom 129H    basis set group =>   5
Atom 130H    basis set group =>   5
Atom 131H    basis set group =>   5
Atom 132H    basis set group =>   5
Atom 133H    basis set group =>   5
Atom 134H    basis set group =>   5
Atom 135H    basis set group =>   5
Atom 136H    basis set group =>   5
Atom 137H    basis set group =>   5
Atom 138H    basis set group =>   5
Atom 139H    basis set group =>   5
Atom 140H    basis set group =>   5
---------------------------------
AUXILIARY/J BASIS SET INFORMATION
---------------------------------
There are 5 groups of distinct atoms

 Group   1 Type C   : 12s5p4d2f1g contracted to 6s4p3d1f1g pattern {711111/2111/211/2/1}
 Group   2 Type N   : 12s5p4d2f1g contracted to 6s4p3d1f1g pattern {711111/2111/211/2/1}
 Group   3 Type O   : 12s5p4d2f1g contracted to 6s4p3d1f1g pattern {711111/2111/211/2/1}
 Group   4 Type S   : 14s5p5d2f1g contracted to 8s4p3d1f1g pattern {71111111/2111/311/2/1}
 Group   5 Type H   : 5s2p1d contracted to 3s1p1d pattern {311/2/1}

Atom   0C    basis set group =>   1
Atom   1C    basis set group =>   1
Atom   2C    basis set group =>   1
Atom   3N    basis set group =>   2
Atom   4C    basis set group =>   1
Atom   5N    basis set group =>   2
Atom   6C    basis set group =>   1
Atom   7C    basis set group =>   1
Atom   8C    basis set group =>   1
Atom   9C    basis set group =>   1
Atom  10C    basis set group =>   1
Atom  11C    basis set group =>   1
Atom  12C    basis set group =>   1
Atom  13C    basis set group =>   1
Atom  14C    basis set group =>   1
Atom  15C    basis set group =>   1
Atom  16C    basis set group =>   1
Atom  17O    basis set group =>   3
Atom  18C    basis set group =>   1
Atom  19C    basis set group =>   1
Atom  20C    basis set group =>   1
Atom  21C    basis set group =>   1
Atom  22C    basis set group =>   1
Atom  23C    basis set group =>   1
Atom  24C    basis set group =>   1
Atom  25C    basis set group =>   1
Atom  26C    basis set group =>   1
Atom  27C    basis set group =>   1
Atom  28S    basis set group =>   4
Atom  29C    basis set group =>   1
Atom  30C    basis set group =>   1
Atom  31C    basis set group =>   1
Atom  32C    basis set group =>   1
Atom  33C    basis set group =>   1
Atom  34S    basis set group =>   4
Atom  35C    basis set group =>   1
Atom  36C    basis set group =>   1
Atom  37C    basis set group =>   1
Atom  38C    basis set group =>   1
Atom  39S    basis set group =>   4
Atom  40C    basis set group =>   1
Atom  41C    basis set group =>   1
Atom  42C    basis set group =>   1
Atom  43S    basis set group =>   4
Atom  44C    basis set group =>   1
Atom  45C    basis set group =>   1
Atom  46C    basis set group =>   1
Atom  47N    basis set group =>   2
Atom  48C    basis set group =>   1
Atom  49C    basis set group =>   1
Atom  50S    basis set group =>   4
Atom  51S    basis set group =>   4
Atom  52C    basis set group =>   1
Atom  53C    basis set group =>   1
Atom  54C    basis set group =>   1
Atom  55C    basis set group =>   1
Atom  56N    basis set group =>   2
Atom  57C    basis set group =>   1
Atom  58S    basis set group =>   4
Atom  59C    basis set group =>   1
Atom  60C    basis set group =>   1
Atom  61C    basis set group =>   1
Atom  62C    basis set group =>   1
Atom  63C    basis set group =>   1
Atom  64C    basis set group =>   1
Atom  65C    basis set group =>   1
Atom  66C    basis set group =>   1
Atom  67S    basis set group =>   4
Atom  68C    basis set group =>   1
Atom  69C    basis set group =>   1
Atom  70C    basis set group =>   1
Atom  71C    basis set group =>   1
Atom  72C    basis set group =>   1
Atom  73S    basis set group =>   4
Atom  74C    basis set group =>   1
Atom  75C    basis set group =>   1
Atom  76C    basis set group =>   1
Atom  77C    basis set group =>   1
Atom  78S    basis set group =>   4
Atom  79C    basis set group =>   1
Atom  80C    basis set group =>   1
Atom  81C    basis set group =>   1
Atom  82S    basis set group =>   4
Atom  83C    basis set group =>   1
Atom  84C    basis set group =>   1
Atom  85C    basis set group =>   1
Atom  86C    basis set group =>   1
Atom  87C    basis set group =>   1
Atom  88N    basis set group =>   2
Atom  89C    basis set group =>   1
Atom  90N    basis set group =>   2
Atom  91C    basis set group =>   1
Atom  92C    basis set group =>   1
Atom  93C    basis set group =>   1
Atom  94O    basis set group =>   3
Atom  95C    basis set group =>   1
Atom  96C    basis set group =>   1
Atom  97C    basis set group =>   1
Atom  98C    basis set group =>   1
Atom  99C    basis set group =>   1
Atom 100C    basis set group =>   1
Atom 101C    basis set group =>   1
Atom 102C    basis set group =>   1
Atom 103H    basis set group =>   5
Atom 104H    basis set group =>   5
Atom 105H    basis set group =>   5
Atom 106H    basis set group =>   5
Atom 107H    basis set group =>   5
Atom 108H    basis set group =>   5
Atom 109H    basis set group =>   5
Atom 110H    basis set group =>   5
Atom 111H    basis set group =>   5
Atom 112H    basis set group =>   5
Atom 113H    basis set group =>   5
Atom 114H    basis set group =>   5
Atom 115H    basis set group =>   5
Atom 116H    basis set group =>   5
Atom 117H    basis set group =>   5
Atom 118H    basis set group =>   5
Atom 119H    basis set group =>   5
Atom 120H    basis set group =>   5
Atom 121H    basis set group =>   5
Atom 122H    basis set group =>   5
Atom 123H    basis set group =>   5
Atom 124H    basis set group =>   5
Atom 125H    basis set group =>   5
Atom 126H    basis set group =>   5
Atom 127H    basis set group =>   5
Atom 128H    basis set group =>   5
Atom 129H    basis set group =>   5
Atom 130H    basis set group =>   5
Atom 131H    basis set group =>   5
Atom 132H    basis set group =>   5
Atom 133H    basis set group =>   5
Atom 134H    basis set group =>   5
Atom 135H    basis set group =>   5
Atom 136H    basis set group =>   5
Atom 137H    basis set group =>   5
Atom 138H    basis set group =>   5
Atom 139H    basis set group =>   5
Atom 140H    basis set group =>   5


           ************************************************************
           *        Program running with 6 parallel MPI-processes     *
           *              working on a common directory               *
           ************************************************************
------------------------------------------------------------------------------
                           ORCA GTO INTEGRAL CALCULATION
                           -- RI-GTO INTEGRALS CHOSEN --
------------------------------------------------------------------------------

                         BASIS SET STATISTICS AND STARTUP INFO

Gaussian basis set:
 # of primitive gaussian shells          ... 1492
 # of primitive gaussian functions       ... 2870
 # of contracted shells                  ...  754
 # of contracted basis functions         ... 1676
 Highest angular momentum                ...    2
 Maximum contraction depth               ...    5
Auxiliary gaussian basis set:
 # of primitive gaussian shells          ... 2809
 # of primitive gaussian functions       ... 7895
 # of contracted shells                  ... 1757
 # of contracted aux-basis functions     ... 5487
 Highest angular momentum                ...    4
 Maximum contraction depth               ...    7
Ratio of auxiliary to basis functions    ...  3.27
Integral package used                  ... LIBINT
 One Electron integrals                  ... done
 Ordering auxiliary basis shells         ... done
 Integral threshhold             Thresh  ...  2.500e-11
 Primitive cut-off               TCut    ...  2.500e-12
 Pre-screening matrix                    ... done
 Shell pair data                         ... 
 Ordering of the shell pairs             ... done (   0.015 sec) 66005 of 284635 pairs
 Determination of significant pairs      ... done (   0.000 sec)
 Creation of shell pair data             ... done (   0.008 sec)
 Storage of shell pair data              ... done (   0.013 sec)
 Shell pair data done in (   0.036 sec)
 Computing two index integrals           ... done
 Cholesky decomposition of the V-matrix  ... done


Timings:
 Total evaluation time                   ...   4.540 sec (  0.076 min)
 One electron matrix time                ...   1.108 sec (  0.018 min) = 24.4%
 Schwartz matrix evaluation time         ...   1.284 sec (  0.021 min) = 28.3%
 Two index repulsion integral time       ...   0.701 sec (  0.012 min) = 15.4%
 Cholesky decomposition of V             ...   1.394 sec (  0.023 min) = 30.7%
 Three index repulsion integral time     ...   0.000 sec (  0.000 min) =  0.0%



           ************************************************************
           *        Program running with 6 parallel MPI-processes     *
           *              working on a common directory               *
           ************************************************************
-------------------------------------------------------------------------------
                                 ORCA SCF
-------------------------------------------------------------------------------

------------
SCF SETTINGS
------------
Hamiltonian:
 Density Functional     Method          .... DFT(GTOs)
 Exchange Functional    Exchange        .... WB88
 Correlation Functional Correlation     .... LYP
 LDA part of GGA corr.  LDAOpt          .... VWN-5
 Gradients option       PostSCFGGA      .... off
 Hybrid DFT is turned on
   Fraction HF Exchange ScalHFX         ....  0.190000
   Scaling of DF-GGA-X  ScalDFX         ....  0.350000
   Scaling of DF-GGA-C  ScalDFC         ....  0.810000
   Scaling of DF-LDA-C  ScalLDAC        ....  1.000000
   Perturbative correction              ....  0.000000
   Density functional embedding theory  .... OFF
 Long-range corrected/Screened/Range-Separated Hybrid DFT is turned on
   Amount of maximum screened exact exchange              ....  0.460000
   Range separation parameter mu (erf(mu*r12)/r12)        ....  0.330000
 RI-approximation to the Coulomb term is turned on
   Number of auxiliary basis functions  .... 5487
   RIJ-COSX (HFX calculated with COS-X)).... on


General Settings:
 Integral files         IntName         .... 90_30_6_30_90
 Hartree-Fock type      HFTyp           .... RHF
 Total Charge           Charge          ....    0
 Multiplicity           Mult            ....    1
 Number of Electrons    NEL             ....  776
 Basis Dimension        Dim             .... 1676
 Nuclear Repulsion      ENuc            ....  19107.7722611782 Eh

Convergence Acceleration:
 DIIS                   CNVDIIS         .... on
   Start iteration      DIISMaxIt       ....    12
   Startup error        DIISStart       ....  0.200000
   # of expansion vecs  DIISMaxEq       ....     5
   Bias factor          DIISBfac        ....   1.050
   Max. coefficient     DIISMaxC        ....  10.000
 Newton-Raphson         CNVNR           .... off
 SOSCF                  CNVSOSCF        .... on
   Start iteration      SOSCFMaxIt      ....   150
   Startup grad/error   SOSCFStart      ....  0.003300
 Level Shifting         CNVShift        .... on
   Level shift para.    LevelShift      ....    0.2500
   Turn off err/grad.   ShiftErr        ....    0.0010
 Zerner damping         CNVZerner       .... off
 Static damping         CNVDamp         .... on
   Fraction old density DampFac         ....    0.7000
   Max. Damping (<1)    DampMax         ....    0.9800
   Min. Damping (>=0)   DampMin         ....    0.0000
   Turn off err/grad.   DampErr         ....    0.1000
 Fernandez-Rico         CNVRico         .... off

SCF Procedure:
 Maximum # iterations   MaxIter         ....   125
 SCF integral mode      SCFMode         .... Direct
   Integral package                     .... LIBINT
 Reset frequency        DirectResetFreq ....    20
 Integral Threshold     Thresh          ....  2.500e-11 Eh
 Primitive CutOff       TCut            ....  2.500e-12 Eh

Convergence Tolerance:
 Convergence Check Mode ConvCheckMode   .... Total+1el-Energy
 Convergence forced     ConvForced      .... 1
 Energy Change          TolE            ....  1.000e-08 Eh
 1-El. energy change                    ....  1.000e-05 Eh
 Orbital Gradient       TolG            ....  1.000e-05
 Orbital Rotation angle TolX            ....  1.000e-05
 DIIS Error             TolErr          ....  5.000e-07


Diagonalization of the overlap matrix:
Smallest eigenvalue                        ... 1.176e-04
Time for diagonalization                   ...    0.440 sec
Threshold for overlap eigenvalues          ... 1.000e-08
Number of eigenvalues below threshold      ... 0
Time for construction of square roots      ...    0.309 sec
Total time needed                          ...    0.756 sec

-------------------
DFT GRID GENERATION
-------------------

General Integration Accuracy     IntAcc      ...  4.670
Radial Grid Type                 RadialGrid  ... Gauss-Chebyshev
Angular Grid (max. acc.)         AngularGrid ... Lebedev-302
Angular grid pruning method      GridPruning ... 3 (G Style)
Weight generation scheme         WeightScheme... Becke
Basis function cutoff            BFCut       ...    1.0000e-11
Integration weight cutoff        WCut        ...    1.0000e-14
Grids for H and He will be reduced by one unit

# of grid points (after initial pruning)     ... 775782 (   0.1 sec)
# of grid points (after weights+screening)   ... 664225 (  18.5 sec)
nearest neighbour list constructed           ...    0.0 sec
Grid point re-assignment to atoms done       ...    0.1 sec
Grid point division into batches done        ...    2.4 sec
Reduced shell lists constructed in    3.8 sec

Total number of grid points                  ...   664225
Total number of batches                      ...    10448
Average number of points per batch           ...       63
Average number of grid points per atom       ...     4711
Average number of shells per batch           ...    95.95 (12.73%)
Average number of basis functions per batch  ...   203.09 (12.12%)
Average number of large shells per batch     ...    59.41 (61.92%)
Average number of large basis fcns per batch ...   128.35 (63.20%)
Maximum spatial batch extension              ...  16.16, 16.89, 21.43 au
Average spatial batch extension              ...   0.30,  0.31,  0.35 au

Time for grid setup =   22.774 sec

------------------------------
INITIAL GUESS: MODEL POTENTIAL
------------------------------
Loading Hartree-Fock densities                     ... done
Calculating cut-offs                               ... done
Setting up the integral package                    ... done
Initializing the effective Hamiltonian             ... done
Starting the Coulomb interaction                   ... done (   2.7 sec)
Reading the grid                                   ... done
Mapping shells                                     ... done
Starting the XC term evaluation                    ... done (   2.2 sec)
  promolecular density results
     # of electrons  =    775.981245637
     EX              =   -770.721918197
     EC              =    -27.278593332
     EX+EC           =   -798.000511529
Transforming the Hamiltonian                       ... done (   0.2 sec)
Diagonalizing the Hamiltonian                      ... done (   0.4 sec)
Back transforming the eigenvectors                 ... done (   0.1 sec)
Now organizing SCF variables                       ... done
                      ------------------
                      INITIAL GUESS DONE (  28.7 sec)
                      ------------------
--------------------
COSX GRID GENERATION
--------------------

General Integration Accuracy     IntAcc      ...  3.340
Radial Grid Type                 RadialGrid  ... Gauss-Chebyshev
Angular Grid (max. acc.)         AngularGrid ... Lebedev-50
Angular grid pruning method      GridPruning ... 3 (G Style)
Weight generation scheme         WeightScheme... Becke
Basis function cutoff            BFCut       ...    1.0000e-11
Integration weight cutoff        WCut        ...    1.0000e-14
Grids for H and He will be reduced by one unit

# of grid points (after initial pruning)     ...  73202 (   0.0 sec)
# of grid points (after weights+screening)   ...  65613 (   1.7 sec)
nearest neighbour list constructed           ...    0.0 sec
Grid point re-assignment to atoms done       ...    0.0 sec
Grid point division into batches done        ...    0.0 sec
Reduced shell lists constructed in    0.2 sec

Total number of grid points                  ...    65613
Total number of batches                      ...     1100
Average number of points per batch           ...       59
Average number of grid points per atom       ...      465
Average number of shells per batch           ...   114.49 (15.18%)
Average number of basis functions per batch  ...   244.13 (14.57%)
Average number of large shells per batch     ...    69.86 (61.02%)
Average number of large basis fcns per batch ...   153.30 (62.79%)
Maximum spatial batch extension              ...  15.02, 14.52, 22.00 au
Average spatial batch extension              ...   0.59,  0.63,  0.85 au

Overlap Fitting                  UseSFitting ... on
Constructing numerical overlap ... done (      0.1 sec)
Inverting numerical overlap    ... done (      0.1 sec)
Obtaining analytic overlap     ... done (      0.0 sec)
Final contraction and storage  ... done (      0.2 sec)


General Integration Accuracy     IntAcc      ...  3.670
Radial Grid Type                 RadialGrid  ... Gauss-Chebyshev
Angular Grid (max. acc.)         AngularGrid ... Lebedev-50
Angular grid pruning method      GridPruning ... 3 (G Style)
Weight generation scheme         WeightScheme... Becke
Basis function cutoff            BFCut       ...    1.0000e-11
Integration weight cutoff        WCut        ...    1.0000e-14
Grids for H and He will be reduced by one unit

# of grid points (after initial pruning)     ...  91138 (   0.0 sec)
# of grid points (after weights+screening)   ...  81385 (   2.1 sec)
nearest neighbour list constructed           ...    0.0 sec
Grid point re-assignment to atoms done       ...    0.0 sec
Grid point division into batches done        ...    0.0 sec
Reduced shell lists constructed in    0.3 sec

Total number of grid points                  ...    81385
Total number of batches                      ...     1341
Average number of points per batch           ...       60
Average number of grid points per atom       ...      577
Average number of shells per batch           ...   112.28 (14.89%)
Average number of basis functions per batch  ...   239.04 (14.26%)
Average number of large shells per batch     ...    68.95 (61.41%)
Average number of large basis fcns per batch ...   151.10 (63.21%)
Maximum spatial batch extension              ...  16.26, 16.19, 24.62 au
Average spatial batch extension              ...   0.56,  0.60,  0.81 au

Overlap Fitting                  UseSFitting ... on
Constructing numerical overlap ... done (      0.1 sec)
Inverting numerical overlap    ... done (      0.1 sec)
Obtaining analytic overlap     ... done (      0.0 sec)
Final contraction and storage  ... done (      0.2 sec)


General Integration Accuracy     IntAcc      ...  4.010
Radial Grid Type                 RadialGrid  ... Gauss-Chebyshev
Angular Grid (max. acc.)         AngularGrid ... Lebedev-110
Angular grid pruning method      GridPruning ... 3 (G Style)
Weight generation scheme         WeightScheme... Becke
Basis function cutoff            BFCut       ...    1.0000e-11
Integration weight cutoff        WCut        ...    1.0000e-14
Grids for H and He will be reduced by one unit

# of grid points (after initial pruning)     ... 178300 (   0.0 sec)
# of grid points (after weights+screening)   ... 157355 (   4.4 sec)
nearest neighbour list constructed           ...    0.0 sec
Grid point re-assignment to atoms done       ...    0.0 sec
Grid point division into batches done        ...    0.1 sec
Reduced shell lists constructed in    0.5 sec

Total number of grid points                  ...   157355
Total number of batches                      ...     2529
Average number of points per batch           ...       62
Average number of grid points per atom       ...     1116
Average number of shells per batch           ...   106.04 (14.06%)
Average number of basis functions per batch  ...   225.52 (13.46%)
Average number of large shells per batch     ...    65.81 (62.06%)
Average number of large basis fcns per batch ...   143.44 (63.61%)
Maximum spatial batch extension              ...  16.43, 16.75, 28.06 au
Average spatial batch extension              ...   0.47,  0.51,  0.66 au

Overlap Fitting                  UseSFitting ... on
Constructing numerical overlap ... done (      0.2 sec)
Inverting numerical overlap    ... done (      0.1 sec)
Obtaining analytic overlap     ... done (      0.0 sec)
Final contraction and storage  ... done (      0.2 sec)

Time for X-Grid setup             =   10.924 sec
--------------
SCF ITERATIONS
--------------
ITER       Energy         Delta-E        Max-DP      RMS-DP      [F,P]     Damp
               ***  Starting incremental Fock matrix formation  ***
  0  -8074.6797030091   0.000000000000 0.08001298  0.00089358  0.2362574 0.7000
  1  -8075.6322966533  -0.952593644157 0.04414091  0.00061714  0.0954450 0.7000
                               ***Turning on DIIS***
  2  -8076.0227505220  -0.390453868753 0.08703672  0.00108743  0.0420136 0.0000
  3  -8076.6354340847  -0.612683562707 0.04242658  0.00050759  0.0549780 0.0000
  4  -8076.7793498559  -0.143915771190 0.01728977  0.00013916  0.0215364 0.0000
  5  -8076.7878644294  -0.008514573525 0.00833399  0.00005607  0.0113623 0.0000
                      *** Initiating the SOSCF procedure ***
                           *** Shutting down DIIS ***
                      *** Re-Reading the Fockian *** 
                      *** Removing any level shift *** 
ITER      Energy       Delta-E        Grad      Rot      Max-DP    RMS-DP
  6  -8076.78964956  -0.0017851270  0.002116  0.002116  0.002887  0.000030
               *** Restarting incremental Fock matrix formation ***
  7  -8076.79012141  -0.0004718569  0.001535  0.008770  0.001807  0.000028
  8  -8076.79045206  -0.0003306469  0.000463  0.007470  0.002468  0.000029
  9  -8076.79046489  -0.0000128261  0.000976  0.002267  0.001450  0.000011
 10  -8076.79053435  -0.0000694654  0.000249  0.000810  0.000656  0.000006
 11  -8076.79053430   0.0000000485  0.000131  0.000502  0.000327  0.000003
 12  -8076.79053971  -0.0000054068  0.000031  0.000110  0.000158  0.000002
 13  -8076.79053953   0.0000001805  0.000029  0.000077  0.000091  0.000001
 14  -8076.79053997  -0.0000004448  0.000004  0.000020  0.000027  0.000000
 15  -8076.79054001  -0.0000000367  0.000004  0.000014  0.000014  0.000000
                  ***Gradient check signals convergence***
              ***Rediagonalizing the Fockian in SOSCF/NRSCF***

               *****************************************************
               *                     SUCCESS                       *
               *           SCF CONVERGED AFTER  16 CYCLES          *
               *****************************************************

Setting up the final grid:

General Integration Accuracy     IntAcc      ...  5.010
Radial Grid Type                 RadialGrid  ... Gauss-Chebyshev
Angular Grid (max. acc.)         AngularGrid ... Lebedev-434
Angular grid pruning method      GridPruning ... 3 (G Style)
Weight generation scheme         WeightScheme... Becke
Basis function cutoff            BFCut       ...    1.0000e-11
Integration weight cutoff        WCut        ...    1.0000e-14
Grids for H and He will be reduced by one unit

# of grid points (after initial pruning)     ... 1367292 (   0.1 sec)
# of grid points (after weights+screening)   ... 1167103 (  31.2 sec)
nearest neighbour list constructed           ...    0.0 sec
Grid point re-assignment to atoms done       ...    0.2 sec
Grid point division into batches done        ...    7.4 sec
Reduced shell lists constructed in    9.7 sec

[...]
   3   23085.8    433.2   0.350494940   4.99818  -0.38357   1.76269   1.32060
   4   24188.2    413.4   0.024480091   0.33318  -0.52427   0.09555  -0.22180
   5   24479.8    408.5   0.081609254   1.09750  -0.93853   0.44743  -0.12834
   6   24755.0    404.0   0.122685852   1.63157  -0.90047  -0.46846  -0.77541
   7   24987.5    400.2   0.189780028   2.50036  -0.58053  -1.05476  -1.02510
   8   25865.9    386.6   0.037840079   0.48162  -0.35008   0.55865   0.21672
   9   26068.0    383.6   0.052221463   0.65950   0.69128  -0.36397   0.22172
  10   26334.2    379.7   0.003637117   0.04547  -0.05750   0.19924   0.04967
  11   26791.9    373.2   0.041699345   0.51239  -0.34460  -0.42397  -0.46249
  12   27121.0    368.7   0.140683770   1.70771  -1.26605  -0.04659  -0.32041
  13   27196.9    367.7   0.138764316   1.67971  -1.00894   0.72054   0.37758
  14   27422.7    364.7   0.043711641   0.52476   0.64838   0.08662   0.31124
  15   28633.0    349.2   0.002220576   0.02553  -0.03061   0.10498   0.11650
  16   28758.4    347.7   0.032752328   0.37493   0.41682   0.40050   0.20198
  17   28884.6    346.2   0.004380366   0.04993  -0.20587  -0.01792  -0.08497
  18   29441.5    339.7   0.005957426   0.06662   0.18114  -0.18188  -0.02688
  19   29535.3    338.6   0.005306796   0.05915   0.24316  -0.00226  -0.00428
  20   29750.9    336.1   0.005402469   0.05978   0.19480  -0.14594   0.02319
  21   30120.6    332.0   0.004279465   0.04677  -0.00949  -0.11230  -0.18458
  22   30632.8    326.4   0.112920163   1.21356  -0.89304  -0.37892  -0.52198
  23   30853.6    324.1   0.017568982   0.18746  -0.09857   0.31224   0.28329
  24   30907.0    323.6   0.167985792   1.78933   0.27697   1.12381   0.67058
  25   31185.6    320.7   0.148898690   1.57185  -0.51024   1.06407   0.42341
  26   31304.3    319.4   0.029885564   0.31429   0.52434  -0.11984   0.15811
  27   31377.6    318.7   0.327074879   3.43165   1.28937  -1.31918  -0.17015
  28   31600.2    316.5   0.062264111   0.64867  -0.79758   0.08849  -0.06860
  29   31802.2    314.4   0.103539244   1.07182   0.91326  -0.46572   0.14450
  30   31991.2    312.6   0.576558933   5.93319   2.09102  -1.24778   0.06225
  31   32189.2    310.7   0.008575971   0.08771   0.05009   0.22565   0.18516
  32   32353.8    309.1   0.019468151   0.19810  -0.15869  -0.11624  -0.39925
  33   32831.9    304.6   0.479595751   4.80900  -1.62642  -1.19244  -0.86131
  34   33131.7    301.8   0.092721325   0.92132   0.93133   0.17158   0.15653
  35   33259.6    300.7   0.059532621   0.58927   0.55279  -0.52219   0.10491
  36   33381.3    299.6   0.015737666   0.15521   0.33211   0.13247   0.16541
  37   34235.0    292.1   0.164140979   1.57842  -0.02616   1.03657   0.70941
  38   34242.2    292.0   1.034690516   9.94773  -3.11600  -0.03278  -0.48702
  39   34612.0    288.9   0.046419444   0.44152  -0.64439   0.04630  -0.15537
  40   34789.4    287.4   0.023623021   0.22354  -0.22929  -0.33665  -0.24008
  41   34963.7    286.0   0.232189101   2.18625   0.25311   1.35407   0.53728
  42   35053.4    285.3   0.007061644   0.06632   0.08924  -0.22697  -0.08272
  43   35092.6    285.0   0.071580487   0.67151  -0.08851   0.77332   0.25623
  44   35178.8    284.3   0.057828771   0.54118  -0.67249   0.02935  -0.29677
  45   35366.3    282.8   0.008244295   0.07674  -0.16355  -0.15522  -0.16095
  46   35447.6    282.1   0.034305636   0.31861   0.16426  -0.44793  -0.30164
  47   35786.6    279.4   0.026806162   0.24660  -0.31732  -0.28704  -0.25202
  48   36056.3    277.3   0.085209181   0.77800  -0.79971   0.35393  -0.11490
  49   36411.4    274.6   0.000150787   0.00136  -0.01748   0.02647  -0.01890
  50   36687.8    272.6   0.005361910   0.04811   0.06648   0.15854   0.13623
  51   37367.0    267.6   0.004413955   0.03889  -0.12937   0.14883   0.00060
  52   37443.0    267.1   0.015252595   0.13411   0.02520   0.32335   0.17004
  53   37559.8    266.2   0.009634002   0.08444   0.05844   0.23800   0.15615
  54   37694.3    265.3   0.001792908   0.01566   0.09480   0.02789   0.07677
  55   37899.8    263.9   0.002419559   0.02102  -0.13962  -0.03757  -0.01062
  56   38035.1    262.9   0.048797235   0.42236  -0.25580  -0.49459  -0.33513
  57   38349.9    260.8   0.005807307   0.04985   0.06068  -0.17708  -0.12171
  58   38629.4    258.9   0.006038522   0.05146   0.15092   0.10752   0.13087
  59   38675.7    258.6   0.051007690   0.43418  -0.40708  -0.39348  -0.33712
  60   38813.0    257.6   0.009637733   0.08175  -0.23343   0.06742  -0.15070
  61   38908.5    257.0   0.059005443   0.49926   0.63069  -0.11410   0.29744
  62   38946.1    256.8   0.069460632   0.58715   0.57042   0.29974   0.41463
  63   38974.1    256.6   0.004181417   0.03532   0.07790  -0.16453   0.04669
  64   39019.6    256.3   0.037007043   0.31223   0.10480   0.49346   0.24030
  65   39088.6    255.8   0.011621096   0.09788   0.26273   0.10809   0.13101
  66   39107.3    255.7   0.025961512   0.21855  -0.02795   0.42560   0.19140
  67   39166.0    255.3   0.048864239   0.41073  -0.11190  -0.55253  -0.30483
  68   39305.7    254.4   0.017934293   0.15021   0.02692  -0.37775   0.08243
  69   39413.6    253.7   0.036242670   0.30273   0.36214   0.31216   0.27228
  70   39477.4    253.3   0.002115003   0.01764  -0.09699  -0.02145  -0.08815
  71   39581.9    252.6   0.073807624   0.61387  -0.07177  -0.69749  -0.34961
  72   39802.3    251.2   0.021963485   0.18166   0.07010   0.41140   0.08660
  73   39848.7    250.9   0.028315427   0.23393  -0.39252  -0.09517  -0.26608
  74   40081.6    249.5   0.074786952   0.61427  -0.16697  -0.59781  -0.47855

-----------------------------------------------------------------------------
         ABSORPTION SPECTRUM VIA TRANSITION VELOCITY DIPOLE MOMENTS
-----------------------------------------------------------------------------
State   Energy  Wavelength   fosc         P2         PX        PY        PZ  
        (cm-1)    (nm)                  (au**2)     (au)      (au)      (au) 
-----------------------------------------------------------------------------
   0   16303.8    613.4   0.709022821   0.07901   0.24790  -0.12928   0.02892
   1   16789.0    595.6   0.605878732   0.06952  -0.06691  -0.18727  -0.17313
   2   22559.0    443.3   2.441639086   0.37645   0.41429  -0.44720  -0.06950
   3   23085.8    433.2   0.343681200   0.05423  -0.03474   0.18243   0.14049
   4   24188.2    413.4   0.024858179   0.00411  -0.05843   0.00938  -0.02465
   5   24479.8    408.5   0.080990828   0.01355  -0.10489   0.04841  -0.01432
   6   24755.0    404.0   0.122091178   0.02066  -0.10238  -0.05103  -0.08700
   7   24987.5    400.2   0.187808911   0.03207  -0.06695  -0.11761  -0.11730
   8   25865.9    386.6   0.030969354   0.00547  -0.03984   0.05810   0.02263
   9   26068.0    383.6   0.047696339   0.00850   0.07868  -0.04066   0.02556
  10   26334.2    379.7   0.001879850   0.00034  -0.00355   0.01767   0.00368
  11   26791.9    373.2   0.039291594   0.00719  -0.03846  -0.05204  -0.05484
  12   27121.0    368.7   0.132874989   0.02463  -0.15223  -0.00680  -0.03754
  13   27196.9    367.7   0.129642731   0.02410  -0.12153   0.08567   0.04460
  14   27422.7    364.7   0.043118228   0.00808   0.07825   0.01393   0.04199
  15   28633.0    349.2   0.002162851   0.00042   0.00113   0.01142   0.01708
  16   28758.4    347.7   0.033868779   0.00666   0.05430   0.05403   0.02809
  17   28884.6    346.2   0.006425769   0.00127  -0.03313  -0.00222  -0.01289
  18   29441.5    339.7   0.006304158   0.00127   0.02693  -0.02321  -0.00219
  19   29535.3    338.6   0.003995925   0.00081   0.02829   0.00190   0.00165
  20   29750.9    336.1   0.004098071   0.00083   0.02261  -0.01770   0.00295
  21   30120.6    332.0   0.003282142   0.00068   0.00033  -0.01319  -0.02240
  22   30632.8    326.4   0.106214811   0.02224  -0.11678  -0.05805  -0.07231
  23   30853.6    324.1   0.014157046   0.00299  -0.00978   0.04011   0.03578
  24   30907.0    323.6   0.154485869   0.03263   0.03856   0.15203   0.08962
  25   31185.6    320.7   0.133029928   0.02835  -0.06337   0.14396   0.06012
  26   31304.3    319.4   0.027405902   0.00586   0.07172  -0.01612   0.02143
  27   31377.6    318.7   0.290691723   0.06234   0.17059  -0.18069  -0.02421
  28   31600.2    316.5   0.057981133   0.01252  -0.11060   0.01002  -0.01376
  29   31802.2    314.4   0.095490137   0.02075   0.12807  -0.06219   0.02207
  30   31991.2    312.6   0.522070632   0.11415   0.29244  -0.16878   0.01185
  31   32189.2    310.7   0.007347832   0.00162   0.00765   0.02979   0.02590
  32   32353.8    309.1   0.020372010   0.00450  -0.02370  -0.02013  -0.05948
  33   32831.9    304.6   0.421295306   0.09453  -0.22818  -0.16808  -0.11924
  34   33131.7    301.8   0.080473130   0.01822   0.13090   0.02332   0.02332
  35   33259.6    300.7   0.047892754   0.01089   0.07541  -0.07110   0.01201
  36   33381.3    299.6   0.014719425   0.00336   0.04748   0.02096   0.02578
  37   34235.0    292.1   0.144322989   0.03377  -0.00446   0.15175   0.10354
  38   34242.2    292.0   0.924694195   0.21641  -0.45943  -0.00503  -0.07286
  39   34612.0    288.9   0.040425584   0.00956  -0.09492   0.00699  -0.02246
  40   34789.4    287.4   0.021412407   0.00509  -0.03441  -0.05074  -0.03650
  41   34963.7    286.0   0.208209086   0.04975   0.04154   0.20310   0.08233
  42   35053.4    285.3   0.006579469   0.00158   0.01359  -0.03503  -0.01282
  43   35092.6    285.0   0.063501256   0.01523  -0.01464   0.11683   0.03697
  44   35178.8    284.3   0.050388834   0.01211  -0.10120   0.00733  -0.04266
  45   35366.3    282.8   0.007014995   0.00170  -0.02383  -0.02346  -0.02403
  46   35447.6    282.1   0.033717380   0.00817   0.02706  -0.07197  -0.04751
  47   35786.6    279.4   0.023027714   0.00563  -0.04560  -0.04565  -0.03832
  48   36056.3    277.3   0.069316692   0.01708  -0.11851   0.05297  -0.01520
  49   36411.4    274.6   0.000092757   0.00002  -0.00201   0.00269  -0.00344
  50   36687.8    272.6   0.004654316   0.00117   0.01145   0.02449   0.02088
  51   37367.0    267.6   0.003488369   0.00089  -0.01933   0.02274  -0.00058
  52   37443.0    267.1   0.012150555   0.00311   0.00635   0.04881   0.02620
  53   37559.8    266.2   0.007294158   0.00187   0.01091   0.03492   0.02311
  54   37694.3    265.3   0.001411249   0.00036   0.01323   0.00668   0.01200
  55   37899.8    263.9   0.002140331   0.00055  -0.02303  -0.00491   0.00029
  56   38035.1    262.9   0.039714885   0.01032  -0.04260  -0.07659  -0.05142
  57   38349.9    260.8   0.005560301   0.00146   0.00513  -0.02956  -0.02361
  58   38629.4    258.9   0.004704855   0.00124   0.02290   0.01699   0.02072
  59   38675.7    258.6   0.042168866   0.01115  -0.06377  -0.06408  -0.05453
  60   38813.0    257.6   0.007791043   0.00207  -0.03762   0.01350  -0.02166
  61   38908.5    257.0   0.051290126   0.01364   0.10468  -0.01644   0.04909
  62   38946.1    256.8   0.054567824   0.01452   0.08882   0.04901   0.06507
  63   38974.1    256.6   0.003302867   0.00088   0.01094  -0.02689   0.00608
  64   39019.6    256.3   0.031880241   0.00850   0.01701   0.08188   0.03883
  65   39088.6    255.8   0.009055248   0.00242   0.04041   0.01956   0.02008
  66   39107.3    255.7   0.019923965   0.00533  -0.00199   0.06573   0.03164
  67   39166.0    255.3   0.040166240   0.01075  -0.01846  -0.08988  -0.04829
  68   39305.7    254.4   0.014214098   0.00382   0.00391  -0.06055   0.01169
  69   39413.6    253.7   0.032239830   0.00868   0.06220   0.05206   0.04588
  70   39477.4    253.3   0.002110919   0.00057  -0.01776  -0.00516  -0.01509
  71   39581.9    252.6   0.058014774   0.01569  -0.01079  -0.11181  -0.05546
  72   39802.3    251.2   0.015425463   0.00420   0.00805   0.06303   0.01260
  73   39848.7    250.9   0.021821133   0.00594  -0.06339  -0.01507  -0.04120
  74   40081.6    249.5   0.058664059   0.01607  -0.02636  -0.09755  -0.07655

-------------------------------------------------------------------
                             CD SPECTRUM
-------------------------------------------------------------------
State   Energy Wavelength       R         MX        MY        MZ   
        (cm-1)   (nm)       (1e40*cgs)   (au)      (au)      (au)  
-------------------------------------------------------------------
   0   16303.8    613.4    -175.72020  -0.20048  -0.25334   2.61725
   1   16789.0    595.6    139.47133   4.21529   2.76457  -4.35103
   2   22559.0    443.3    -210.86289   0.26052  -0.73558   5.00429
   3   23085.8    433.2     53.25666  -2.82744  -1.19133   0.59784
   4   24188.2    413.4      6.45333   0.21843  -0.01339  -0.39865
   5   24479.8    408.5    -33.24547  -0.22887  -0.29367  -0.44907
   6   24755.0    404.0     49.17299   1.77752   1.15160  -2.49090
   7   24987.5    400.2     73.60106   2.78883   1.91597  -3.24616
   8   25865.9    386.6     12.40479  -0.29851  -0.02088  -0.67122
   9   26068.0    383.6      3.08548  -0.97236  -0.72636   1.78023
  10   26334.2    379.7     -6.38265   0.17859   0.20455  -0.06862
  11   26791.9    373.2     -2.63897   1.63463   1.37256  -2.50039
  12   27121.0    368.7    -49.92493   0.29156   0.54379  -1.89215
  13   27196.9    367.7     57.08656  -0.71472   1.00433  -4.46773
  14   27422.7    364.7     29.13035  -0.45502  -0.33487   0.64404
  15   28633.0    349.2     -8.86097  -0.42613  -0.24093   0.42780
  16   28758.4    347.7    -14.65983   0.04823  -0.00850   0.22525
  17   28884.6    346.2      1.34780   0.46068   0.57054  -1.16917
  18   29441.5    339.7     -0.94397  -0.15363  -0.29194   0.79105
  19   29535.3    338.6      5.43757  -0.07297  -0.53589   1.52435
  20   29750.9    336.1      2.14290  -0.07161  -0.02504   0.05193
  21   30120.6    332.0     -7.22567   0.61532   0.25963  -0.35565
  22   30632.8    326.4     -3.24603   0.67481   0.19632  -1.32340
  23   30853.6    324.1    -23.40498  -0.98645  -0.33449   0.37594
  24   30907.0    323.6    135.54008  -0.92517  -0.63206   0.58390
  25   31185.6    320.7    -86.48795  -0.64973   0.33004  -0.74583
  26   31304.3    319.4     24.99536  -0.79864  -0.54934   1.56153
  27   31377.6    318.7     24.34454  -0.84233  -1.08802   2.65940
  28   31600.2    316.5      9.37728   0.49657   1.05770  -3.82926
  29   31802.2    314.4    -33.22266  -1.18705  -1.41981   3.90162
  30   31991.2    312.6    -32.60213  -2.31600  -3.51071   9.64679
  31   32189.2    310.7     44.32465   0.50907   1.11752  -2.51521
  32   32353.8    309.1     15.13530   2.03931   1.06207  -0.95896
  33   32831.9    304.6    -22.37924   1.43008   2.59039  -6.39691
  34   33131.7    301.8    216.29795  -1.78160  -3.32229   8.37979
  35   33259.6    300.7    -235.47317  -1.34500  -2.24544   5.43237
  36   33381.3    299.6      0.68322  -0.10692  -0.65464   0.72140
  37   34235.0    292.1    770.46154   0.48877   3.44425  -9.62200
  38   34242.2    292.0    -746.94482   0.72726   3.95959 -11.42611
  39   34612.0    288.9    -20.92008   0.38682   0.67306  -1.97498
  40   34789.4    287.4     23.86730   0.35650   0.04635   0.01627
  41   34963.7    286.0     13.48156   0.01817   0.12053  -0.41877
  42   35053.4    285.3      2.61479   0.01760  -0.21406   0.74043
  43   35092.6    285.0     49.77556  -0.39446  -1.04846   2.20398
  44   35178.8    284.3    -17.35681   0.74486   0.59707  -1.87697
  45   35366.3    282.8      0.62946   0.41650   0.34965  -0.74385
  46   35447.6    282.1    -23.72055   1.37268   0.94451  -0.98872
  47   35786.6    279.4      6.17140   0.64797   0.71985  -1.53184
  48   36056.3    277.3    -39.85443   1.13227   1.68464  -4.16273
  49   36411.4    274.6      2.09114  -0.02576  -0.11675   0.32977
  50   36687.8    272.6      0.41058  -0.39049  -0.21126   0.42366
  51   37367.0    267.6      1.97524   0.21955   0.13671  -0.53663
  52   37443.0    267.1      8.84893  -0.06469   0.06392  -0.33273
  53   37559.8    266.2      1.75434  -0.09665   0.13521  -0.21757
  54   37694.3    265.3     -0.95468  -0.51006  -0.58596   0.89554
  55   37899.8    263.9      0.02950  -0.00922   0.48684  -1.58857
  56   38035.1    262.9     18.16571  -0.00201  -0.44538   0.88878
  57   38349.9    260.8    -10.71844   0.37928  -0.26079   0.19493
  58   38629.4    258.9     -9.60317  -0.91229  -1.12973   2.29150
  59   38675.7    258.6      8.36864   1.43745   1.72096  -3.63911
  60   38813.0    257.6      7.06561   0.32677  -0.09555  -0.35001
  61   38908.5    257.0    -72.80190  -2.06092  -2.12635   4.59266
  62   38946.1    256.8    -24.14091  -2.33949  -3.04012   5.66323
  63   38974.1    256.6    -30.26036  -0.76388  -0.72765   1.45979
  64   39019.6    256.3     36.14735  -0.37947  -0.51198   0.57872
  65   39088.6    255.8      4.29150  -0.65399  -1.20216   2.16452
  66   39107.3    255.7     44.05779  -1.22063  -1.54870   2.28901
  67   39166.0    255.3     18.23729  -0.07260  -0.50827   1.20177
  68   39305.7    254.4    -23.36818  -1.01176  -0.16789   0.76369
  69   39413.6    253.7      8.35434  -0.44078  -0.23240   0.72251
  70   39477.4    253.3      6.72444   0.34385   0.03703  -0.06373
  71   39581.9    252.6     23.06080   0.47796   0.21789  -0.25299
  72   39802.3    251.2    -13.18931   0.56194  -0.02374   0.30404
  73   39848.7    250.9     20.05366   0.55146  -0.07763  -0.46603
  74   40081.6    249.5     44.52926   1.48683   1.10329  -1.50224

sTD-DFT done

Total run time:        8.619 sec

           *** ORCA-CIS/TD-DFT FINISHED WITHOUT ERROR ***

-------------------------   --------------------
FINAL SINGLE POINT ENERGY     -8076.785088414860
-------------------------   --------------------


                            ***************************************
                            *     ORCA property calculations      *
                            ***************************************

                                    ---------------------
                                    Active property flags
                                    ---------------------
   (+) Dipole Moment


------------------------------------------------------------------------------
                       ORCA ELECTRIC PROPERTIES CALCULATION
------------------------------------------------------------------------------

Dipole Moment Calculation                       ... on
Quadrupole Moment Calculation                   ... off
Polarizability Calculation                      ... off
GBWName                                         ... 90_30_6_30_90.gbw
Electron density file                           ... 90_30_6_30_90.scfp
The origin for moment calculation is the CENTER OF MASS  = (-8.311925, 27.209053  7.863558)

-------------
DIPOLE MOMENT
-------------
                                X             Y             Z
Electronic contribution:    -12.82445     -14.19721     -22.55260
Nuclear contribution   :     10.31370      14.04311      21.14945
                        -----------------------------------------
Total Dipole Moment    :     -2.51075      -0.15410      -1.40315
                        -----------------------------------------
Magnitude (a.u.)       :      2.88035
Magnitude (Debye)      :      7.32128



--------------------
Rotational spectrum 
--------------------
 
Rotational constants in cm-1:     0.000873     0.000102     0.000092 
Rotational constants in MHz :    26.183270     3.067999     2.766002 

 Dipole components along the rotational axes: 
x,y,z [a.u.] :     1.286369     2.574375     0.119517 
x,y,z [Debye]:     3.269690     6.543541     0.303789 

 

Timings for individual modules:

Sum of individual times         ...     1102.000 sec (=  18.367 min)
GTO integral calculation        ...        5.242 sec (=   0.087 min)   0.5 %
SCF iterations                  ...     1087.391 sec (=  18.123 min)  98.7 %
CIS module                      ...        9.367 sec (=   0.156 min)   0.8 %
                             ****ORCA TERMINATED NORMALLY****
TOTAL RUN TIME: 0 days 0 hours 18 minutes 23 seconds 280 msec
