
                                 *****************
                                 * O   R   C   A *
                                 *****************

           --- An Ab Initio, DFT and Semiempirical electronic structure package ---

                  #######################################################
                  #                        -***-                        #
                  #          Department of theory and spectroscopy      #
                  #               Directorship: Frank Neese             #
                  #        Max Planck Institute fuer Kohlenforschung    #
                  #                Kaiser Wilhelm Platz 1               #
                  #                 D-45470 Muelheim/Ruhr               #
                  #                      Germany                        #
                  #                                                     #
                  #                  All rights reserved                #
                  #                        -***-                        #
                  #######################################################


                         Program Version 4.2.0 -  RELEASE  -


 With contributions from (in alphabetic order):
   Daniel Aravena         : Magnetic Suceptibility
   Michael Atanasov       : Ab Initio Ligand Field Theory (pilot matlab implementation)
   Alexander A. Auer      : GIAO ZORA, VPT2
   Ute Becker             : Parallelization
   Giovanni Bistoni       : ED, misc. LED, open-shell LED, HFLED
   Martin Brehm           : Molecular dynamics
   Dmytro Bykov           : SCF Hessian
   Vijay G. Chilkuri      : MRCI spin determinant printing, contributions to CSF-ICE
   Dipayan Datta          : RHF DLPNO-CCSD density
   Achintya Kumar Dutta   : EOM-CC, STEOM-CC
   Dmitry Ganyushin       : Spin-Orbit,Spin-Spin,Magnetic field MRCI
   Miquel Garcia          : C-PCM Hessian, Gaussian charge scheme
   Yang Guo               : DLPNO-NEVPT2, CIM, IAO-localization
   Andreas Hansen         : Spin unrestricted coupled pair/coupled cluster methods
   Benjamin Helmich-Paris : CASSCF linear response (MC-RPA)
   Lee Huntington         : MR-EOM, pCC
   Robert Izsak           : Overlap fitted RIJCOSX, COSX-SCS-MP3, EOM
   Christian Kollmar      : KDIIS, OOCD, Brueckner-CCSD(T), CCSD density
   Simone Kossmann        : Meta GGA functionals, TD-DFT gradient, OOMP2, MP2 Hessian
   Martin Krupicka        : AUTO-CI
   Lucas Lang             : DCDCAS
   Dagmar Lenk            : GEPOL surface, SMD
   Dimitrios Liakos       : Extrapolation schemes; Compound Job, initial MDCI parallelization
   Dimitrios Manganas     : Further ROCIS development; embedding schemes
   Dimitrios Pantazis     : SARC Basis sets
   Taras Petrenko         : DFT Hessian,TD-DFT gradient, ASA, ECA, R-Raman, ABS, FL, XAS/XES, NRVS
   Peter Pinski           : DLPNO-MP2, DLPNO-MP2 Gradient
   Christoph Reimann      : Effective Core Potentials
   Marius Retegan         : Local ZFS, SOC
   Christoph Riplinger    : Optimizer, TS searches, QM/MM, DLPNO-CCSD(T), (RO)-DLPNO pert. Triples
   Tobias Risthaus        : Range-separated hybrids, TD-DFT gradient, RPA, STAB
   Michael Roemelt        : Original ROCIS implementation
   Masaaki Saitow         : Open-shell DLPNO-CCSD energy and density
   Barbara Sandhoefer     : DKH picture change effects
   Avijit Sen             : IP-ROCIS
   Kantharuban Sivalingam : CASSCF convergence, NEVPT2, FIC-MRCI
   Bernardo de Souza      : ESD, SOC TD-DFT
   Georgi Stoychev        : AutoAux, RI-MP2 NMR
   Willem Van den Heuvel  : Paramagnetic NMR
   Boris Wezisla          : Elementary symmetry handling
   Frank Wennmohs         : Technical directorship


 We gratefully acknowledge several colleagues who have allowed us to
 interface, adapt or use parts of their codes:
   Stefan Grimme, W. Hujo, H. Kruse,             : VdW corrections, initial TS optimization,
                  C. Bannwarth                     DFT functionals, gCP, sTDA/sTD-DF
   Ed Valeev, F. Pavosevic, A. Kumar             : LibInt (2-el integral package), F12 methods
   Garnet Chan, S. Sharma, J. Yang, R. Olivares  : DMRG
   Ulf Ekstrom                                   : XCFun DFT Library
   Mihaly Kallay                                 : mrcc  (arbitrary order and MRCC methods)
   Andreas Klamt, Michael Diedenhofen            : otool_cosmo (COSMO solvation model)
   Jiri Pittner, Ondrej Demel                    : Mk-CCSD
   Frank Weinhold                                : gennbo (NPA and NBO analysis)
   Christopher J. Cramer and Donald G. Truhlar   : smd solvation model
   Lars Goerigk                                  : TD-DFT with DH, B97 family of functionals
   V. Asgeirsson, H. Jonsson                     : NEB implementation
   FAccTs GmbH                                   : IRC, NEB, NEB-TS, Multilevel, MM, QM/MM, CI optimization
   S Lehtola, MJT Oliveira, MAL Marques          : LibXC Library


 Your calculation uses the libint2 library for the computation of 2-el integrals
 For citations please refer to: http://libint.valeyev.net

 Your ORCA version has been built with support for libXC version: 4.2.3
 For citations please refer to: https://tddft.org/programs/libxc/

 This ORCA versions uses:
   CBLAS   interface :  Fast vector & matrix operations
   LAPACKE interface :  Fast linear algebra routines
   SCALAPACK package :  Parallel linear algebra routines


XCFun DFT library Copyright 2009-2010 Ulf Ekstrom and contributors.
See http://admol.org/xcfun for more information. This is free soft-
ware; see the source code for copying conditions. There is ABSOLUTELY
NO WARRANTY; not even for MERCHANTABILITY or FITNESS FOR A PARTICULAR
PURPOSE. For details see the documentation. Scientific users of this 
library should cite U. Ekstrom, L. Visscher, R. Bast, A. J. Thorvald-
sen and K. Ruud; J.Chem.Theor.Comp. 2010, DOI: 10.1021/ct100117s
XCFun Version 0.99 
----- Orbital basis set information -----
Your calculation utilizes the basis: def2-SVP
   F. Weigend and R. Ahlrichs, Phys. Chem. Chem. Phys. 7, 3297 (2005).

----- AuxJ basis set information -----
Your calculation utilizes the auxiliary basis: def2/J
   F. Weigend, Phys. Chem. Chem. Phys. 8, 1057 (2006).

================================================================================
                                        WARNINGS
                       Please study these warnings very carefully!
================================================================================

INFO   : Checking CIS options ...

WARNING: CIS/ROCIS methods need fully converged wavefunctions
  ===> : Setting SCFConvForced true
         You can overwrite this default with %scf ConvForced false 


INFO   : the flag for use of LIBINT has been found!

================================================================================
                                       INPUT FILE
================================================================================
NAME = xtbopt.inp
|  1> # ORCA input file
|  2> # SCF done       -154.066222488261          0.000534098252
|  3> ! CAM-B3LYP def2-SVP def2/J RIJCOSX Grid4 TightSCF
|  4> %maxcore 5000
|  5> %tddft
|  6>     Mode sTDDFT
|  7>     Ethresh 5.0
|  8>     maxcore 5000
|  9> end
| 10> 
| 11> %pal
| 12>   nprocs 6
| 13>   end
| 14> * xyz 0 1
| 15>    C       -0.81175        -2.75399         3.46447
| 16>    C       -2.02050        -2.60020         4.06781
| 17>    S       -2.09076        -3.47259         5.55658
| 18>    C       -0.45367        -4.05893         5.36351
| 19>   Cl        0.26485        -5.06735         6.51961
| 20>    C        0.08544        -3.58888         4.20504
| 21>    C        1.35708        -3.70003         3.48312
| 22>    O        2.34421        -4.32360         3.82214
| 23>    C        1.18372        -2.89009         2.26356
| 24>    C       -0.14312        -2.30344         2.25757
| 25>    C       -0.71562        -1.46402         1.33394
| 26>    C       -2.02990        -0.97979         1.49901
| 27>    N       -3.09720        -0.57324         1.61115
| 28>    C       -0.10924        -0.97720         0.16355
| 29>    N        0.33157        -0.53229        -0.80114
| 30>    C        2.12702        -2.69691         1.28306
| 31>    C        3.41741        -3.22273         1.13974
| 32>    S        4.14969        -4.42462         2.16661
| 33>    C        5.50082        -4.59079         1.10394
| 34>    C        5.42541        -3.72308         0.01358
| 35>    C        4.26000        -2.92792         0.04671
| 36>    O        4.00025        -2.01185        -0.91958
| 37>    C        3.61375        -0.69054        -0.55926
| 38>    O        6.40320        -3.72882        -0.92046
| 39>    C        6.34380        -2.85920        -2.03253
| 40>    C        6.54936        -5.52938         1.43499
| 41>    C        7.77063        -5.57344         0.76007
| 42>    C        8.74146        -6.49639         1.15031
| 43>    C        8.42580        -7.35337         2.21328
| 44>    N        7.26869        -7.33371         2.84126
| 45>    C        6.35876        -6.45710         2.47233
| 46>    C       10.03296        -6.57103         0.50670
| 47>    S       11.04428        -7.95144         0.76438
| 48>    C       12.30092        -7.31946        -0.27525
| 49>    C       11.93260        -6.08055        -0.78121
| 50>    C       10.64991        -5.64978        -0.31747
| 51>    O       10.03536        -4.48699        -0.64050
| 52>    C       10.82744        -3.32617        -0.82795
| 53>    O       12.64227        -5.25260        -1.57104
| 54>    C       13.99211        -5.52078        -1.88003
| 55>    C       13.43953        -8.13043        -0.53392
| 56>    C       14.01613        -9.02361         0.31618
| 57>    C       14.87302       -10.11523        -0.23292
| 58>    O       15.29644       -10.19807        -1.36200
| 59>    C       15.02863       -11.05132         0.88841
| 60>    C       15.58757       -12.27459         1.10453
| 61>    S       15.36122       -12.76841         2.76704
| 62>    C       14.52221       -11.30933         3.15265
| 63>    C       14.41871       -10.50164         2.06510
| 64>    C       13.90013        -9.18415         1.75230
| 65>    C       13.61106        -8.21392         2.67677
| 66>    C       13.60285        -8.48899         4.05837
| 67>    N       13.58582        -8.70594         5.18489
| 68>    C       13.40902        -6.86259         2.34068
| 69>    N       13.31162        -5.74867         2.07729
| 70>   Cl       16.41113       -13.25951        -0.00086
| 71>    H       -2.87625        -2.03915         3.74890
| 72>    H        1.81896        -2.06672         0.46000
| 73>    H        4.29776        -0.00987        -1.07243
| 74>    H        3.68205        -0.52680         0.51708
| 75>    H        2.59628        -0.48864        -0.90355
| 76>    H        5.42037        -2.98904        -2.59872
| 77>    H        7.19808        -3.13817        -2.64857
| 78>    H        6.44103        -1.81370        -1.72999
| 79>    H        7.96741        -4.90192        -0.05478
| 80>    H        9.14546        -8.08063         2.56858
| 81>    H        5.42528        -6.49014         3.01864
| 82>    H       11.59596        -3.24269        -0.05731
| 83>    H       10.13234        -2.49160        -0.74215
| 84>    H       11.29486        -3.31579        -1.81433
| 85>    H       14.41532        -4.56450        -2.18785
| 86>    H       14.07716        -6.22934        -2.70728
| 87>    H       14.53244        -5.89766        -1.00811
| 88>    H       13.83242        -8.14818        -1.54393
| 89>    H       14.15787       -11.15646         4.14912
| 90> *
| 91> 
| 92>                          ****END OF INPUT****
================================================================================

                       ****************************
                       * Single Point Calculation *
                       ****************************

---------------------------------
CARTESIAN COORDINATES (ANGSTROEM)
---------------------------------
  C     -0.811750   -2.753990    3.464470
  C     -2.020500   -2.600200    4.067810
  S     -2.090760   -3.472590    5.556580
  C     -0.453670   -4.058930    5.363510
  Cl     0.264850   -5.067350    6.519610
  C      0.085440   -3.588880    4.205040
  C      1.357080   -3.700030    3.483120
  O      2.344210   -4.323600    3.822140
  C      1.183720   -2.890090    2.263560
  C     -0.143120   -2.303440    2.257570
  C     -0.715620   -1.464020    1.333940
  C     -2.029900   -0.979790    1.499010
  N     -3.097200   -0.573240    1.611150
  C     -0.109240   -0.977200    0.163550
  N      0.331570   -0.532290   -0.801140
  C      2.127020   -2.696910    1.283060
  C      3.417410   -3.222730    1.139740
  S      4.149690   -4.424620    2.166610
  C      5.500820   -4.590790    1.103940
  C      5.425410   -3.723080    0.013580
  C      4.260000   -2.927920    0.046710
  O      4.000250   -2.011850   -0.919580
  C      3.613750   -0.690540   -0.559260
  O      6.403200   -3.728820   -0.920460
  C      6.343800   -2.859200   -2.032530
  C      6.549360   -5.529380    1.434990
  C      7.770630   -5.573440    0.760070
  C      8.741460   -6.496390    1.150310
  C      8.425800   -7.353370    2.213280
  N      7.268690   -7.333710    2.841260
  C      6.358760   -6.457100    2.472330
  C     10.032960   -6.571030    0.506700
  S     11.044280   -7.951440    0.764380
  C     12.300920   -7.319460   -0.275250
  C     11.932600   -6.080550   -0.781210
  C     10.649910   -5.649780   -0.317470
  O     10.035360   -4.486990   -0.640500
  C     10.827440   -3.326170   -0.827950
  O     12.642270   -5.252600   -1.571040
  C     13.992110   -5.520780   -1.880030
  C     13.439530   -8.130430   -0.533920
  C     14.016130   -9.023610    0.316180
  C     14.873020  -10.115230   -0.232920
  O     15.296440  -10.198070   -1.362000
  C     15.028630  -11.051320    0.888410
  C     15.587570  -12.274590    1.104530
  S     15.361220  -12.768410    2.767040
  C     14.522210  -11.309330    3.152650
  C     14.418710  -10.501640    2.065100
  C     13.900130   -9.184150    1.752300
  C     13.611060   -8.213920    2.676770
  C     13.602850   -8.488990    4.058370
  N     13.585820   -8.705940    5.184890
  C     13.409020   -6.862590    2.340680
  N     13.311620   -5.748670    2.077290
  Cl    16.411130  -13.259510   -0.000860
  H     -2.876250   -2.039150    3.748900
  H      1.818960   -2.066720    0.460000
  H      4.297760   -0.009870   -1.072430
  H      3.682050   -0.526800    0.517080
  H      2.596280   -0.488640   -0.903550
  H      5.420370   -2.989040   -2.598720
  H      7.198080   -3.138170   -2.648570
  H      6.441030   -1.813700   -1.729990
  H      7.967410   -4.901920   -0.054780
  H      9.145460   -8.080630    2.568580
  H      5.425280   -6.490140    3.018640
  H     11.595960   -3.242690   -0.057310
  H     10.132340   -2.491600   -0.742150
  H     11.294860   -3.315790   -1.814330
  H     14.415320   -4.564500   -2.187850
  H     14.077160   -6.229340   -2.707280
  H     14.532440   -5.897660   -1.008110
  H     13.832420   -8.148180   -1.543930
  H     14.157870  -11.156460    4.149120

----------------------------
CARTESIAN COORDINATES (A.U.)
----------------------------
  NO LB      ZA    FRAG     MASS         X           Y           Z
   0 C     6.0000    0    12.011   -1.533985   -5.204287    6.546899
   1 C     6.0000    0    12.011   -3.818192   -4.913666    7.687047
   2 S    16.0000    0    32.060   -3.950964   -6.562244   10.500414
   3 C     6.0000    0    12.011   -0.857312   -7.670266   10.135565
   4 Cl   17.0000    0    35.453    0.500494   -9.575904   12.320277
   5 C     6.0000    0    12.011    0.161458   -6.782000    7.946374
   6 C     6.0000    0    12.011    2.564510   -6.992043    6.582143
   7 O     8.0000    0    15.999    4.429915   -8.170420    7.222798
   8 C     6.0000    0    12.011    2.236907   -5.461479    4.277508
   9 C     6.0000    0    12.011   -0.270458   -4.352871    4.266189
  10 C     6.0000    0    12.011   -1.352326   -2.766597    2.520781
  11 C     6.0000    0    12.011   -3.835955   -1.851535    2.832718
  12 N     7.0000    0    14.007   -5.852860   -1.083267    3.044632
  13 C     6.0000    0    12.011   -0.206434   -1.846640    0.309065
  14 N     7.0000    0    14.007    0.626576   -1.005882   -1.513935
  15 C     6.0000    0    12.011    4.019485   -5.096421    2.424632
  16 C     6.0000    0    12.011    6.457969   -6.090077    2.153796
  17 S    16.0000    0    32.060    7.841778   -8.361320    4.094300
  18 C     6.0000    0    12.011   10.395043   -8.675336    2.086144
  19 C     6.0000    0    12.011   10.252539   -7.035602    0.025662
  20 C     6.0000    0    12.011    8.050233   -5.532967    0.088269
  21 O     8.0000    0    15.999    7.559377   -3.801846   -1.737754
  22 C     6.0000    0    12.011    6.828998   -1.304931   -1.056848
  23 O     8.0000    0    15.999   12.100294   -7.046449   -1.739417
  24 C     6.0000    0    12.011   11.988045   -5.403105   -3.840925
  25 C     6.0000    0    12.011   12.376497  -10.449014    2.711738
  26 C     6.0000    0    12.011   14.684363  -10.532275    1.436324
  27 C     6.0000    0    12.011   16.518965  -12.276398    2.173771
  28 C     6.0000    0    12.011   15.922454  -13.895855    4.182493
  29 N     7.0000    0    14.007   13.735833  -13.858703    5.369203
  30 C     6.0000    0    12.011   12.016315  -12.202151    4.672027
  31 C     6.0000    0    12.011   18.959547  -12.417447    0.957524
  32 S    16.0000    0    32.060   20.870665  -15.026044    1.444469
  33 C     6.0000    0    12.011   23.245370  -13.831775   -0.520147
  34 C     6.0000    0    12.011   22.549346  -11.490574   -1.476273
  35 C     6.0000    0    12.011   20.125413  -10.676537   -0.599931
  36 O     8.0000    0    15.999   18.964082   -8.479182   -1.210370
  37 C     6.0000    0    12.011   20.460896   -6.285550   -1.564599
  38 O     8.0000    0    15.999   23.890428   -9.925975   -2.968835
  39 C     6.0000    0    12.011   26.441256  -10.432762   -3.552742
  40 C     6.0000    0    12.011   25.397031  -15.364286   -1.008963
  41 C     6.0000    0    12.011   26.486647  -17.052152    0.597494
  42 C     6.0000    0    12.011   28.105935  -19.115014   -0.440155
  43 O     8.0000    0    15.999   28.906082  -19.271559   -2.573807
  44 C     6.0000    0    12.011   28.399995  -20.883968    1.678852
  45 C     6.0000    0    12.011   29.456238  -23.195614    2.087259
  46 S    16.0000    0    32.060   29.028499  -24.128798    5.228948
  47 C     6.0000    0    12.011   27.443000  -21.371536    5.957645
  48 C     6.0000    0    12.011   27.247413  -19.845224    3.902473
  49 C     6.0000    0    12.011   26.267439  -17.355528    3.311367
  50 C     6.0000    0    12.011   25.721176  -15.522059    5.058362
  51 C     6.0000    0    12.011   25.705661  -16.041866    7.669208
  52 N     7.0000    0    14.007   25.673479  -16.451842    9.798022
  53 C     6.0000    0    12.011   25.339376  -12.968416    4.423244
  54 N     7.0000    0    14.007   25.155316  -10.863412    3.925509
  55 Cl   17.0000    0    35.453   31.012541  -25.056843   -0.001625
  56 H     1.0000    0     1.008   -5.435325   -3.853435    7.084394
  57 H     1.0000    0     1.008    3.437336   -3.905535    0.869274
  58 H     1.0000    0     1.008    8.121589   -0.018652   -2.026599
  59 H     1.0000    0     1.008    6.958066   -0.995508    0.977140
  60 H     1.0000    0     1.008    4.906258   -0.923396   -1.707462
  61 H     1.0000    0     1.008   10.243015   -5.648467   -4.910869
  62 H     1.0000    0     1.008   13.602400   -5.930282   -5.005072
  63 H     1.0000    0     1.008   12.171783   -3.427396   -3.269207
  64 H     1.0000    0     1.008   15.056223   -9.263286   -0.103519
  65 H     1.0000    0     1.008   17.282415  -15.270178    4.853913
  66 H     1.0000    0     1.008   10.252293  -12.264587    5.704403
  67 H     1.0000    0     1.008   21.913189   -6.127796   -0.108300
  68 H     1.0000    0     1.008   19.147348   -4.708442   -1.402460
  69 H     1.0000    0     1.008   21.344192   -6.265935   -3.428587
  70 H     1.0000    0     1.008   27.241007   -8.625655   -4.134437
  71 H     1.0000    0     1.008   26.601977  -11.771747   -5.116018
  72 H     1.0000    0     1.008   27.462332  -11.144962   -1.905052
  73 H     1.0000    0     1.008   26.139486  -15.397829   -2.917605
  74 H     1.0000    0     1.008   26.754497  -21.082654    7.840700

--------------------------------
INTERNAL COORDINATES (ANGSTROEM)
--------------------------------
 C      0   0   0     0.000000000000     0.00000000     0.00000000
 C      1   0   0     1.359686391121     0.00000000     0.00000000
 S      2   1   0     1.726973332915   111.19608784     0.00000000
 C      3   2   1     1.749609753231    92.06846995     0.00000000
 Cl     4   3   2     1.694033381253   121.40298070   179.96206693
 C      4   3   2     1.361484239901   110.40786875   359.97665798
 C      6   4   3     1.466489378925   137.39734603   180.09776349
 O      7   6   4     1.215812379522   127.27478594   359.60079902
 C      7   6   4     1.474239833541   105.28533433   179.84327965
 C      9   7   6     1.450757901305   109.45859817     0.43161918
 C     10   9   7     1.373125836659   129.14604019   178.61328914
 C     11  10   9     1.410339929308   121.31200672   180.45084962
 N     12  11  10     1.147600789517   178.72373532   180.91344389
 C     11  10   9     1.405170156565   126.30833927   359.67310263
 N     14  11  10     1.150167448809   176.37814462   191.36455765
 C      9   7   6     1.374232022768   125.92628125   179.69829399
 C     16   9   7     1.400761809481   130.73539238     2.89143331
 S     17  16   9     1.742192746914   125.86384239     5.43483439
 C     18  17  16     1.726971995922    91.86465588   171.33540066
 C     19  18  17     1.395525794029   112.25156042     1.94713993
 C     20  19  18     1.411225527901   112.12485684   359.76075805
 O     21  20  19     1.356602621072   121.45842544   179.60720438
 C     22  21  20     1.423050550227   119.91008643   228.16494596
 O     20  19  18     1.352234060102   119.86634946   180.29570471
 C     24  20  19     1.412963902334   120.70602142   179.90883109
 C     19  18  17     1.445676804199   119.27550302   180.25956152
 C     26  19  18     1.396051110418   122.97498409   190.80599522
 C     27  26  19     1.395218566749   119.62814255   179.10305493
 C     28  27  26     1.401413991974   117.38323472     0.52552942
 N     29  28  27     1.316681035065   123.40645606     0.60352795
 C     30  29  28     1.316254930437   118.93292454   359.10875396
 C     28  27  26     1.444914257560   122.10903663   181.22486897
 S     32  28  27     1.730519833143   119.81711872   194.44535991
 C     33  32  28     1.749106442416    92.47256234   179.80839381
 C     34  33  32     1.388003289657   110.39699619     0.49669941
 C     32  28  27     1.381515491734   129.08283503    15.90099603
 O     36  32  28     1.354289728049   120.81024385   359.19170697
 C     37  36  32     1.417755726950   118.75155347   146.51214353
 O     35  34  33     1.346463568129   128.52261604   177.20029317
 C     39  35  34     1.410483377463   121.06368662   353.00339591
 C     34  33  32     1.421624156344   118.51933973   184.26118019
 C     41  34  33     1.361215663442   126.86571939   327.12634155
 C     42  41  34     1.492449498811   119.56239968   158.62935277
 O     43  42  41     1.208705343911   126.50838957    12.12328967
 C     43  42  41     1.468965598338   104.24506639   193.91680717
 C     45  43  42     1.362171527709   137.46313118   174.96377750
 S     46  45  43     1.749008866473   110.56443687   180.10850760
 C     47  46  45     1.726715755010    92.09624106   359.64764258
 C     48  47  46     1.358617086820   111.13714676     0.36590950
 C     42  41  34     1.449713677248   131.10402998   342.70219073
 C     50  42  41     1.370967723435   127.33671448   332.47284540
 C     51  50  42     1.408740383818   121.62599337   183.69802925
 N     52  51  50     1.147346780097   179.37080250   221.05853020
 C     51  50  42     1.407078327102   123.28941420   358.42299682
 N     54  51  50     1.148772744497   176.54479676   268.15123045
 Cl    46  45  43     1.694168094405   128.17208895     0.34753348
 H      2   1   3     1.071815633913   129.56538475   180.00744887
 H     16   9   7     1.081419513094   115.43021180   180.12995493
 H     23  22  21     1.092943172310   106.82177297   126.26992073
 H     23  22  21     1.090863636391   111.85112184     6.70783755
 H     23  22  21     1.092952155860   110.15756362   244.09213363
 H     25  24  20     1.090941110510   111.76535103   303.64576186
 H     25  24  20     1.089552137761   104.74146910   184.74150507
 H     25  24  20     1.092727950819   111.54364548    66.53272071
 H     27  26  19     1.074077279017   120.48474524   359.19011085
 H     29  28  27     1.083076965502   120.64867506   180.86368041
 H     31  30  29     1.082095729638   115.75454315   179.64102217
 H     38  37  36     1.091548400393   111.26142065   316.90816296
 H     38  37  36     1.089510318859   105.08988700   198.40369054
 H     38  37  36     1.091574415787   111.49952859    79.62524259
 H     40  39  35     1.090106093415   105.46227937   200.73522084
 H     40  39  35     1.092535280254   111.32659265    82.70920618
 H     40  39  35     1.092812669079   111.34400705   319.56737560
 H     41  34  33     1.083880904297   117.98346081   138.85931681
 H     48  47  46     1.071944650343   119.55460701   179.76939530

---------------------------
INTERNAL COORDINATES (A.U.)
---------------------------
 C      0   0   0     0.000000000000     0.00000000     0.00000000
 C      1   0   0     2.569434907239     0.00000000     0.00000000
 S      2   1   0     3.263506639795   111.19608784     0.00000000
 C      3   2   1     3.306283274844    92.06846995     0.00000000
 Cl     4   3   2     3.201259152289   121.40298070   179.96206693
 C      4   3   2     2.572832349064   110.40786875   359.97665798
 C      6   4   3     2.771263304473   137.39734603   180.09776349
 O      7   6   4     2.297552427529   127.27478594   359.60079902
 C      7   6   4     2.785909541111   105.28533433   179.84327965
 C      9   7   6     2.741535120090   109.45859817     0.43161918
 C     10   9   7     2.594831778697   129.14604019   178.61328914
 C     11  10   9     2.665156222126   121.31200672   180.45084962
 N     12  11  10     2.168651203259   178.72373532   180.91344389
 C     11  10   9     2.655386767466   126.30833927   359.67310263
 N     14  11  10     2.173501486400   176.37814462   191.36455765
 C      9   7   6     2.596922167495   125.92628125   179.69829399
 C     16   9   7     2.647056198775   130.73539238     2.89143331
 S     17  16   9     3.292267164172   125.86384239     5.43483439
 C     18  17  16     3.263504113245    91.86465588   171.33540066
 C     19  18  17     2.637161563538   112.25156042     1.94713993
 C     20  19  18     2.666829760932   112.12485684   359.76075805
 O     21  20  19     2.563607426386   121.45842544   179.60720438
 C     22  21  20     2.689175814654   119.91008643   228.16494596
 O     20  19  18     2.555352042553   119.86634946   180.29570471
 C     24  20  19     2.670114812529   120.70602142   179.90883109
 C     19  18  17     2.731933238099   119.27550302   180.25956152
 C     26  19  18     2.638154267647   122.97498409   190.80599522
 C     27  26  19     2.636580988117   119.62814255   179.10305493
 C     28  27  26     2.648288645076   117.38323472     0.52552942
 N     29  28  27     2.488166562001   123.40645606     0.60352795
 C     30  29  28     2.487361340950   118.93292454   359.10875396
 C     28  27  26     2.730492233786   122.10903663   181.22486897
 S     32  28  27     3.270208553959   119.81711872   194.44535991
 C     33  32  28     3.305332155243    92.47256234   179.80839381
 C     34  33  32     2.622946090434   110.39699619     0.49669941
 C     32  28  27     2.610685929146   129.08283503    15.90099603
 O     36  32  28     2.559236691996   120.81024385   359.19170697
 C     37  36  32     2.679170048734   118.75155347   146.51214353
 O     35  34  33     2.544447393067   128.52261604   177.20029317
 C     39  35  34     2.665427299854   121.06368662   353.00339591
 C     34  33  32     2.686480320856   118.51933973   184.26118019
 C     41  34  33     2.572324813109   126.86571939   327.12634155
 C     42  41  34     2.820320821460   119.56239968   158.62935277
 O     43  42  41     2.284122076600   126.50838957    12.12328967
 C     43  42  41     2.775942681010   104.24506639   193.91680717
 C     45  43  42     2.574131134794   137.46313118   174.96377750
 S     46  45  43     3.305147763433   110.56443687   180.10850760
 C     47  46  45     3.263019888096    92.09624106   359.64764258
 C     48  47  46     2.567414214956   111.13714676     0.36590950
 C     42  41  34     2.739561822599   131.10402998   342.70219073
 C     50  42  41     2.590753535737   127.33671448   332.47284540
 C     51  50  42     2.662133519211   121.62599337   183.69802925
 N     52  51  50     2.168171195021   179.37080250   221.05853020
 C     51  50  42     2.658992687199   123.28941420   358.42299682
 N     54  51  50     2.170865877213   176.54479676   268.15123045
 Cl    46  45  43     3.201513723253   128.17208895     0.34753348
 H      2   1   3     2.025438014150   129.56538475   180.00744887
 H     16   9   7     2.043586715626   115.43021180   180.12995493
 H     23  22  21     2.065363275606   106.82177297   126.26992073
 H     23  22  21     2.061433522232   111.85112184     6.70783755
 H     23  22  21     2.065380252055   110.15756362   244.09213363
 H     25  24  20     2.061579927099   111.76535103   303.64576186
 H     25  24  20     2.058955148997   104.74146910   184.74150507
 H     25  24  20     2.064956565928   111.54364548    66.53272071
 H     27  26  19     2.029711904009   120.48474524   359.19011085
 H     29  28  27     2.046718846756   120.64867506   180.86368041
 H     31  30  29     2.044864579701   115.75454315   179.64102217
 H     38  37  36     2.062727538662   111.26142065   316.90816296
 H     38  37  36     2.058876122725   105.08988700   198.40369054
 H     38  37  36     2.062776700632   111.49952859    79.62524259
 H     40  39  35     2.060001973473   105.46227937   200.73522084
 H     40  39  35     2.064592471327   111.32659265    82.70920618
 H     40  39  35     2.065116660239   111.34400705   319.56737560
 H     41  34  33     2.048238070909   117.98346081   138.85931681
 H     48  47  46     2.025681819871   119.55460701   179.76939530

---------------------
BASIS SET INFORMATION
---------------------
There are 6 groups of distinct atoms

 Group   1 Type C   : 7s4p1d contracted to 3s2p1d pattern {511/31/1}
 Group   2 Type S   : 10s7p1d contracted to 4s3p1d pattern {5311/511/1}
 Group   3 Type Cl  : 10s7p1d contracted to 4s3p1d pattern {5311/511/1}
 Group   4 Type O   : 7s4p1d contracted to 3s2p1d pattern {511/31/1}
 Group   5 Type N   : 7s4p1d contracted to 3s2p1d pattern {511/31/1}
 Group   6 Type H   : 4s1p contracted to 2s1p pattern {31/1}

Atom   0C    basis set group =>   1
Atom   1C    basis set group =>   1
Atom   2S    basis set group =>   2
Atom   3C    basis set group =>   1
Atom   4Cl   basis set group =>   3
Atom   5C    basis set group =>   1
Atom   6C    basis set group =>   1
Atom   7O    basis set group =>   4
Atom   8C    basis set group =>   1
Atom   9C    basis set group =>   1
Atom  10C    basis set group =>   1
Atom  11C    basis set group =>   1
Atom  12N    basis set group =>   5
Atom  13C    basis set group =>   1
Atom  14N    basis set group =>   5
Atom  15C    basis set group =>   1
Atom  16C    basis set group =>   1
Atom  17S    basis set group =>   2
Atom  18C    basis set group =>   1
Atom  19C    basis set group =>   1
Atom  20C    basis set group =>   1
Atom  21O    basis set group =>   4
Atom  22C    basis set group =>   1
Atom  23O    basis set group =>   4
Atom  24C    basis set group =>   1
Atom  25C    basis set group =>   1
Atom  26C    basis set group =>   1
Atom  27C    basis set group =>   1
Atom  28C    basis set group =>   1
Atom  29N    basis set group =>   5
Atom  30C    basis set group =>   1
Atom  31C    basis set group =>   1
Atom  32S    basis set group =>   2
Atom  33C    basis set group =>   1
Atom  34C    basis set group =>   1
Atom  35C    basis set group =>   1
Atom  36O    basis set group =>   4
Atom  37C    basis set group =>   1
Atom  38O    basis set group =>   4
Atom  39C    basis set group =>   1
Atom  40C    basis set group =>   1
Atom  41C    basis set group =>   1
Atom  42C    basis set group =>   1
Atom  43O    basis set group =>   4
Atom  44C    basis set group =>   1
Atom  45C    basis set group =>   1
Atom  46S    basis set group =>   2
Atom  47C    basis set group =>   1
Atom  48C    basis set group =>   1
Atom  49C    basis set group =>   1
Atom  50C    basis set group =>   1
Atom  51C    basis set group =>   1
Atom  52N    basis set group =>   5
Atom  53C    basis set group =>   1
Atom  54N    basis set group =>   5
Atom  55Cl   basis set group =>   3
Atom  56H    basis set group =>   6
Atom  57H    basis set group =>   6
Atom  58H    basis set group =>   6
Atom  59H    basis set group =>   6
Atom  60H    basis set group =>   6
Atom  61H    basis set group =>   6
Atom  62H    basis set group =>   6
Atom  63H    basis set group =>   6
Atom  64H    basis set group =>   6
Atom  65H    basis set group =>   6
Atom  66H    basis set group =>   6
Atom  67H    basis set group =>   6
Atom  68H    basis set group =>   6
Atom  69H    basis set group =>   6
Atom  70H    basis set group =>   6
Atom  71H    basis set group =>   6
Atom  72H    basis set group =>   6
Atom  73H    basis set group =>   6
Atom  74H    basis set group =>   6
---------------------------------
AUXILIARY/J BASIS SET INFORMATION
---------------------------------
There are 6 groups of distinct atoms

 Group   1 Type C   : 12s5p4d2f1g contracted to 6s4p3d1f1g pattern {711111/2111/211/2/1}
 Group   2 Type S   : 14s5p5d2f1g contracted to 8s4p3d1f1g pattern {71111111/2111/311/2/1}
 Group   3 Type Cl  : 14s5p5d2f1g contracted to 8s4p3d1f1g pattern {71111111/2111/311/2/1}
 Group   4 Type O   : 12s5p4d2f1g contracted to 6s4p3d1f1g pattern {711111/2111/211/2/1}
 Group   5 Type N   : 12s5p4d2f1g contracted to 6s4p3d1f1g pattern {711111/2111/211/2/1}
 Group   6 Type H   : 5s2p1d contracted to 3s1p1d pattern {311/2/1}

Atom   0C    basis set group =>   1
Atom   1C    basis set group =>   1
Atom   2S    basis set group =>   2
Atom   3C    basis set group =>   1
Atom   4Cl   basis set group =>   3
Atom   5C    basis set group =>   1
Atom   6C    basis set group =>   1
Atom   7O    basis set group =>   4
Atom   8C    basis set group =>   1
Atom   9C    basis set group =>   1
Atom  10C    basis set group =>   1
Atom  11C    basis set group =>   1
Atom  12N    basis set group =>   5
Atom  13C    basis set group =>   1
Atom  14N    basis set group =>   5
Atom  15C    basis set group =>   1
Atom  16C    basis set group =>   1
Atom  17S    basis set group =>   2
Atom  18C    basis set group =>   1
Atom  19C    basis set group =>   1
Atom  20C    basis set group =>   1
Atom  21O    basis set group =>   4
Atom  22C    basis set group =>   1
Atom  23O    basis set group =>   4
Atom  24C    basis set group =>   1
Atom  25C    basis set group =>   1
Atom  26C    basis set group =>   1
Atom  27C    basis set group =>   1
Atom  28C    basis set group =>   1
Atom  29N    basis set group =>   5
Atom  30C    basis set group =>   1
Atom  31C    basis set group =>   1
Atom  32S    basis set group =>   2
Atom  33C    basis set group =>   1
Atom  34C    basis set group =>   1
Atom  35C    basis set group =>   1
Atom  36O    basis set group =>   4
Atom  37C    basis set group =>   1
Atom  38O    basis set group =>   4
Atom  39C    basis set group =>   1
Atom  40C    basis set group =>   1
Atom  41C    basis set group =>   1
Atom  42C    basis set group =>   1
Atom  43O    basis set group =>   4
Atom  44C    basis set group =>   1
Atom  45C    basis set group =>   1
Atom  46S    basis set group =>   2
Atom  47C    basis set group =>   1
Atom  48C    basis set group =>   1
Atom  49C    basis set group =>   1
Atom  50C    basis set group =>   1
Atom  51C    basis set group =>   1
Atom  52N    basis set group =>   5
Atom  53C    basis set group =>   1
Atom  54N    basis set group =>   5
Atom  55Cl   basis set group =>   3
Atom  56H    basis set group =>   6
Atom  57H    basis set group =>   6
Atom  58H    basis set group =>   6
Atom  59H    basis set group =>   6
Atom  60H    basis set group =>   6
Atom  61H    basis set group =>   6
Atom  62H    basis set group =>   6
Atom  63H    basis set group =>   6
Atom  64H    basis set group =>   6
Atom  65H    basis set group =>   6
Atom  66H    basis set group =>   6
Atom  67H    basis set group =>   6
Atom  68H    basis set group =>   6
Atom  69H    basis set group =>   6
Atom  70H    basis set group =>   6
Atom  71H    basis set group =>   6
Atom  72H    basis set group =>   6
Atom  73H    basis set group =>   6
Atom  74H    basis set group =>   6


           ************************************************************
           *        Program running with 6 parallel MPI-processes     *
           *              working on a common directory               *
           ************************************************************
------------------------------------------------------------------------------
                           ORCA GTO INTEGRAL CALCULATION
                           -- RI-GTO INTEGRALS CHOSEN --
------------------------------------------------------------------------------

                         BASIS SET STATISTICS AND STARTUP INFO

Gaussian basis set:
 # of primitive gaussian shells          ...  803
 # of primitive gaussian functions       ... 1549
 # of contracted shells                  ...  405
 # of contracted basis functions         ...  903
 Highest angular momentum                ...    2
 Maximum contraction depth               ...    5
Auxiliary gaussian basis set:
 # of primitive gaussian shells          ... 1514
 # of primitive gaussian functions       ... 4266
 # of contracted shells                  ...  947
 # of contracted aux-basis functions     ... 2965
 Highest angular momentum                ...    4
 Maximum contraction depth               ...    7
Ratio of auxiliary to basis functions    ...  3.28
Integral package used                  ... LIBINT
 One Electron integrals                  ... done
 Ordering auxiliary basis shells         ... done
 Integral threshhold             Thresh  ...  2.500e-11
 Primitive cut-off               TCut    ...  2.500e-12
 Pre-screening matrix                    ... done
 Shell pair data                         ... 
 Ordering of the shell pairs             ... done (   0.006 sec) 33200 of 82215 pairs
 Determination of significant pairs      ... done (   0.000 sec)
 Creation of shell pair data             ... done (   0.003 sec)
 Storage of shell pair data              ... done (   0.113 sec)
 Shell pair data done in (   0.123 sec)
 Computing two index integrals           ... done
 Cholesky decomposition of the V-matrix  ... done


Timings:
 Total evaluation time                   ...   2.269 sec (  0.038 min)
 One electron matrix time                ...   0.560 sec (  0.009 min) = 24.7%
 Schwartz matrix evaluation time         ...   0.412 sec (  0.007 min) = 18.2%
 Two index repulsion integral time       ...   0.253 sec (  0.004 min) = 11.2%
 Cholesky decomposition of V             ...   0.905 sec (  0.015 min) = 39.9%
 Three index repulsion integral time     ...   0.000 sec (  0.000 min) =  0.0%



           ************************************************************
           *        Program running with 6 parallel MPI-processes     *
           *              working on a common directory               *
           ************************************************************
-------------------------------------------------------------------------------
                                 ORCA SCF
-------------------------------------------------------------------------------

------------
SCF SETTINGS
------------
Hamiltonian:
 Density Functional     Method          .... DFT(GTOs)
 Exchange Functional    Exchange        .... WB88
 Correlation Functional Correlation     .... LYP
 LDA part of GGA corr.  LDAOpt          .... VWN-5
 Gradients option       PostSCFGGA      .... off
 Hybrid DFT is turned on
   Fraction HF Exchange ScalHFX         ....  0.190000
   Scaling of DF-GGA-X  ScalDFX         ....  0.350000
   Scaling of DF-GGA-C  ScalDFC         ....  0.810000
   Scaling of DF-LDA-C  ScalLDAC        ....  1.000000
   Perturbative correction              ....  0.000000
   Density functional embedding theory  .... OFF
 Long-range corrected/Screened/Range-Separated Hybrid DFT is turned on
   Amount of maximum screened exact exchange              ....  0.460000
   Range separation parameter mu (erf(mu*r12)/r12)        ....  0.330000
 RI-approximation to the Coulomb term is turned on
   Number of auxiliary basis functions  .... 2965
   RIJ-COSX (HFX calculated with COS-X)).... on


General Settings:
 Integral files         IntName         .... xtbopt
 Hartree-Fock type      HFTyp           .... RHF
 Total Charge           Charge          ....    0
 Multiplicity           Mult            ....    1
 Number of Electrons    NEL             ....  434
 Basis Dimension        Dim             ....  903
 Nuclear Repulsion      ENuc            ....   8125.5058317065 Eh

Convergence Acceleration:
 DIIS                   CNVDIIS         .... on
   Start iteration      DIISMaxIt       ....    12
   Startup error        DIISStart       ....  0.200000
   # of expansion vecs  DIISMaxEq       ....     5
   Bias factor          DIISBfac        ....   1.050
   Max. coefficient     DIISMaxC        ....  10.000
 Newton-Raphson         CNVNR           .... off
 SOSCF                  CNVSOSCF        .... on
   Start iteration      SOSCFMaxIt      ....   150
   Startup grad/error   SOSCFStart      ....  0.003300
 Level Shifting         CNVShift        .... on
   Level shift para.    LevelShift      ....    0.2500
   Turn off err/grad.   ShiftErr        ....    0.0010
 Zerner damping         CNVZerner       .... off
 Static damping         CNVDamp         .... on
   Fraction old density DampFac         ....    0.7000
   Max. Damping (<1)    DampMax         ....    0.9800
   Min. Damping (>=0)   DampMin         ....    0.0000
   Turn off err/grad.   DampErr         ....    0.1000
 Fernandez-Rico         CNVRico         .... off

SCF Procedure:
 Maximum # iterations   MaxIter         ....   125
 SCF integral mode      SCFMode         .... Direct
   Integral package                     .... LIBINT
 Reset frequency        DirectResetFreq ....    20
 Integral Threshold     Thresh          ....  2.500e-11 Eh
 Primitive CutOff       TCut            ....  2.500e-12 Eh

Convergence Tolerance:
 Convergence Check Mode ConvCheckMode   .... Total+1el-Energy
 Convergence forced     ConvForced      .... 1
 Energy Change          TolE            ....  1.000e-08 Eh
 1-El. energy change                    ....  1.000e-05 Eh
 Orbital Gradient       TolG            ....  1.000e-05
 Orbital Rotation angle TolX            ....  1.000e-05
 DIIS Error             TolErr          ....  5.000e-07


Diagonalization of the overlap matrix:
Smallest eigenvalue                        ... 2.003e-04
Time for diagonalization                   ...    0.570 sec
Threshold for overlap eigenvalues          ... 1.000e-08
Number of eigenvalues below threshold      ... 0
Time for construction of square roots      ...    0.241 sec
Total time needed                          ...    0.812 sec

-------------------
DFT GRID GENERATION
-------------------

General Integration Accuracy     IntAcc      ...  4.670
Radial Grid Type                 RadialGrid  ... Gauss-Chebyshev
Angular Grid (max. acc.)         AngularGrid ... Lebedev-302
Angular grid pruning method      GridPruning ... 3 (G Style)
Weight generation scheme         WeightScheme... Becke
Basis function cutoff            BFCut       ...    1.0000e-11
Integration weight cutoff        WCut        ...    1.0000e-14
Grids for H and He will be reduced by one unit

# of grid points (after initial pruning)     ... 415946 (   0.0 sec)
# of grid points (after weights+screening)   ... 358404 (   3.3 sec)
nearest neighbour list constructed           ...    0.0 sec
Grid point re-assignment to atoms done       ...    0.0 sec
Grid point division into batches done        ...    1.4 sec
Reduced shell lists constructed in    2.0 sec

Total number of grid points                  ...   358404
Total number of batches                      ...     5640
Average number of points per batch           ...       63
Average number of grid points per atom       ...     4779
Average number of shells per batch           ...    79.88 (19.72%)
Average number of basis functions per batch  ...   174.03 (19.27%)
Average number of large shells per batch     ...    51.65 (64.65%)
Average number of large basis fcns per batch ...   114.64 (65.87%)
Maximum spatial batch extension              ...  19.65, 19.60, 20.46 au
Average spatial batch extension              ...   0.35,  0.39,  0.38 au

Time for grid setup =    6.648 sec

------------------------------
INITIAL GUESS: MODEL POTENTIAL
------------------------------
Loading Hartree-Fock densities                     ... done
Calculating cut-offs                               ... done
Setting up the integral package                    ... done
Initializing the effective Hamiltonian             ... done
Starting the Coulomb interaction                   ... done (   0.7 sec)
Reading the grid                                   ... done
Mapping shells                                     ... done
Starting the XC term evaluation                    ... done (   1.6 sec)
  promolecular density results
     # of electrons  =    433.990381589
     EX              =   -441.184284256
     EC              =    -15.278199474
     EX+EC           =   -456.462483730
Transforming the Hamiltonian                       ... done (   1.0 sec)
Diagonalizing the Hamiltonian                      ... done (   0.5 sec)
Back transforming the eigenvectors                 ... done (   0.1 sec)
Now organizing SCF variables                       ... done
                      ------------------
                      INITIAL GUESS DONE (  10.8 sec)
                      ------------------
--------------------
COSX GRID GENERATION
--------------------

General Integration Accuracy     IntAcc      ...  3.340
Radial Grid Type                 RadialGrid  ... Gauss-Chebyshev
Angular Grid (max. acc.)         AngularGrid ... Lebedev-50
Angular grid pruning method      GridPruning ... 3 (G Style)
Weight generation scheme         WeightScheme... Becke
Basis function cutoff            BFCut       ...    1.0000e-11
Integration weight cutoff        WCut        ...    1.0000e-14
Grids for H and He will be reduced by one unit

# of grid points (after initial pruning)     ...  39246 (   0.0 sec)
# of grid points (after weights+screening)   ...  35321 (   0.3 sec)
nearest neighbour list constructed           ...    0.0 sec
Grid point re-assignment to atoms done       ...    0.0 sec
Grid point division into batches done        ...    0.0 sec
Reduced shell lists constructed in    0.1 sec

Total number of grid points                  ...    35321
Total number of batches                      ...      590
Average number of points per batch           ...       59
Average number of grid points per atom       ...      471
Average number of shells per batch           ...    96.69 (23.87%)
Average number of basis functions per batch  ...   212.45 (23.53%)
Average number of large shells per batch     ...    62.49 (64.63%)
Average number of large basis fcns per batch ...   141.11 (66.42%)
Maximum spatial batch extension              ...  21.98, 18.66, 17.15 au
Average spatial batch extension              ...   0.72,  0.90,  0.78 au

Overlap Fitting                  UseSFitting ... on
Constructing numerical overlap ... done (      0.1 sec)
Inverting numerical overlap    ... done (      0.2 sec)
Obtaining analytic overlap     ... done (      0.0 sec)
Final contraction and storage  ... done (      0.5 sec)


General Integration Accuracy     IntAcc      ...  3.670
Radial Grid Type                 RadialGrid  ... Gauss-Chebyshev
Angular Grid (max. acc.)         AngularGrid ... Lebedev-50
Angular grid pruning method      GridPruning ... 3 (G Style)
Weight generation scheme         WeightScheme... Becke
Basis function cutoff            BFCut       ...    1.0000e-11
Integration weight cutoff        WCut        ...    1.0000e-14
Grids for H and He will be reduced by one unit

# of grid points (after initial pruning)     ...  48900 (   0.0 sec)
# of grid points (after weights+screening)   ...  43861 (   0.3 sec)
nearest neighbour list constructed           ...    0.0 sec
Grid point re-assignment to atoms done       ...    0.0 sec
Grid point division into batches done        ...    0.0 sec
Reduced shell lists constructed in    0.1 sec

Total number of grid points                  ...    43861
Total number of batches                      ...      723
Average number of points per batch           ...       60
Average number of grid points per atom       ...      585
Average number of shells per batch           ...    95.11 (23.48%)
Average number of basis functions per batch  ...   209.06 (23.15%)
Average number of large shells per batch     ...    60.75 (63.88%)
Average number of large basis fcns per batch ...   137.18 (65.62%)
Maximum spatial batch extension              ...  20.81, 18.11, 18.12 au
Average spatial batch extension              ...   0.68,  0.83,  0.73 au

Overlap Fitting                  UseSFitting ... on
Constructing numerical overlap ... done (      0.3 sec)
Inverting numerical overlap    ... done (      0.2 sec)
Obtaining analytic overlap     ... done (      0.1 sec)
Final contraction and storage  ... done (      0.5 sec)


General Integration Accuracy     IntAcc      ...  4.010
Radial Grid Type                 RadialGrid  ... Gauss-Chebyshev
Angular Grid (max. acc.)         AngularGrid ... Lebedev-110
Angular grid pruning method      GridPruning ... 3 (G Style)
Weight generation scheme         WeightScheme... Becke
Basis function cutoff            BFCut       ...    1.0000e-11
Integration weight cutoff        WCut        ...    1.0000e-14
Grids for H and He will be reduced by one unit

# of grid points (after initial pruning)     ...  95656 (   0.0 sec)
# of grid points (after weights+screening)   ...  84850 (   0.6 sec)
nearest neighbour list constructed           ...    0.0 sec
Grid point re-assignment to atoms done       ...    0.0 sec
Grid point division into batches done        ...    0.1 sec
Reduced shell lists constructed in    0.2 sec

Total number of grid points                  ...    84850
Total number of batches                      ...     1367
Average number of points per batch           ...       62
Average number of grid points per atom       ...     1131
Average number of shells per batch           ...    89.43 (22.08%)
Average number of basis functions per batch  ...   195.85 (21.69%)
Average number of large shells per batch     ...    57.96 (64.81%)
Average number of large basis fcns per batch ...   129.77 (66.26%)
Maximum spatial batch extension              ...  17.37, 23.27, 19.49 au
Average spatial batch extension              ...   0.54,  0.67,  0.62 au

Overlap Fitting                  UseSFitting ... on
Constructing numerical overlap ... done (      0.4 sec)
Inverting numerical overlap    ... done (      0.2 sec)
Obtaining analytic overlap     ... done (      0.0 sec)
Final contraction and storage  ... done (      0.4 sec)

Time for X-Grid setup             =    5.056 sec
--------------
SCF ITERATIONS
--------------
ITER       Energy         Delta-E        Max-DP      RMS-DP      [F,P]     Damp
               ***  Starting incremental Fock matrix formation  ***
  0  -4731.1624116225   0.000000000000 0.07997799  0.00108049  0.2334957 0.7000
  1  -4731.5945661990  -0.432154576471 0.04641982  0.00076936  0.0985882 0.7000
                               ***Turning on DIIS***
  2  -4731.7782408859  -0.183674686912 0.08534953  0.00139780  0.0323832 0.0000
  3  -4732.0848313734  -0.306590487500 0.05163748  0.00058522  0.0585648 0.0000
  4  -4732.1396783896  -0.054847016148 0.01647791  0.00019197  0.0223132 0.0000
  5  -4732.1443089894  -0.004630599823 0.00534451  0.00007521  0.0069021 0.0000
                      *** Initiating the SOSCF procedure ***
                           *** Shutting down DIIS ***
                      *** Re-Reading the Fockian *** 
                      *** Removing any level shift *** 
ITER      Energy       Delta-E        Grad      Rot      Max-DP    RMS-DP
  6  -4732.14508131  -0.0007723177  0.001714  0.001714  0.002626  0.000041
               *** Restarting incremental Fock matrix formation ***
  7  -4732.14531082  -0.0002295138  0.001295  0.007102  0.002474  0.000037
  8  -4732.14545044  -0.0001396174  0.000392  0.006226  0.004729  0.000046
  9  -4732.14545222  -0.0000017780  0.000727  0.001723  0.001272  0.000018
 10  -4732.14548978  -0.0000375591  0.000203  0.000566  0.000650  0.000008
 11  -4732.14548864   0.0000011374  0.000176  0.000424  0.000332  0.000005
 12  -4732.14549215  -0.0000035081  0.000022  0.000142  0.000153  0.000002
 13  -4732.14549219  -0.0000000469  0.000027  0.000047  0.000073  0.000001
 14  -4732.14549228  -0.0000000895  0.000006  0.000025  0.000024  0.000000
 15  -4732.14549225   0.0000000297  0.000006  0.000014  0.000016  0.000000
                  ***Gradient check signals convergence***
              ***Rediagonalizing the Fockian in SOSCF/NRSCF***

               *****************************************************
               *                     SUCCESS                       *
               *           SCF CONVERGED AFTER  16 CYCLES          *
               *****************************************************

Setting up the final grid:

General Integration Accuracy     IntAcc      ...  5.010
Radial Grid Type                 RadialGrid  ... Gauss-Chebyshev
Angular Grid (max. acc.)         AngularGrid ... Lebedev-434
Angular grid pruning method      GridPruning ... 3 (G Style)
Weight generation scheme         WeightScheme... Becke
Basis function cutoff            BFCut       ...    1.0000e-11
Integration weight cutoff        WCut        ...    1.0000e-14
Grids for H and He will be reduced by one unit

# of grid points (after initial pruning)     ... 733100 (   0.0 sec)
# of grid points (after weights+screening)   ... 629627 (   4.2 sec)
nearest neighbour list constructed           ...    0.0 sec
Grid point re-assignment to atoms done       ...    0.1 sec
Grid point division into batches done        ...    4.6 sec
Reduced shell lists constructed in    5.6 sec

Total number of grid points                  ...   629627
Total number of batches                      ...     9872
Average number of points per batch           ...       63
Average number of grid points per atom       ...     8395
Average number of shells per batch           ...    77.19 (19.06%)
Average number of basis functions per batch  ...   167.79 (18.58%)
Average number of large shells per batch     ...    49.84 (64.57%)
Average number of large basis fcns per batch ...   110.41 (65.81%)
Maximum spatial batch extension              ...  17.38, 20.65, 20.52 au
Average spatial batch extension              ...   0.29,  0.31,  0.31 au

Final grid set up in   10.2 sec
Final integration                            ... done (   2.1 sec)
Change in XC energy                          ...    -0.000105174
Integrated number of electrons               ...   433.999885935
Previous integrated no of electrons          ...   433.999779337
Old exchange energy                            =   -119.024567512 Eh
New exchange energy                            =   -119.022853256 Eh
Exchange energy change after final integration =      0.001714256 Eh
Total energy after final integration           =  -4732.143883198 Eh
Final COS-X integration done in                =    35.330 sec

----------------
TOTAL SCF ENERGY
----------------

Total Energy       :        -4732.14388320 Eh         -128768.18151 eV

Components:
Nuclear Repulsion  :         8125.50583171 Eh          221106.25451 eV
Electronic Energy  :       -12857.64971490 Eh         -349874.43602 eV
One Electron Energy:       -22675.16695027 Eh         -617022.66154 eV
Two Electron Energy:         9817.51723537 Eh          267148.22553 eV

Virial components:
Potential Energy   :        -9438.86187373 Eh         -256844.48931 eV
Kinetic Energy     :         4706.71799053 Eh          128076.30780 eV
Virial Ratio       :            2.00540204


DFT components:
N(Alpha)           :      216.999942967595 electrons
N(Beta)            :      216.999942967595 electrons
N(Total)           :      433.999885935189 electrons
E(XC)              :     -343.929705057378 Eh       
DFET-embed. en.    :        0.000000000000 Eh       

---------------
SCF CONVERGENCE
---------------

  Last Energy change         ...   -2.6547e-08  Tolerance :   1.0000e-08
  Last MAX-Density change    ...    7.1054e-15  Tolerance :   1.0000e-07
  Last RMS-Density change    ...    4.2451e-17  Tolerance :   5.0000e-09
  Last Orbital Gradient      ...    1.8159e-06  Tolerance :   1.0000e-05
  Last Orbital Rotation      ...    7.8412e-06  Tolerance :   1.0000e-05

             **** THE GBW FILE WAS UPDATED (xtbopt.gbw) ****
             **** DENSITY FILE WAS UPDATED (xtbopt.scfp) ****
             **** ENERGY FILE WAS UPDATED (xtbopt.en.tmp) ****
             **** THE GBW FILE WAS UPDATED (xtbopt.gbw) ****
             **** DENSITY FILE WAS UPDATED (xtbopt.scfp) ****
----------------
ORBITAL ENERGIES
----------------

  NO   OCC          E(Eh)            E(eV) 
   0   2.0000    -101.615031     -2765.0856 
   1   2.0000    -101.612928     -2765.0283 
   2   2.0000     -88.989671     -2421.5321 
   3   2.0000     -88.987685     -2421.4780 
   4   2.0000     -88.965387     -2420.8713 
   5   2.0000     -88.962419     -2420.7905 
   6   2.0000     -19.276145      -524.5306 
   7   2.0000     -19.262319      -524.1543 
   8   2.0000     -19.256897      -524.0068 
   9   2.0000     -19.253317      -523.9094 
  10   2.0000     -19.218831      -522.9710 
  11   2.0000     -19.216224      -522.9000 
  12   2.0000     -14.422722      -392.4622 
  13   2.0000     -14.416605      -392.2958 
  14   2.0000     -14.416207      -392.2849 
  15   2.0000     -14.413327      -392.2066 
  16   2.0000     -14.402549      -391.9133 
  17   2.0000     -10.373403      -282.2747 
  18   2.0000     -10.373254      -282.2706 
  19   2.0000     -10.373026      -282.2644 
  20   2.0000     -10.371077      -282.2114 
  21   2.0000     -10.365123      -282.0493 
  22   2.0000     -10.360471      -281.9228 
  23   2.0000     -10.346314      -281.5375 
  24   2.0000     -10.345320      -281.5105 
  25   2.0000     -10.345030      -281.5026 
  26   2.0000     -10.344869      -281.4982 
  27   2.0000     -10.342997      -281.4473 
  28   2.0000     -10.341686      -281.4116 
  29   2.0000     -10.339335      -281.3476 
  30   2.0000     -10.328000      -281.0392 
  31   2.0000     -10.326931      -281.0101 
  32   2.0000     -10.326319      -280.9934 
  33   2.0000     -10.325925      -280.9827 
  34   2.0000     -10.325716      -280.9770 
  35   2.0000     -10.325062      -280.9592 
  36   2.0000     -10.324583      -280.9462 
  37   2.0000     -10.321561      -280.8640 
  38   2.0000     -10.319518      -280.8083 
  39   2.0000     -10.318399      -280.7779 
  40   2.0000     -10.316760      -280.7333 
  41   2.0000     -10.315438      -280.6973 
  42   2.0000     -10.315404      -280.6964 
  43   2.0000     -10.315115      -280.6885 
  44   2.0000     -10.312809      -280.6258 
  45   2.0000     -10.309610      -280.5388 
  46   2.0000     -10.307190      -280.4729 
  47   2.0000     -10.307189      -280.4729 
  48   2.0000     -10.305851      -280.4365 
  49   2.0000     -10.299459      -280.2625 
  50   2.0000     -10.297730      -280.2155 
  51   2.0000     -10.297363      -280.2055 
  52   2.0000     -10.295133      -280.1448 
  53   2.0000     -10.294816      -280.1362 
  54   2.0000     -10.294527      -280.1283 
  55   2.0000     -10.282840      -279.8103 
  56   2.0000      -9.569782      -260.4070 
  57   2.0000      -9.567694      -260.3502 
  58   2.0000      -8.085436      -220.0159 
  59   2.0000      -8.083495      -219.9631 
  60   2.0000      -8.060078      -219.3259 
  61   2.0000      -8.055830      -219.2103 
  62   2.0000      -7.340388      -199.7421 
  63   2.0000      -7.338319      -199.6858 
  64   2.0000      -7.329836      -199.4550 
  65   2.0000      -7.329316      -199.4408 
  66   2.0000      -7.327734      -199.3978 
  67   2.0000      -7.327210      -199.3835 
  68   2.0000      -6.054855      -164.7610 
  69   2.0000      -6.052910      -164.7080 
  70   2.0000      -6.050249      -164.6356 
  71   2.0000      -6.048322      -164.5832 
  72   2.0000      -6.047602      -164.5636 
  73   2.0000      -6.045638      -164.5102 
  74   2.0000      -6.029727      -164.0772 
  75   2.0000      -6.025703      -163.9677 
  76   2.0000      -6.025352      -163.9582 
  77   2.0000      -6.021388      -163.8503 
  78   2.0000      -6.021059      -163.8413 
  79   2.0000      -6.017515      -163.7449 
  80   2.0000      -1.183018       -32.1915 
  81   2.0000      -1.171916       -31.8895 
  82   2.0000      -1.152544       -31.3623 
  83   2.0000      -1.151831       -31.3429 
  84   2.0000      -1.136393       -30.9228 
  85   2.0000      -1.132850       -30.8264 
  86   2.0000      -1.040100       -28.3026 
  87   2.0000      -1.035126       -28.1672 
  88   2.0000      -1.033466       -28.1220 
  89   2.0000      -1.016142       -27.6506 
  90   2.0000      -1.014826       -27.6148 
  91   2.0000      -0.998104       -27.1598 
  92   2.0000      -0.996863       -27.1260 
  93   2.0000      -0.992794       -27.0153 
  94   2.0000      -0.991520       -26.9806 
  95   2.0000      -0.984012       -26.7763 
  96   2.0000      -0.982969       -26.7479 
  97   2.0000      -0.951409       -25.8892 
  98   2.0000      -0.949977       -25.8502 
  99   2.0000      -0.918179       -24.9849 
 100   2.0000      -0.911212       -24.7953 
 101   2.0000      -0.903336       -24.5810 
 102   2.0000      -0.899228       -24.4692 
 103   2.0000      -0.886709       -24.1286 
 104   2.0000      -0.878558       -23.9068 
 105   2.0000      -0.855875       -23.2895 
 106   2.0000      -0.848208       -23.0809 
 107   2.0000      -0.834273       -22.7017 
 108   2.0000      -0.831669       -22.6309 
 109   2.0000      -0.829220       -22.5642 
 110   2.0000      -0.828022       -22.5316 
 111   2.0000      -0.810613       -22.0579 
 112   2.0000      -0.806636       -21.9497 
 113   2.0000      -0.776087       -21.1184 
 114   2.0000      -0.771416       -20.9913 
 115   2.0000      -0.767044       -20.8723 
 116   2.0000      -0.761388       -20.7184 
 117   2.0000      -0.751950       -20.4616 
 118   2.0000      -0.747969       -20.3533 
 119   2.0000      -0.730044       -19.8655 
 120   2.0000      -0.722713       -19.6660 
 121   2.0000      -0.701353       -19.0848 
 122   2.0000      -0.691199       -18.8085 
 123   2.0000      -0.685597       -18.6560 
 124   2.0000      -0.672915       -18.3109 
 125   2.0000      -0.671822       -18.2812 
 126   2.0000      -0.671488       -18.2721 
 127   2.0000      -0.656994       -17.8777 
 128   2.0000      -0.650237       -17.6939 
 129   2.0000      -0.646534       -17.5931 
 130   2.0000      -0.643269       -17.5042 
 131   2.0000      -0.624967       -17.0062 
 132   2.0000      -0.619258       -16.8509 
 133   2.0000      -0.613878       -16.7045 
 134   2.0000      -0.610196       -16.6043 
 135   2.0000      -0.605852       -16.4861 
 136   2.0000      -0.603303       -16.4167 
 137   2.0000      -0.598151       -16.2765 
 138   2.0000      -0.590307       -16.0631 
 139   2.0000      -0.585622       -15.9356 
 140   2.0000      -0.582438       -15.8490 
 141   2.0000      -0.576358       -15.6835 
 142   2.0000      -0.572782       -15.5862 
 143   2.0000      -0.571299       -15.5458 
 144   2.0000      -0.556211       -15.1353 
 145   2.0000      -0.551541       -15.0082 
 146   2.0000      -0.550272       -14.9737 
 147   2.0000      -0.547367       -14.8946 
 148   2.0000      -0.545917       -14.8552 
 149   2.0000      -0.545575       -14.8459 
 150   2.0000      -0.543221       -14.7818 
 151   2.0000      -0.537176       -14.6173 
 152   2.0000      -0.534423       -14.5424 
 153   2.0000      -0.528968       -14.3939 
 154   2.0000      -0.527208       -14.3460 
 155   2.0000      -0.523309       -14.2400 
 156   2.0000      -0.522594       -14.2205 
 157   2.0000      -0.516952       -14.0670 
 158   2.0000      -0.514815       -14.0088 
 159   2.0000      -0.510388       -13.8884 
 160   2.0000      -0.509072       -13.8526 
 161   2.0000      -0.505665       -13.7598 
 162   2.0000      -0.502703       -13.6792 
 163   2.0000      -0.501650       -13.6506 
 164   2.0000      -0.497656       -13.5419 
 165   2.0000      -0.495983       -13.4964 
 166   2.0000      -0.492121       -13.3913 
 167   2.0000      -0.488279       -13.2867 
 168   2.0000      -0.487653       -13.2697 
 169   2.0000      -0.482976       -13.1424 
 170   2.0000      -0.481768       -13.1096 
 171   2.0000      -0.480447       -13.0736 
 172   2.0000      -0.475702       -12.9445 
 173   2.0000      -0.463269       -12.6062 
 174   2.0000      -0.458486       -12.4760 
 175   2.0000      -0.455245       -12.3878 
 176   2.0000      -0.452277       -12.3071 
 177   2.0000      -0.451278       -12.2799 
 178   2.0000      -0.448877       -12.2146 
 179   2.0000      -0.445241       -12.1156 
 180   2.0000      -0.444419       -12.0932 
 181   2.0000      -0.443235       -12.0610 
 182   2.0000      -0.442139       -12.0312 
 183   2.0000      -0.440942       -11.9986 
 184   2.0000      -0.438838       -11.9414 
 185   2.0000      -0.436332       -11.8732 
 186   2.0000      -0.432017       -11.7558 
 187   2.0000      -0.431445       -11.7402 
 188   2.0000      -0.430206       -11.7065 
 189   2.0000      -0.426944       -11.6177 
 190   2.0000      -0.426266       -11.5993 
 191   2.0000      -0.421003       -11.4561 
 192   2.0000      -0.419279       -11.4092 
 193   2.0000      -0.416066       -11.3217 
 194   2.0000      -0.410132       -11.1603 
 195   2.0000      -0.409307       -11.1378 
 196   2.0000      -0.406376       -11.0580 
 197   2.0000      -0.404405       -11.0044 
 198   2.0000      -0.401026       -10.9125 
 199   2.0000      -0.398063       -10.8318 
 200   2.0000      -0.389521       -10.5994 
 201   2.0000      -0.387551       -10.5458 
 202   2.0000      -0.372334       -10.1317 
 203   2.0000      -0.370919       -10.0932 
 204   2.0000      -0.351321        -9.5599 
 205   2.0000      -0.341611        -9.2957 
 206   2.0000      -0.340008        -9.2521 
 207   2.0000      -0.335408        -9.1269 
 208   2.0000      -0.332603        -9.0506 
 209   2.0000      -0.328862        -8.9488 
 210   2.0000      -0.323281        -8.7969 
 211   2.0000      -0.309900        -8.4328 
 212   2.0000      -0.307872        -8.3776 
 213   2.0000      -0.293843        -7.9959 
 214   2.0000      -0.292586        -7.9617 
 215   2.0000      -0.273834        -7.4514 
 216   2.0000      -0.263794        -7.1782 
 217   0.0000      -0.093596        -2.5469 
 218   0.0000      -0.091124        -2.4796 
 219   0.0000      -0.049923        -1.3585 
 220   0.0000      -0.047436        -1.2908 
 221   0.0000      -0.025092        -0.6828 
 222   0.0000      -0.015655        -0.4260 
 223   0.0000       0.011710         0.3186 
 224   0.0000       0.015940         0.4338 
 225   0.0000       0.035512         0.9663 
 226   0.0000       0.039885         1.0853 
 227   0.0000       0.045030         1.2253 
 228   0.0000       0.055287         1.5044 
 229   0.0000       0.055845         1.5196 
 230   0.0000       0.067653         1.8409 
 231   0.0000       0.070948         1.9306 
 232   0.0000       0.079575         2.1654 
 233   0.0000       0.081408         2.2152 
 234   0.0000       0.084510         2.2996 
 235   0.0000       0.087113         2.3705 
 236   0.0000       0.089810         2.4439 
 237   0.0000       0.091638         2.4936 
 238   0.0000       0.093095         2.5332 
 239   0.0000       0.097225         2.6456 
 240   0.0000       0.100813         2.7433 
 241   0.0000       0.104746         2.8503 
 242   0.0000       0.108483         2.9520 
 243   0.0000       0.112949         3.0735 
 244   0.0000       0.116109         3.1595 
 245   0.0000       0.122043         3.3210 
 246   0.0000       0.125466         3.4141 
 247   0.0000       0.127077         3.4579 
 248   0.0000       0.132395         3.6026 
 249   0.0000       0.138752         3.7756 
 250   0.0000       0.144110         3.9214 
 251   0.0000       0.148734         4.0472 
 252   0.0000       0.152864         4.1596 
 253   0.0000       0.154155         4.1948 
 254   0.0000       0.156100         4.2477 
 255   0.0000       0.156535         4.2595 
 256   0.0000       0.159821         4.3490 
 257   0.0000       0.161701         4.4001 
 258   0.0000       0.164052         4.4641 
 259   0.0000       0.166029         4.5179 
 260   0.0000       0.169937         4.6242 
 261   0.0000       0.171292         4.6611 
 262   0.0000       0.175139         4.7658 
 263   0.0000       0.177841         4.8393 
 264   0.0000       0.183133         4.9833 
 265   0.0000       0.184327         5.0158 
 266   0.0000       0.189344         5.1523 
 267   0.0000       0.189684         5.1616 
 268   0.0000       0.193823         5.2742 
 269   0.0000       0.200648         5.4599 
 270   0.0000       0.209383         5.6976 
 271   0.0000       0.217122         5.9082 
 272   0.0000       0.220800         6.0083 
 273   0.0000       0.223420         6.0796 
 274   0.0000       0.226683         6.1684 
 275   0.0000       0.228688         6.2229 
 276   0.0000       0.232470         6.3258 
 277   0.0000       0.235583         6.4105 
 278   0.0000       0.240668         6.5489 
 279   0.0000       0.241230         6.5642 
 280   0.0000       0.252637         6.8746 
 281   0.0000       0.256215         6.9720 
 282   0.0000       0.260059         7.0766 
 283   0.0000       0.264267         7.1911 
 284   0.0000       0.270142         7.3509 
 285   0.0000       0.277876         7.5614 
 286   0.0000       0.286999         7.8096 
 287   0.0000       0.290252         7.8982 
 288   0.0000       0.298290         8.1169 
 289   0.0000       0.305847         8.3225 
 290   0.0000       0.308874         8.4049 
 291   0.0000       0.312207         8.4956 
 292   0.0000       0.313848         8.5402 
 293   0.0000       0.315756         8.5922 
 294   0.0000       0.321144         8.7388 
 295   0.0000       0.323965         8.8155 
 296   0.0000       0.326916         8.8958 
 297   0.0000       0.331918         9.0319 
 298   0.0000       0.341290         9.2870 
 299   0.0000       0.346910         9.4399 
 300   0.0000       0.350334         9.5331 
 301   0.0000       0.351870         9.5749 
 302   0.0000       0.354174         9.6376 
 303   0.0000       0.356805         9.7092 
 304   0.0000       0.360516         9.8101 
 305   0.0000       0.366895         9.9837 
 306   0.0000       0.369900        10.0655 
 307   0.0000       0.372606        10.1391 
 308   0.0000       0.376818        10.2537 
 309   0.0000       0.381392        10.3782 
 310   0.0000       0.383389        10.4325 
 311   0.0000       0.388000        10.5580 
 312   0.0000       0.392603        10.6833 
 313   0.0000       0.394082        10.7235 
 314   0.0000       0.396857        10.7990 
 315   0.0000       0.404811        11.0155 
 316   0.0000       0.405591        11.0367 
 317   0.0000       0.409480        11.1425 
 318   0.0000       0.414528        11.2799 
 319   0.0000       0.419441        11.4136 
 320   0.0000       0.421311        11.4645 
 321   0.0000       0.430712        11.7203 
 322   0.0000       0.433708        11.8018 
 323   0.0000       0.437907        11.9161 
 324   0.0000       0.441850        12.0233 
 325   0.0000       0.450951        12.2710 
 326   0.0000       0.452881        12.3235 
 327   0.0000       0.455070        12.3831 
 328   0.0000       0.456942        12.4340 
 329   0.0000       0.462076        12.5737 
 330   0.0000       0.464421        12.6375 
 331   0.0000       0.469361        12.7720 
 332   0.0000       0.470134        12.7930 
 333   0.0000       0.470367        12.7993 
 334   0.0000       0.476223        12.9587 
 335   0.0000       0.479547        13.0491 
 336   0.0000       0.481541        13.1034 
 337   0.0000       0.484092        13.1728 
 338   0.0000       0.487387        13.2625 
 339   0.0000       0.490490        13.3469 
 340   0.0000       0.493594        13.4314 
 341   0.0000       0.495596        13.4859 
 342   0.0000       0.497305        13.5324 
 343   0.0000       0.498365        13.5612 
 344   0.0000       0.498476        13.5642 
 345   0.0000       0.501048        13.6342 
 346   0.0000       0.501549        13.6478 
 347   0.0000       0.507392        13.8068 
 348   0.0000       0.516825        14.0635 
 349   0.0000       0.521868        14.2007 
 350   0.0000       0.524148        14.2628 
 351   0.0000       0.525693        14.3048 
 352   0.0000       0.529090        14.3973 
 353   0.0000       0.531283        14.4570 
 354   0.0000       0.531735        14.4692 
 355   0.0000       0.536043        14.5865 
 356   0.0000       0.538013        14.6401 
 357   0.0000       0.539433        14.6787 
 358   0.0000       0.542532        14.7631 
 359   0.0000       0.546003        14.8575 
 360   0.0000       0.547187        14.8897 
 361   0.0000       0.550118        14.9695 
 362   0.0000       0.554533        15.0896 
 363   0.0000       0.557033        15.1576 
 364   0.0000       0.560400        15.2493 
 365   0.0000       0.565175        15.3792 
 366   0.0000       0.567649        15.4465 
 367   0.0000       0.570914        15.5354 
 368   0.0000       0.572543        15.5797 
 369   0.0000       0.575755        15.6671 
 370   0.0000       0.578765        15.7490 
 371   0.0000       0.583331        15.8732 
 372   0.0000       0.587581        15.9889 
 373   0.0000       0.590855        16.0780 
 374   0.0000       0.592324        16.1180 
 375   0.0000       0.596702        16.2371 
 376   0.0000       0.602426        16.3928 
 377   0.0000       0.604455        16.4481 
 378   0.0000       0.609904        16.5963 
 379   0.0000       0.615882        16.7590 
 380   0.0000       0.620755        16.8916 
 381   0.0000       0.623845        16.9757 
 382   0.0000       0.625429        17.0188 
 383   0.0000       0.627777        17.0827 
 384   0.0000       0.628496        17.1023 
 385   0.0000       0.630889        17.1674 
 386   0.0000       0.633794        17.2464 
 387   0.0000       0.637649        17.3513 
 388   0.0000       0.640140        17.4191 
 389   0.0000       0.643080        17.4991 
 390   0.0000       0.651100        17.7173 
 391   0.0000       0.654040        17.7973 
 392   0.0000       0.657110        17.8809 
 393   0.0000       0.657928        17.9031 
 394   0.0000       0.663385        18.0516 
 395   0.0000       0.666186        18.1278 
 396   0.0000       0.670023        18.2323 
 397   0.0000       0.671548        18.2737 
 398   0.0000       0.672272        18.2935 
 399   0.0000       0.673499        18.3268 
 400   0.0000       0.674523        18.3547 
 401   0.0000       0.677745        18.4424 
 402   0.0000       0.679539        18.4912 
 403   0.0000       0.684030        18.6134 
 404   0.0000       0.684657        18.6305 
 405   0.0000       0.687387        18.7047 
 406   0.0000       0.691283        18.8108 
 407   0.0000       0.694441        18.8967 
 408   0.0000       0.696296        18.9472 
 409   0.0000       0.698426        19.0051 
 410   0.0000       0.700752        19.0684 
 411   0.0000       0.702679        19.1209 
 412   0.0000       0.703870        19.1533 
 413   0.0000       0.704671        19.1751 
 414   0.0000       0.708785        19.2870 
 415   0.0000       0.710018        19.3206 
 416   0.0000       0.710994        19.3471 
 417   0.0000       0.714267        19.4362 
 418   0.0000       0.716996        19.5105 
 419   0.0000       0.720604        19.6086 
 420   0.0000       0.724042        19.7022 
 421   0.0000       0.725921        19.7533 
 422   0.0000       0.727208        19.7883 
 423   0.0000       0.730537        19.8789 
 424   0.0000       0.731201        19.8970 
 425   0.0000       0.734140        19.9770 
 426   0.0000       0.735843        20.0233 
 427   0.0000       0.738955        20.1080 
 428   0.0000       0.741615        20.1804 
 429   0.0000       0.742204        20.1964 
 430   0.0000       0.744381        20.2556 
 431   0.0000       0.746092        20.3022 
 432   0.0000       0.748560        20.3694 
 433   0.0000       0.751402        20.4467 
 434   0.0000       0.753819        20.5125 
 435   0.0000       0.755743        20.5648 
 436   0.0000       0.755974        20.5711 
 437   0.0000       0.758681        20.6448 
 438   0.0000       0.760313        20.6892 
 439   0.0000       0.761450        20.7201 
 440   0.0000       0.764243        20.7961 
 441   0.0000       0.770539        20.9674 
 442   0.0000       0.771883        21.0040 
 443   0.0000       0.772582        21.0230 
 444   0.0000       0.776840        21.1389 
 445   0.0000       0.777927        21.1685 
 446   0.0000       0.783112        21.3096 
 447   0.0000       0.784747        21.3541 
 448   0.0000       0.788819        21.4649 
 449   0.0000       0.792289        21.5593 
 450   0.0000       0.793711        21.5980 
 451   0.0000       0.794767        21.6267 
 452   0.0000       0.798026        21.7154 
 453   0.0000       0.807415        21.9709 
 454   0.0000       0.808668        22.0050 
 455   0.0000       0.813482        22.1360 
 456   0.0000       0.815075        22.1793 
 457   0.0000       0.815818        22.1995 
 458   0.0000       0.820015        22.3137 
 459   0.0000       0.823557        22.4101 
 460   0.0000       0.825286        22.4572 
 461   0.0000       0.828268        22.5383 
 462   0.0000       0.832479        22.6529 
 463   0.0000       0.838191        22.8083 
 464   0.0000       0.840391        22.8682 
 465   0.0000       0.843375        22.9494 
 466   0.0000       0.845242        23.0002 
 467   0.0000       0.851634        23.1741 
 468   0.0000       0.852452        23.1964 
 469   0.0000       0.856149        23.2970 
 470   0.0000       0.858706        23.3666 
 471   0.0000       0.861419        23.4404 
 472   0.0000       0.863371        23.4935 
 473   0.0000       0.865424        23.5494 
 474   0.0000       0.867905        23.6169 
 475   0.0000       0.869717        23.6662 
 476   0.0000       0.871919        23.7261 
 477   0.0000       0.879467        23.9315 
 478   0.0000       0.882602        24.0168 
 479   0.0000       0.885875        24.1059 
[...]

   2.059   2.125   3.631   2.014   4.493   2.078   1.779   4.291   2.132   1.735
   1.464   2.140   3.888   2.105   3.866   1.964   2.088   3.705   2.182   1.622
   1.436   3.001   2.070   3.208   2.152   2.059   2.157   2.075   2.000   3.059
   2.021   2.175   3.755   2.059   1.425   1.688   3.361   2.289   2.861   1.892
   1.971   2.093   1.826   4.437   2.077   2.017   3.640   2.156   2.061   1.700
   1.423   2.131   3.878   2.129   3.881   4.494   0.402   0.448   0.628   0.500
   0.544   0.536   0.645   0.539   0.502   0.493   0.511   0.539   0.651   0.611
   0.602   0.481   0.476   0.459   0.413

Number of electrons in sTDA:  150.000

ax(DF)   :  0.3800
s^k      :  2.0000
beta  (J):  1.8600
alpha (K):  0.9000

hardness table read
setting up gammas ...
computing q(ij,n)
memory needed for q data:             3.6 MB 
memory available for q data:       2489.0 MB 

CSF included by energy:           28 
CSF considered in PT2:          4022 

ordered frontier orbitals
           eV         # centers 
  64      -9.252      17.8
  65      -9.127       3.7
  66      -9.051       9.6
  67      -8.949      11.3
  68      -8.797       3.4
  69      -8.433      18.5
  70      -8.378      20.8
  71      -7.996       5.8
  72      -7.962       6.0
  73      -7.451      16.5
  74      -7.178      16.6

  75      -2.547      15.9
  76      -2.480      14.8
  77      -1.358      11.3
  78      -1.291      11.5
  79      -0.683      24.3
  80      -0.426      23.7
  81       0.319      15.7
  82       0.434      15.7
  83       0.966       6.2
  84       1.085      11.7
  85       1.225      28.3

           eV        nm       excitation i->a                     eV 
   0      2.98     416.5    74 ->  75      gap,J,K:    4.631     2.231     0.289
   1      3.01     411.5    74 ->  76      gap,J,K:    4.699     1.855     0.085
   2      3.14     395.1    73 ->  76      gap,J,K:    4.972     2.225     0.196
   3      3.25     381.3    73 ->  75      gap,J,K:    4.905     1.917     0.132
   4      3.37     368.3    71 ->  76      gap,J,K:    5.516     2.565     0.208
   5      3.44     360.3    72 ->  75      gap,J,K:    5.415     2.520     0.273
   6      3.95     313.6    71 ->  75      gap,J,K:    5.449     1.575     0.040
   7      4.00     309.6    74 ->  77      gap,J,K:    5.820     2.114     0.150
   8      4.02     308.5    72 ->  76      gap,J,K:    5.482     1.553     0.045
   9      4.04     306.8    65 ->  75      gap,J,K:    6.580     2.547     0.004
  10      4.16     297.8    68 ->  75      gap,J,K:    6.250     2.090     0.002
  11      4.33     286.6    69 ->  75      gap,J,K:    5.886     1.923     0.182
  12      4.36     284.3    70 ->  76      gap,J,K:    5.898     2.019     0.241
  13      4.36     284.1    73 ->  78      gap,J,K:    6.161     2.049     0.126
  14      4.37     283.5    74 ->  78      gap,J,K:    5.887     1.625     0.055
  15      4.42     280.7    70 ->  75      gap,J,K:    5.831     1.712     0.149
  16      4.42     280.4    68 ->  76      gap,J,K:    6.317     1.902     0.003
  17      4.43     280.2    63 ->  76      gap,J,K:    6.816     2.542     0.076
  18      4.45     278.4    67 ->  76      gap,J,K:    6.469     2.398     0.192
  19      4.46     278.1    72 ->  77      gap,J,K:    6.603     2.331     0.093
  20      4.50     275.5    71 ->  78      gap,J,K:    6.705     2.339     0.067
  21      4.54     272.8    73 ->  77      gap,J,K:    6.093     1.716     0.084
  22      4.57     271.2    66 ->  75      gap,J,K:    6.504     2.297     0.182
  23      4.57     271.1    69 ->  76      gap,J,K:    5.953     1.708     0.164
  24      4.64     267.3    65 ->  77      gap,J,K:    7.768     3.141     0.005

average / max PT2 energy lowering (eV):       0.041       0.089

CSF included by PT:                   195 
total number of CSF included:         223 
 
sTD-DFT procedure...
setting up A+B and A-B matrices...  done
estimated time (min):    0.000
calculating (A-B)^0.5 ... done
calculating (A+B)*(A-B)^0.5 ... done
calculating (A-B)^0.5 *(A+B)*(A-B)^0.5 ... done
diagonalizing ...using LAPACKE_ssyevr ...done

   33 roots found, lowest/highest eigenvalue :     2.481     4.951

excitation energies, transition moments and amplitudes

molecular weight:  852.756
state   eV        nm        fL         fV        Rl        RV
   0   2.481     499.8   0.962849   1.036982  -169.593882  -157.080011     0.46 (  74->  76)    0.32 (  73->  76)    0.19 (  73->  75)
   1   2.653     467.3   0.577720   0.636015  37.737406  49.806651     0.77 (  74->  75)    0.15 (  73->  76)    0.05 (  73->  75)
   2   3.014     411.4   0.133581   0.144475  37.303260  18.938230     0.79 (  71->  76)    0.13 (  71->  75)    0.03 (  74->  76)
   3   3.102     399.7   0.041773   0.041491   4.672003  10.331877     0.81 (  72->  75)    0.09 (  72->  76)    0.03 (  73->  75)
   4   3.227     384.2   0.035507   0.040444  -10.538794  -10.619528     0.54 (  73->  75)    0.28 (  74->  76)    0.03 (  72->  75)
   5   3.353     369.8   0.058774   0.060433  44.709640  47.764447     0.46 (  73->  76)    0.17 (  74->  76)    0.16 (  74->  75)
   6   3.539     350.3   0.002193   0.002045  -6.606428  -5.962859     0.52 (  65->  75)    0.20 (  68->  75)    0.10 (  65->  77)
   7   3.553     349.0   0.034025   0.031278   5.261030   5.755928     0.54 (  74->  77)    0.16 (  73->  77)    0.08 (  69->  75)
   8   3.596     344.8   0.011974   0.010758  -27.162892  -15.893917     0.29 (  70->  76)    0.18 (  69->  76)    0.12 (  73->  78)
   9   3.733     332.1   0.085531   0.080337  -27.738500  -20.944411     0.26 (  63->  76)    0.14 (  67->  76)    0.13 (  73->  78)
  10   3.791     327.1   0.211188   0.186164  134.427746  124.526171     0.43 (  69->  75)    0.21 (  70->  75)    0.10 (  74->  77)
  11   3.870     320.4   0.200812   0.178503  -67.013403  -66.516622     0.21 (  73->  78)    0.17 (  67->  76)    0.15 (  74->  78)
  12   3.964     312.7   0.000491   0.000607   1.859296   2.404291     0.36 (  68->  75)    0.32 (  71->  75)    0.09 (  65->  75)
  13   4.010     309.2   0.000815   0.000813  -5.052844  -5.608356     0.42 (  71->  75)    0.22 (  68->  75)    0.08 (  71->  76)
  14   4.041     306.8   0.002936   0.002275  -0.189117  -0.169984     0.77 (  72->  76)    0.08 (  72->  75)    0.04 (  68->  75)
  15   4.183     296.4   0.207995   0.183753  249.124341  227.355887     0.34 (  67->  76)    0.23 (  63->  76)    0.09 (  66->  75)
  16   4.197     295.4   0.034594   0.031143  -65.376488  -63.487375     0.32 (  65->  77)    0.29 (  66->  75)    0.07 (  68->  76)
  17   4.213     294.3   0.062282   0.055402  -97.744371  -92.514198     0.29 (  66->  75)    0.25 (  65->  77)    0.09 (  65->  75)
  18   4.291     288.9   0.009266   0.007474  27.854366  24.768012     0.55 (  68->  76)    0.06 (  65->  76)    0.06 (  63->  78)
  19   4.301     288.3   0.081885   0.069659  -2.588931  -6.440638     0.63 (  72->  77)    0.07 (  71->  78)    0.05 (  63->  78)
  20   4.313     287.4   0.069965   0.064874  97.988605  82.842092     0.22 (  72->  77)    0.19 (  63->  78)    0.13 (  71->  78)
  21   4.384     282.8   0.017125   0.014963  31.256257  28.120393     0.54 (  71->  78)    0.22 (  63->  78)    0.08 (  63->  76)
  22   4.482     276.6   0.002326   0.001919  15.339922  12.097410     0.27 (  74->  79)    0.23 (  74->  78)    0.09 (  73->  78)
  23   4.590     270.1   0.090407   0.078282  -7.642661  -6.596807     0.36 (  74->  80)    0.17 (  74->  79)    0.10 (  69->  77)
  24   4.611     268.9   0.053891   0.047162  62.642536  58.700564     0.23 (  73->  77)    0.13 (  64->  75)    0.12 (  73->  79)
  25   4.663     265.9   0.072809   0.062693  -305.744353  -285.475971     0.17 (  64->  76)    0.15 (  69->  75)    0.12 (  70->  76)
  26   4.706     263.5   0.569049   0.490798  -173.357892  -155.250815     0.11 (  64->  76)    0.10 (  73->  78)    0.08 (  69->  77)
  27   4.735     261.8   0.302110   0.260800  -94.624728  -92.144673     0.19 (  74->  80)    0.12 (  73->  79)    0.11 (  69->  77)
  28   4.782     259.3   0.270316   0.231772  926.148482  867.849059     0.22 (  70->  78)    0.14 (  74->  79)    0.10 (  69->  77)
  29   4.817     257.4   0.148076   0.125715  264.518792  233.800119     0.10 (  73->  77)    0.10 (  70->  78)    0.09 (  73->  79)
  30   4.845     255.9   0.322155   0.270443  -643.839730  -596.426344     0.15 (  74->  79)    0.13 (  64->  75)    0.10 (  74->  78)
  31   4.926     251.7   0.169245   0.142488  -171.411442  -159.685567     0.35 (  69->  76)    0.16 (  62->  76)    0.11 (  70->  76)
  32   4.951     250.4   0.012465   0.011278   5.616059   5.064122     0.29 (  73->  79)    0.13 (  74->  78)    0.08 (  74->  80)

-----------------------------------------------------------------------------
         ABSORPTION SPECTRUM VIA TRANSITION ELECTRIC DIPOLE MOMENTS
-----------------------------------------------------------------------------
State   Energy  Wavelength   fosc         T2         TX        TY        TZ  
        (cm-1)    (nm)                  (au**2)     (au)      (au)      (au) 
-----------------------------------------------------------------------------
   0   20009.7    499.8   0.962849035  15.84136  -3.57428   1.72045  -0.32544
   1   21398.9    467.3   0.577719841   8.88795   2.60827  -1.22978  -0.75666
   2   24305.9    411.4   0.133580602   1.80929  -0.51256   0.98696  -0.75662
   3   25020.8    399.7   0.041773316   0.54963  -0.40680  -0.27564   0.55513
   4   26030.4    384.2   0.035506927   0.44906   0.63662  -0.20920  -0.00372
   5   27039.9    369.8   0.058774374   0.71558   0.50181   0.16354  -0.66107
   6   28545.8    350.3   0.002193415   0.02530   0.01680  -0.15814  -0.00217
   7   28654.7    349.0   0.034025469   0.39092  -0.01840  -0.25827   0.56910
   8   29003.3    344.8   0.011974019   0.13592   0.28060   0.16521   0.17287
   9   30107.8    332.1   0.085531257   0.93524   0.67406  -0.42483  -0.54809
  10   30575.3    327.1   0.211188263   2.27392  -0.99796   0.00746   1.13046
  11   31211.1    320.4   0.200811792   2.11815  -0.88104   1.15477   0.09169
  12   31974.9    312.7   0.000491381   0.00506  -0.02594  -0.00559  -0.06599
  13   32339.2    309.2   0.000814898   0.00830  -0.08958   0.01561  -0.00530
  14   32590.7    306.8   0.002935975   0.02966   0.11383  -0.03238  -0.12511
  15   33737.8    296.4   0.207995322   2.02961  -0.80095   0.86029   0.80497
  16   33850.8    295.4   0.034593770   0.33644   0.07278   0.32775  -0.47299
  17   33980.3    294.3   0.062281501   0.60340  -0.04304   0.56668  -0.52955
  18   34610.6    288.9   0.009266487   0.08814  -0.11424  -0.06266   0.26677
  19   34691.5    288.3   0.081884811   0.77706   0.68453  -0.50186  -0.23795
  20   34788.7    287.4   0.069964728   0.66209  -0.38430   0.43503   0.57021
  21   35355.4    282.8   0.017124644   0.15946  -0.36539  -0.08758   0.13520
  22   36151.2    276.6   0.002326301   0.02118  -0.09521  -0.09729  -0.05152
  23   37017.1    270.1   0.090407322   0.80404   0.73184  -0.10286  -0.50781
  24   37189.6    268.9   0.053891022   0.47706   0.46807  -0.05461  -0.50496
  25   37609.3    265.9   0.072809450   0.63734   0.03699   0.63511  -0.48228
  26   37955.8    263.5   0.569048965   4.93568   0.37443  -1.42881   1.65952
  27   38191.4    261.8   0.302110111   2.60421   1.30546  -0.94408   0.09326
  28   38566.7    259.3   0.270315831   2.30746  -0.54134   0.93530   1.06753
  29   38854.6    257.4   0.148076163   1.25464   0.00042  -1.07786  -0.30474
  30   39081.0    255.9   0.322154743   2.71378  -0.01597  -1.38961   0.88459
  31   39727.7    251.7   0.169244980   1.40248  -0.19122  -0.89402   0.75276
  32   39931.8    250.4   0.012464863   0.10276  -0.16460  -0.14519   0.23365

-----------------------------------------------------------------------------
         ABSORPTION SPECTRUM VIA TRANSITION VELOCITY DIPOLE MOMENTS
-----------------------------------------------------------------------------
State   Energy  Wavelength   fosc         P2         PX        PY        PZ  
        (cm-1)    (nm)                  (au**2)     (au)      (au)      (au) 
-----------------------------------------------------------------------------
   0   20009.7    499.8   1.036981803   0.14181  -0.33662   0.16549  -0.03336
   1   21398.9    467.3   0.636015155   0.09302   0.26750  -0.12351  -0.07878
   2   24305.9    411.4   0.144475236   0.02400  -0.06303   0.11147  -0.08718
   3   25020.8    399.7   0.041490693   0.00710  -0.05344  -0.02643   0.05950
   4   26030.4    384.2   0.040444309   0.00720   0.08036  -0.02716   0.00002
   5   27039.9    369.8   0.060433273   0.01117   0.06042   0.02300  -0.08360
   6   28545.8    350.3   0.002045395   0.00040   0.00330  -0.01965  -0.00150
   7   28654.7    349.0   0.031278156   0.00613  -0.00502  -0.03113   0.07163
   8   29003.3    344.8   0.010757714   0.00213   0.03400   0.01831   0.02532
   9   30107.8    332.1   0.080337281   0.01653   0.09067  -0.05488  -0.07278
  10   30575.3    327.1   0.186163988   0.03890  -0.12930   0.00090   0.14894
  11   31211.1    320.4   0.178502831   0.03808  -0.11785   0.15510   0.01142
  12   31974.9    312.7   0.000606969   0.00013  -0.00265  -0.00302  -0.01080
  13   32339.2    309.2   0.000812549   0.00018  -0.01337   0.00091   0.00026
  14   32590.7    306.8   0.002275005   0.00051   0.01522  -0.00449  -0.01597
  15   33737.8    296.4   0.183752887   0.04237  -0.11414   0.12547   0.11662
  16   33850.8    295.4   0.031142813   0.00721   0.00820   0.04695  -0.07024
  17   33980.3    294.3   0.055401828   0.01287  -0.00538   0.08328  -0.07682
  18   34610.6    288.9   0.007474275   0.00177  -0.01615  -0.00873   0.03783
  19   34691.5    288.3   0.069659179   0.01652   0.09883  -0.07427  -0.03511
  20   34788.7    287.4   0.064873523   0.01542  -0.05690   0.06822   0.08679
  21   35355.4    282.8   0.014962529   0.00362  -0.05409  -0.01496   0.02158
  22   36151.2    276.6   0.001918581   0.00047  -0.01373  -0.01624  -0.00466
  23   37017.1    270.1   0.078281515   0.01980   0.11508  -0.01746  -0.07909
  24   37189.6    268.9   0.047161613   0.01199   0.07111  -0.00696  -0.08296
  25   37609.3    265.9   0.062693056   0.01611   0.00854   0.10017  -0.07751
  26   37955.8    263.5   0.490798097   0.12732   0.06015  -0.23072   0.26546
  27   38191.4    261.8   0.260800051   0.06807   0.21110  -0.15278   0.01303
  28   38566.7    259.3   0.231771510   0.06109  -0.08736   0.15084   0.17523
  29   38854.6    257.4   0.125715424   0.03338   0.00121  -0.17628  -0.04805
  30   39081.0    255.9   0.270443206   0.07224  -0.00531  -0.22576   0.14573
  31   39727.7    251.7   0.142487774   0.03869  -0.03381  -0.14749   0.12567
  32   39931.8    250.4   0.011278288   0.00308  -0.02862  -0.02428   0.04086

-------------------------------------------------------------------
                             CD SPECTRUM
-------------------------------------------------------------------
State   Energy Wavelength       R         MX        MY        MZ   
        (cm-1)   (nm)       (1e40*cgs)   (au)      (au)      (au)  
-------------------------------------------------------------------
   0   20009.7    499.8    -169.59388  -0.99991  -1.54308   0.61367
   1   21398.9    467.3     37.73741  -1.20705  -1.94951  -0.78074
   2   24305.9    411.4     37.30326  -1.18589  -2.05748  -1.67131
   3   25020.8    399.7      4.67200   0.57268   0.88537   0.82357
   4   26030.4    384.2    -10.53879   0.14360   0.22789  -0.25920
   5   27039.9    369.8     44.70964  -1.18834  -1.97707  -1.10425
   6   28545.8    350.3     -6.60643   0.00624  -0.17877   0.16136
   7   28654.7    349.0      5.26103   0.35544   0.42106   0.16336
   8   29003.3    344.8    -27.16289   0.50613   0.74307  -0.86510
   9   30107.8    332.1    -27.73850  -0.91433  -1.55065  -0.13723
  10   30575.3    327.1    134.42775   0.73746   0.86841   0.14082
  11   31211.1    320.4    -67.01340   0.43515   0.73256  -1.94416
  12   31974.9    312.7      1.85930  -0.21442  -0.06988   0.20972
  13   32339.2    309.2     -5.05284  -0.27620  -0.20840   0.00983
  14   32590.7    306.8     -0.18912  -0.31038  -0.60532  -0.13213
  15   33737.8    296.4    249.12434   1.57568   2.22509  -2.12311
  16   33850.8    295.4    -65.37649  -0.40153   0.40376  -0.36838
  17   33980.3    294.3    -97.74437   0.39773   0.24646  -0.55163
  18   34610.6    288.9     27.85437   0.60249   0.97357   0.04373
  19   34691.5    288.3     -2.58893  -1.08114  -1.62650   0.27407
  20   34788.7    287.4     97.98861   1.85442   2.29734  -1.23191
  21   35355.4    282.8     31.25626   0.66451   0.88100   1.38585
  22   36151.2    276.6     15.33992   0.13398   0.25263   0.53847
  23   37017.1    270.1     -7.64266  -0.19509   0.07994  -0.36120
  24   37189.6    268.9     62.64254  -0.21896   0.09684   0.31283
  25   37609.3    265.9    -305.74435   1.02844   1.89007  -0.12151
  26   37955.8    263.5    -173.35789   1.44392   1.89797   1.75148
  27   38191.4    261.8    -94.62473  -1.88167  -3.15874  -1.33199
  28   38566.7    259.3    926.14848   2.19123   1.97838  -4.30261
  29   38854.6    257.4    264.51879  -1.01094  -0.39917   5.09285
  30   39081.0    255.9    -643.83973  -0.19452   0.01332   3.10511
  31   39727.7    251.7    -171.41144   0.81880   1.57075   3.03953
  32   39931.8    250.4      5.61606   0.22735   0.19848   0.18153

sTD-DFT done

Total run time:        1.787 sec

           *** ORCA-CIS/TD-DFT FINISHED WITHOUT ERROR ***

-------------------------   --------------------
FINAL SINGLE POINT ENERGY     -4732.143883197706
-------------------------   --------------------


                            ***************************************
                            *     ORCA property calculations      *
                            ***************************************

                                    ---------------------
                                    Active property flags
                                    ---------------------
   (+) Dipole Moment


------------------------------------------------------------------------------
                       ORCA ELECTRIC PROPERTIES CALCULATION
------------------------------------------------------------------------------

Dipole Moment Calculation                       ... on
Quadrupole Moment Calculation                   ... off
Polarizability Calculation                      ... off
GBWName                                         ... xtbopt.gbw
Electron density file                           ... xtbopt.scfp
The origin for moment calculation is the CENTER OF MASS  = (14.197969, -11.198028  2.944967)

-------------
DIPOLE MOMENT
-------------
                                X             Y             Z
Electronic contribution:     -8.05983     -41.63562      35.82410
Nuclear contribution   :      9.51791      41.78714     -36.95716
                        -----------------------------------------
Total Dipole Moment    :      1.45808       0.15152      -1.13307
                        -----------------------------------------
Magnitude (a.u.)       :      1.85278
Magnitude (Debye)      :      4.70940



--------------------
Rotational spectrum 
--------------------
 
Rotational constants in cm-1:     0.002860     0.000407     0.000369 
Rotational constants in MHz :    85.741181    12.203096    11.058348 

 Dipole components along the rotational axes: 
x,y,z [a.u.] :    -1.352858    -1.265330     0.039033 
x,y,z [Debye]:    -3.438692    -3.216213     0.099213 

 

Timings for individual modules:

Sum of individual times         ...      394.174 sec (=   6.570 min)
GTO integral calculation        ...        5.953 sec (=   0.099 min)   1.5 %
SCF iterations                  ...      384.967 sec (=   6.416 min)  97.7 %
CIS module                      ...        3.253 sec (=   0.054 min)   0.8 %
                             ****ORCA TERMINATED NORMALLY****
TOTAL RUN TIME: 0 days 0 hours 6 minutes 35 seconds 103 msec
