
                                 *****************
                                 * O   R   C   A *
                                 *****************

           --- An Ab Initio, DFT and Semiempirical electronic structure package ---

                  #######################################################
                  #                        -***-                        #
                  #          Department of theory and spectroscopy      #
                  #               Directorship: Frank Neese             #
                  #        Max Planck Institute fuer Kohlenforschung    #
                  #                Kaiser Wilhelm Platz 1               #
                  #                 D-45470 Muelheim/Ruhr               #
                  #                      Germany                        #
                  #                                                     #
                  #                  All rights reserved                #
                  #                        -***-                        #
                  #######################################################


                         Program Version 4.2.0 -  RELEASE  -


 With contributions from (in alphabetic order):
   Daniel Aravena         : Magnetic Suceptibility
   Michael Atanasov       : Ab Initio Ligand Field Theory (pilot matlab implementation)
   Alexander A. Auer      : GIAO ZORA, VPT2
   Ute Becker             : Parallelization
   Giovanni Bistoni       : ED, misc. LED, open-shell LED, HFLED
   Martin Brehm           : Molecular dynamics
   Dmytro Bykov           : SCF Hessian
   Vijay G. Chilkuri      : MRCI spin determinant printing, contributions to CSF-ICE
   Dipayan Datta          : RHF DLPNO-CCSD density
   Achintya Kumar Dutta   : EOM-CC, STEOM-CC
   Dmitry Ganyushin       : Spin-Orbit,Spin-Spin,Magnetic field MRCI
   Miquel Garcia          : C-PCM Hessian, Gaussian charge scheme
   Yang Guo               : DLPNO-NEVPT2, CIM, IAO-localization
   Andreas Hansen         : Spin unrestricted coupled pair/coupled cluster methods
   Benjamin Helmich-Paris : CASSCF linear response (MC-RPA)
   Lee Huntington         : MR-EOM, pCC
   Robert Izsak           : Overlap fitted RIJCOSX, COSX-SCS-MP3, EOM
   Christian Kollmar      : KDIIS, OOCD, Brueckner-CCSD(T), CCSD density
   Simone Kossmann        : Meta GGA functionals, TD-DFT gradient, OOMP2, MP2 Hessian
   Martin Krupicka        : AUTO-CI
   Lucas Lang             : DCDCAS
   Dagmar Lenk            : GEPOL surface, SMD
   Dimitrios Liakos       : Extrapolation schemes; Compound Job, initial MDCI parallelization
   Dimitrios Manganas     : Further ROCIS development; embedding schemes
   Dimitrios Pantazis     : SARC Basis sets
   Taras Petrenko         : DFT Hessian,TD-DFT gradient, ASA, ECA, R-Raman, ABS, FL, XAS/XES, NRVS
   Peter Pinski           : DLPNO-MP2, DLPNO-MP2 Gradient
   Christoph Reimann      : Effective Core Potentials
   Marius Retegan         : Local ZFS, SOC
   Christoph Riplinger    : Optimizer, TS searches, QM/MM, DLPNO-CCSD(T), (RO)-DLPNO pert. Triples
   Tobias Risthaus        : Range-separated hybrids, TD-DFT gradient, RPA, STAB
   Michael Roemelt        : Original ROCIS implementation
   Masaaki Saitow         : Open-shell DLPNO-CCSD energy and density
   Barbara Sandhoefer     : DKH picture change effects
   Avijit Sen             : IP-ROCIS
   Kantharuban Sivalingam : CASSCF convergence, NEVPT2, FIC-MRCI
   Bernardo de Souza      : ESD, SOC TD-DFT
   Georgi Stoychev        : AutoAux, RI-MP2 NMR
   Willem Van den Heuvel  : Paramagnetic NMR
   Boris Wezisla          : Elementary symmetry handling
   Frank Wennmohs         : Technical directorship


 We gratefully acknowledge several colleagues who have allowed us to
 interface, adapt or use parts of their codes:
   Stefan Grimme, W. Hujo, H. Kruse,             : VdW corrections, initial TS optimization,
                  C. Bannwarth                     DFT functionals, gCP, sTDA/sTD-DF
   Ed Valeev, F. Pavosevic, A. Kumar             : LibInt (2-el integral package), F12 methods
   Garnet Chan, S. Sharma, J. Yang, R. Olivares  : DMRG
   Ulf Ekstrom                                   : XCFun DFT Library
   Mihaly Kallay                                 : mrcc  (arbitrary order and MRCC methods)
   Andreas Klamt, Michael Diedenhofen            : otool_cosmo (COSMO solvation model)
   Jiri Pittner, Ondrej Demel                    : Mk-CCSD
   Frank Weinhold                                : gennbo (NPA and NBO analysis)
   Christopher J. Cramer and Donald G. Truhlar   : smd solvation model
   Lars Goerigk                                  : TD-DFT with DH, B97 family of functionals
   V. Asgeirsson, H. Jonsson                     : NEB implementation
   FAccTs GmbH                                   : IRC, NEB, NEB-TS, Multilevel, MM, QM/MM, CI optimization
   S Lehtola, MJT Oliveira, MAL Marques          : LibXC Library


 Your calculation uses the libint2 library for the computation of 2-el integrals
 For citations please refer to: http://libint.valeyev.net

 Your ORCA version has been built with support for libXC version: 4.2.3
 For citations please refer to: https://tddft.org/programs/libxc/

 This ORCA versions uses:
   CBLAS   interface :  Fast vector & matrix operations
   LAPACKE interface :  Fast linear algebra routines
   SCALAPACK package :  Parallel linear algebra routines


XCFun DFT library Copyright 2009-2010 Ulf Ekstrom and contributors.
See http://admol.org/xcfun for more information. This is free soft-
ware; see the source code for copying conditions. There is ABSOLUTELY
NO WARRANTY; not even for MERCHANTABILITY or FITNESS FOR A PARTICULAR
PURPOSE. For details see the documentation. Scientific users of this 
library should cite U. Ekstrom, L. Visscher, R. Bast, A. J. Thorvald-
sen and K. Ruud; J.Chem.Theor.Comp. 2010, DOI: 10.1021/ct100117s
XCFun Version 0.99 
----- Orbital basis set information -----
Your calculation utilizes the basis: def2-SVP
   F. Weigend and R. Ahlrichs, Phys. Chem. Chem. Phys. 7, 3297 (2005).

----- AuxJ basis set information -----
Your calculation utilizes the auxiliary basis: def2/J
   F. Weigend, Phys. Chem. Chem. Phys. 8, 1057 (2006).

================================================================================
                                        WARNINGS
                       Please study these warnings very carefully!
================================================================================

INFO   : Checking CIS options ...

WARNING: CIS/ROCIS methods need fully converged wavefunctions
  ===> : Setting SCFConvForced true
         You can overwrite this default with %scf ConvForced false 


INFO   : the flag for use of LIBINT has been found!

================================================================================
                                       INPUT FILE
================================================================================
NAME = xtbopt.inp
|  1> # ORCA input file
|  2> # SCF done       -125.098274726504          0.000422552118
|  3> ! CAM-B3LYP def2-SVP def2/J RIJCOSX Grid4 TightSCF
|  4> %maxcore 5000
|  5> %tddft
|  6>     Mode sTDDFT
|  7>     Ethresh 5.0
|  8>     maxcore 5000
|  9> end
| 10> 
| 11> %pal
| 12>   nprocs 6
| 13>   end
| 14> * xyz 0 1
| 15>    C        3.91101        -4.61118        -1.37910
| 16>    S        2.22847        -4.81992        -1.51456
| 17>    C        1.84168        -4.17366         0.07915
| 18>    C        2.94201        -3.76207         0.80962
| 19>    S        4.51883        -3.94304         0.05697
| 20>    C        3.14322        -3.17593         2.12377
| 21>    O        4.30035        -2.93319         2.44391
| 22>    C        1.98852        -2.88126         3.03990
| 23>    C        0.47742        -4.13184         0.46029
| 24>    C       -0.54181        -4.53967        -0.33688
| 25>    C       -1.93971        -4.51011        -0.00521
| 26>    C       -2.87701        -4.89083        -0.97331
| 27>    C       -4.23881        -4.85540        -0.68534
| 28>    C       -4.59901        -4.43299         0.60469
| 29>    N       -3.72951        -4.08228         1.52951
| 30>    C       -2.44415        -4.11614         1.24459
| 31>    C       -5.25681        -5.21512        -1.64585
| 32>    S       -6.93426        -5.02389        -1.22970
| 33>    C       -7.46605        -5.58916        -2.76414
| 34>    C       -6.38600        -5.92681        -3.55408
| 35>    C       -5.12244        -5.72428        -2.92590
| 36>    O       -3.90125        -5.95283        -3.45132
| 37>    C       -3.76297        -6.34977        -4.80979
| 38>    C       -2.28743        -6.24050        -5.15875
| 39>    O       -6.53120        -6.46568        -4.81016
| 40>    N       -7.13911        -7.77164        -4.87702
| 41>    O       -7.22714        -8.16445        -5.98198
| 42>    O       -7.44846        -8.25408        -3.84498
| 43>    C       -8.87604        -5.66845        -3.08314
| 44>    C       -9.80950        -5.83599        -2.07282
| 45>    C      -11.17915        -5.91757        -2.38679
| 46>    C      -11.51175        -5.83568        -3.76341
| 47>    N      -10.63043        -5.65287        -4.71185
| 48>    C       -9.34798        -5.55958        -4.40322
| 49>    C      -12.15608        -6.07393        -1.39279
| 50>    S      -13.85389        -6.18710        -1.74040
| 51>    C      -14.39400        -6.28236        -0.08726
| 52>    C      -13.43082        -6.30012         0.87717
| 53>    S      -11.76724        -6.16647         0.30718
| 54>    C      -13.62469        -6.55164         2.31507
| 55>    O      -14.71670        -6.69449         2.82093
| 56>    C      -12.35004        -6.64120         3.11362
| 57>    C      -15.84049        -6.33832         0.05300
| 58>    C      -16.55301        -5.67772         0.95443
| 59>    H        4.55457        -4.89742        -2.18428
| 60>    H        1.30362        -2.17488         2.57474
| 61>    H        2.38175        -2.44475         3.95497
| 62>    H        1.45380        -3.79693         3.28484
| 63>    H        0.26020        -3.74590         1.44030
| 64>    H       -0.30900        -4.91712        -1.32588
| 65>    H       -2.53830        -5.20527        -1.94646
| 66>    H       -5.64046        -4.38134         0.89525
| 67>    H       -1.78976        -3.82013         2.05239
| 68>    H       -4.36001        -5.69914        -5.45775
| 69>    H       -4.10120        -7.38596        -4.93519
| 70>    H       -1.94926        -5.21438        -5.03943
| 71>    H       -2.13358        -6.54775        -6.18871
| 72>    H       -1.70084        -6.88101        -4.50516
| 73>    H       -9.48588        -5.91735        -1.04460
| 74>    H      -12.54380        -5.91851        -4.07863
| 75>    H       -8.68228        -5.36584        -5.23140
| 76>    H      -11.72782        -7.45253         2.73939
| 77>    H      -12.59307        -6.82172         4.15732
| 78>    H      -11.78614        -5.71410         3.02337
| 79>    H      -16.33376        -6.92026        -0.71568
| 80>    H      -16.09879        -5.05839         1.70639
| 81>    H      -17.62631        -5.75116         0.96886
| 82> *
| 83> 
| 84>                          ****END OF INPUT****
================================================================================

                       ****************************
                       * Single Point Calculation *
                       ****************************

---------------------------------
CARTESIAN COORDINATES (ANGSTROEM)
---------------------------------
  C      3.911010   -4.611180   -1.379100
  S      2.228470   -4.819920   -1.514560
  C      1.841680   -4.173660    0.079150
  C      2.942010   -3.762070    0.809620
  S      4.518830   -3.943040    0.056970
  C      3.143220   -3.175930    2.123770
  O      4.300350   -2.933190    2.443910
  C      1.988520   -2.881260    3.039900
  C      0.477420   -4.131840    0.460290
  C     -0.541810   -4.539670   -0.336880
  C     -1.939710   -4.510110   -0.005210
  C     -2.877010   -4.890830   -0.973310
  C     -4.238810   -4.855400   -0.685340
  C     -4.599010   -4.432990    0.604690
  N     -3.729510   -4.082280    1.529510
  C     -2.444150   -4.116140    1.244590
  C     -5.256810   -5.215120   -1.645850
  S     -6.934260   -5.023890   -1.229700
  C     -7.466050   -5.589160   -2.764140
  C     -6.386000   -5.926810   -3.554080
  C     -5.122440   -5.724280   -2.925900
  O     -3.901250   -5.952830   -3.451320
  C     -3.762970   -6.349770   -4.809790
  C     -2.287430   -6.240500   -5.158750
  O     -6.531200   -6.465680   -4.810160
  N     -7.139110   -7.771640   -4.877020
  O     -7.227140   -8.164450   -5.981980
  O     -7.448460   -8.254080   -3.844980
  C     -8.876040   -5.668450   -3.083140
  C     -9.809500   -5.835990   -2.072820
  C    -11.179150   -5.917570   -2.386790
  C    -11.511750   -5.835680   -3.763410
  N    -10.630430   -5.652870   -4.711850
  C     -9.347980   -5.559580   -4.403220
  C    -12.156080   -6.073930   -1.392790
  S    -13.853890   -6.187100   -1.740400
  C    -14.394000   -6.282360   -0.087260
  C    -13.430820   -6.300120    0.877170
  S    -11.767240   -6.166470    0.307180
  C    -13.624690   -6.551640    2.315070
  O    -14.716700   -6.694490    2.820930
  C    -12.350040   -6.641200    3.113620
  C    -15.840490   -6.338320    0.053000
  C    -16.553010   -5.677720    0.954430
  H      4.554570   -4.897420   -2.184280
  H      1.303620   -2.174880    2.574740
  H      2.381750   -2.444750    3.954970
  H      1.453800   -3.796930    3.284840
  H      0.260200   -3.745900    1.440300
  H     -0.309000   -4.917120   -1.325880
  H     -2.538300   -5.205270   -1.946460
  H     -5.640460   -4.381340    0.895250
  H     -1.789760   -3.820130    2.052390
  H     -4.360010   -5.699140   -5.457750
  H     -4.101200   -7.385960   -4.935190
  H     -1.949260   -5.214380   -5.039430
  H     -2.133580   -6.547750   -6.188710
  H     -1.700840   -6.881010   -4.505160
  H     -9.485880   -5.917350   -1.044600
  H    -12.543800   -5.918510   -4.078630
  H     -8.682280   -5.365840   -5.231400
  H    -11.727820   -7.452530    2.739390
  H    -12.593070   -6.821720    4.157320
  H    -11.786140   -5.714100    3.023370
  H    -16.333760   -6.920260   -0.715680
  H    -16.098790   -5.058390    1.706390
  H    -17.626310   -5.751160    0.968860

----------------------------
CARTESIAN COORDINATES (A.U.)
----------------------------
  NO LB      ZA    FRAG     MASS         X           Y           Z
   0 C     6.0000    0    12.011    7.390738   -8.713867   -2.606121
   1 S    16.0000    0    32.060    4.211198   -9.108329   -2.862104
   2 C     6.0000    0    12.011    3.480271   -7.887074    0.149572
   3 C     6.0000    0    12.011    5.559593   -7.109282    1.529960
   4 S    16.0000    0    32.060    8.539351   -7.451266    0.107658
   5 C     6.0000    0    12.011    5.939825   -6.001638    4.013344
   6 O     8.0000    0    15.999    8.126484   -5.542926    4.618321
   7 C     6.0000    0    12.011    3.757758   -5.444792    5.744578
   8 C     6.0000    0    12.011    0.902193   -7.808046    0.869822
   9 C     6.0000    0    12.011   -1.023873   -8.578733   -0.636611
  10 C     6.0000    0    12.011   -3.665521   -8.522873   -0.009845
  11 C     6.0000    0    12.011   -5.436761   -9.242329   -1.839289
  12 C     6.0000    0    12.011   -8.010190   -9.175376   -1.295105
  13 C     6.0000    0    12.011   -8.690869   -8.377137    1.142698
  14 N     7.0000    0    14.007   -7.047753   -7.714391    2.890355
  15 C     6.0000    0    12.011   -4.618774   -7.778377    2.351934
  16 C     6.0000    0    12.011   -9.933931   -9.855149   -3.110206
  17 S    16.0000    0    32.060  -13.103852   -9.493776   -2.323796
  18 C     6.0000    0    12.011  -14.108790  -10.561982   -5.223468
  19 C     6.0000    0    12.011  -12.067791  -11.200048   -6.716238
  20 C     6.0000    0    12.011   -9.680009  -10.817322   -5.529150
  21 O     8.0000    0    15.999   -7.372294  -11.249218   -6.522050
  22 C     6.0000    0    12.011   -7.110983  -11.999326   -9.089186
  23 C     6.0000    0    12.011   -4.322616  -11.792836   -9.748625
  24 O     8.0000    0    15.999  -12.342179  -12.218364   -9.089885
  25 N     7.0000    0    14.007  -13.490963  -14.686271   -9.216232
  26 O     8.0000    0    15.999  -13.657315  -15.428575  -11.304304
  27 O     8.0000    0    15.999  -14.075550  -15.597951   -7.265959
  28 C     6.0000    0    12.011  -16.773285  -10.711818   -5.826290
  29 C     6.0000    0    12.011  -18.537269  -11.028423   -3.917062
  30 C     6.0000    0    12.011  -21.125532  -11.182587   -4.510379
  31 C     6.0000    0    12.011  -21.754055  -11.027837   -7.111814
  32 N     7.0000    0    14.007  -20.088601  -10.682376   -8.904106
  33 C     6.0000    0    12.011  -17.665122  -10.506084   -8.320880
  34 C     6.0000    0    12.011  -22.971662  -11.478064   -2.631992
  35 S    16.0000    0    32.060  -26.180058  -11.691925   -3.288879
  36 C     6.0000    0    12.011  -27.200718  -11.871940   -0.164898
  37 C     6.0000    0    12.011  -25.380572  -11.905501    1.657611
  38 S    16.0000    0    32.060  -22.236861  -11.652940    0.580486
  39 C     6.0000    0    12.011  -25.746933  -12.380805    4.374848
  40 O     8.0000    0    15.999  -27.810533  -12.650753    5.330785
  41 C     6.0000    0    12.011  -23.338193  -12.550049    5.883889
  42 C     6.0000    0    12.011  -29.934188  -11.977689    0.100155
  43 C     6.0000    0    12.011  -31.280656  -10.729336    1.803611
  44 H     1.0000    0     1.008    8.606890   -9.254783   -4.127691
  45 H     1.0000    0     1.008    2.463485   -4.109928    4.865553
  46 H     1.0000    0     1.008    4.500855   -4.619908    7.473810
  47 H     1.0000    0     1.008    2.747284   -7.175158    6.207448
  48 H     1.0000    0     1.008    0.491707   -7.078725    2.721773
  49 H     1.0000    0     1.008   -0.583925   -9.292010   -2.505550
  50 H     1.0000    0     1.008   -4.796692   -9.836535   -3.678276
  51 H     1.0000    0     1.008  -10.658925   -8.279533    1.691777
  52 H     1.0000    0     1.008   -3.382156   -7.218999    3.878455
  53 H     1.0000    0     1.008   -8.239225  -10.769814  -10.313653
  54 H     1.0000    0     1.008   -7.750145  -13.957442   -9.326158
  55 H     1.0000    0     1.008   -3.683568   -9.853750   -9.523143
  56 H     1.0000    0     1.008   -4.031882  -12.373454  -11.694967
  57 H     1.0000    0     1.008   -3.214122  -13.003224   -8.513519
  58 H     1.0000    0     1.008  -17.925715  -11.182171   -1.974008
  59 H     1.0000    0     1.008  -23.704347  -11.184363   -7.707494
  60 H     1.0000    0     1.008  -16.407131  -10.139968   -9.885913
  61 H     1.0000    0     1.008  -22.162368  -14.083241    5.176697
  62 H     1.0000    0     1.008  -23.797453  -12.891183    7.856196
  63 H     1.0000    0     1.008  -22.272577  -10.798084    5.713341
  64 H     1.0000    0     1.008  -30.866333  -13.077396   -1.352439
  65 H     1.0000    0     1.008  -30.422304   -9.558972    3.224610
  66 H     1.0000    0     1.008  -33.308899  -10.868117    1.830880

--------------------------------
INTERNAL COORDINATES (ANGSTROEM)
--------------------------------
 C      0   0   0     0.000000000000     0.00000000     0.00000000
 S      1   0   0     1.700841747724     0.00000000     0.00000000
 C      2   1   0     1.762716669179    95.74291907     0.00000000
 C      3   2   1     1.383372277408   114.32784130     0.03433977
 S      1   2   3     1.696512085692   118.04542623     0.00000000
 C      4   3   2     1.452940393203   135.05401988   179.67930618
 O      6   4   3     1.224892715343   116.56193552   180.18107535
 C      6   4   3     1.503148920034   121.59800276     0.06397464
 C      3   2   1     1.417117482639   117.72515207   179.94577497
 C      9   3   2     1.356700081337   123.80251225   358.93185780
 C     10   9   3     1.437011897132   126.08672562   180.48315128
 C     11  10   9     1.400248770183   119.07772464   176.04985133
 C     12  11  10     1.392365342071   120.31655123   180.83251772
 C     13  12  11     1.404404375171   116.64616376   359.63017227
 N     14  13  12     1.316935756406   123.76722112   359.80599339
 C     15  14  13     1.316995153977   119.05262510     0.38775796
 C     13  12  11     1.445095823293   123.03737427   179.00949369
 S     17  13  12     1.738846812661   119.54655286   184.58576117
 C     18  17  13     1.719545547696    92.78724673   179.14075116
 C     19  18  17     1.380043741553   110.43712296     0.76555332
 C     17  13  12     1.384134099356   129.63300764     4.82940797
 O     21  17  13     1.348927831650   120.69252470   359.82896224
 C     22  21  17     1.422013875776   120.49296321   186.24323049
 C     23  22  21     1.520174761697   107.07465398   168.42753541
 O     20  19  18     1.374482041825   122.43483267   176.94644693
 N     25  20  19     1.442066693777   116.22855594   294.90621627
 O     26  25  20     1.176004072527   112.18594656   180.07275833
 O     26  25  20     1.180488177704   116.10655446   359.70300617
 C     19  18  17     1.447798226342   121.05128520   180.48308783
 C     29  19  18     1.385699724183   120.13380101   333.22501874
 C     30  29  19     1.407541679596   119.99172963   180.23067243
 C     31  30  29     1.418594852839   116.18445191     0.76829481
 N     32  31  30     1.307548420557   123.63742827   357.88911076
 C     33  32  31     1.322359067538   119.62045590     1.27446200
 C     31  30  29     1.402453804765   121.74894689   180.62895885
 S     35  31  30     1.736720748163   123.11931992   180.34024694
 C     36  35  31     1.741741984135    96.70414153   182.48645314
 C     37  36  35     1.363142089035   116.94376693   357.35856609
 S     35  31  30     1.746327059316   122.73460297     0.54806750
 C     38  37  36     1.472550269872   126.87389513   188.61946223
 O     40  38  37     1.211934941406   123.11613463   355.18747267
 C     40  38  37     1.506796508690   114.59962993   174.22868855
 C     37  36  35     1.454351301887   113.70711610   177.63536040
 C     43  37  36     1.325387926345   125.52809092   222.27752504
 H      1   2   3     1.069774576067   120.15419580   180.00474946
 H      8   6   4     1.088317297483   110.49815654   299.70726763
 H      8   6   4     1.087439155953   108.28671216   180.30947839
 H      8   6   4     1.088288854533   110.46736940    60.97950592
 H      9   3   2     1.075431918859   116.75208553   179.27322628
 H     10   9   3     1.083877298683   118.65038008   359.74088891
 H     12  11  10     1.077319776204   119.56629040     0.39920057
 H     14  13  12     1.082455975363   120.50945162   179.96381269
 H     16  15  14     1.080920456000   114.96980767   180.29384938
 H     23  22  21     1.095275453984   110.26326226    48.13885816
 H     23  22  21     1.097184765206   110.04936696   287.87885184
 H     24  23  22     1.086976754903   110.15938949   299.31191198
 H     24  23  22     1.085767003827   109.56949257   179.28484336
 H     24  23  22     1.086977817759   110.08559049    59.30464111
 H     30  29  19     1.081011434907   120.06173460   359.41569319
 H     32  31  30     1.082290007253   120.11855143   178.32628060
 H     34  33  32     1.080080455337   115.55870483   182.57568827
 H     42  40  38     1.088789323148   110.21650060   300.06388145
 H     42  40  38     1.086720176172   109.24920461   179.68332025
 H     42  40  38     1.088872206689   110.09365701    59.17446515
 H     43  37  36     1.082976638206   113.90600391    37.28698308
 H     44  43  37     1.074862455805   122.39922859   357.26787534
 H     44  43  37     1.075906384636   120.75656222   177.99261274

---------------------------
INTERNAL COORDINATES (A.U.)
---------------------------
 C      0   0   0     0.000000000000     0.00000000     0.00000000
 S      1   0   0     3.214125100338     0.00000000     0.00000000
 C      2   1   0     3.331051756445    95.74291907     0.00000000
 C      3   2   1     2.614194745559   114.32784130     0.03433977
 S      1   2   3     3.205943224846   118.04542623     0.00000000
 C      4   3   2     2.745659432065   135.05401988   179.67930618
 O      6   4   3     2.314711775433   116.56193552   180.18107535
 C      6   4   3     2.840539797364   121.59800276     0.06397464
 C      3   2   1     2.677963941779   117.72515207   179.94577497
 C      9   3   2     2.563791599596   123.80251225   358.93185780
 C     10   9   3     2.715558936767   126.08672562   180.48315128
 C     11  10   9     2.646086695007   119.07772464   176.04985133
 C     12  11  10     2.631189174877   120.31655123   180.83251772
 C     13  12  11     2.653939650354   116.64616376   359.63017227
 N     14  13  12     2.488647915575   123.76722112   359.80599339
 C     15  14  13     2.488760160719   119.05262510     0.38775796
 C     13  12  11     2.730835343298   123.03737427   179.00949369
 S     17  13  12     3.285944264770   119.54655286   184.58576117
 C     18  17  13     3.249470159948    92.78724673   179.14075116
 C     19  18  17     2.607904724367   110.43712296     0.76555332
 C     17  13  12     2.615634380405   129.63300764     4.82940797
 O     21  17  13     2.549104176243   120.69252470   359.82896224
 C     22  21  17     2.687216783853   120.49296321   186.24323049
 C     23  22  21     2.872713975306   107.07465398   168.42753541
 O     20  19  18     2.597394635043   122.43483267   176.94644693
 N     25  20  19     2.725111118087   116.22855594   294.90621627
 O     26  25  20     2.222325629452   112.18594656   180.07275833
 O     26  25  20     2.230799360193   116.10655446   359.70300617
 C     19  18  17     2.735942144964   121.05128520   180.48308783
 C     29  19  18     2.618592982556   120.13380101   333.22501874
 C     30  29  19     2.659868296516   119.99172963   180.23067243
 C     31  30  29     2.680755766855   116.18445191     0.76829481
 N     32  31  30     2.470908421693   123.63742827   357.88911076
 C     33  32  31     2.498896488354   119.62045590     1.27446200
 C     31  30  29     2.650253606482   121.74894689   180.62895885
 S     35  31  30     3.281926585127   123.11931992   180.34024694
 C     36  35  31     3.291415345969    96.70414153   182.48645314
 C     37  36  35     2.575965229898   116.94376693   357.35856609
 S     35  31  30     3.300079882364   122.73460297     0.54806750
 C     38  37  36     2.782716728490   126.87389513   188.61946223
 O     40  38  37     2.290225131387   123.11613463   355.18747267
 C     40  38  37     2.847432740973   114.59962993   174.22868855
 C     37  36  35     2.748325663078   113.70711610   177.63536040
 C     43  37  36     2.504620201997   125.52809092   222.27752504
 H      1   2   3     2.021580973799   120.15419580   180.00474946
 H      8   6   4     2.056621639052   110.49815654   299.70726763
 H      8   6   4     2.054962192054   108.28671216   180.30947839
 H      8   6   4     2.056567889666   110.46736940    60.97950592
 H      9   3   2     2.032271802320   116.75208553   179.27322628
 H     10   9   3     2.048231257285   118.65038008   359.74088891
 H     12  11  10     2.035839335683   119.56629040     0.39920057
 H     14  13  12     2.045545345463   120.50945162   179.96381269
 H     16  15  14     2.042643634394   114.96980767   180.29384938
 H     23  22  21     2.069770649236   110.26326226    48.13885816
 H     23  22  21     2.073378724550   110.04936696   287.87885184
 H     24  23  22     2.054088380706   110.15938949   299.31191198
 H     24  23  22     2.051802282482   109.56949257   179.28484336
 H     24  23  22     2.054090389212   110.08559049    59.30464111
 H     30  29  19     2.042815559612   120.06173460   359.41569319
 H     32  31  30     2.045231711188   120.11855143   178.32628060
 H     34  33  32     2.041056263187   115.55870483   182.57568827
 H     42  40  38     2.057513638286   110.21650060   300.06388145
 H     42  40  38     2.053603517172   109.24920461   179.68332025
 H     42  40  38     2.057670265481   110.09365701    59.17446515
 H     43  37  36     2.046529255644   113.90600391    37.28698308
 H     44  43  37     2.031195673106   122.39922859   357.26787534
 H     44  43  37     2.033168412699   120.75656222   177.99261274

---------------------
BASIS SET INFORMATION
---------------------
There are 5 groups of distinct atoms

 Group   1 Type C   : 7s4p1d contracted to 3s2p1d pattern {511/31/1}
 Group   2 Type S   : 10s7p1d contracted to 4s3p1d pattern {5311/511/1}
 Group   3 Type O   : 7s4p1d contracted to 3s2p1d pattern {511/31/1}
 Group   4 Type N   : 7s4p1d contracted to 3s2p1d pattern {511/31/1}
 Group   5 Type H   : 4s1p contracted to 2s1p pattern {31/1}

Atom   0C    basis set group =>   1
Atom   1S    basis set group =>   2
Atom   2C    basis set group =>   1
Atom   3C    basis set group =>   1
Atom   4S    basis set group =>   2
Atom   5C    basis set group =>   1
Atom   6O    basis set group =>   3
Atom   7C    basis set group =>   1
Atom   8C    basis set group =>   1
Atom   9C    basis set group =>   1
Atom  10C    basis set group =>   1
Atom  11C    basis set group =>   1
Atom  12C    basis set group =>   1
Atom  13C    basis set group =>   1
Atom  14N    basis set group =>   4
Atom  15C    basis set group =>   1
Atom  16C    basis set group =>   1
Atom  17S    basis set group =>   2
Atom  18C    basis set group =>   1
Atom  19C    basis set group =>   1
Atom  20C    basis set group =>   1
Atom  21O    basis set group =>   3
Atom  22C    basis set group =>   1
Atom  23C    basis set group =>   1
Atom  24O    basis set group =>   3
Atom  25N    basis set group =>   4
Atom  26O    basis set group =>   3
Atom  27O    basis set group =>   3
Atom  28C    basis set group =>   1
Atom  29C    basis set group =>   1
Atom  30C    basis set group =>   1
Atom  31C    basis set group =>   1
Atom  32N    basis set group =>   4
Atom  33C    basis set group =>   1
Atom  34C    basis set group =>   1
Atom  35S    basis set group =>   2
Atom  36C    basis set group =>   1
Atom  37C    basis set group =>   1
Atom  38S    basis set group =>   2
Atom  39C    basis set group =>   1
Atom  40O    basis set group =>   3
Atom  41C    basis set group =>   1
Atom  42C    basis set group =>   1
Atom  43C    basis set group =>   1
Atom  44H    basis set group =>   5
Atom  45H    basis set group =>   5
Atom  46H    basis set group =>   5
Atom  47H    basis set group =>   5
Atom  48H    basis set group =>   5
Atom  49H    basis set group =>   5
Atom  50H    basis set group =>   5
Atom  51H    basis set group =>   5
Atom  52H    basis set group =>   5
Atom  53H    basis set group =>   5
Atom  54H    basis set group =>   5
Atom  55H    basis set group =>   5
Atom  56H    basis set group =>   5
Atom  57H    basis set group =>   5
Atom  58H    basis set group =>   5
Atom  59H    basis set group =>   5
Atom  60H    basis set group =>   5
Atom  61H    basis set group =>   5
Atom  62H    basis set group =>   5
Atom  63H    basis set group =>   5
Atom  64H    basis set group =>   5
Atom  65H    basis set group =>   5
Atom  66H    basis set group =>   5
---------------------------------
AUXILIARY/J BASIS SET INFORMATION
---------------------------------
There are 5 groups of distinct atoms

 Group   1 Type C   : 12s5p4d2f1g contracted to 6s4p3d1f1g pattern {711111/2111/211/2/1}
 Group   2 Type S   : 14s5p5d2f1g contracted to 8s4p3d1f1g pattern {71111111/2111/311/2/1}
 Group   3 Type O   : 12s5p4d2f1g contracted to 6s4p3d1f1g pattern {711111/2111/211/2/1}
 Group   4 Type N   : 12s5p4d2f1g contracted to 6s4p3d1f1g pattern {711111/2111/211/2/1}
 Group   5 Type H   : 5s2p1d contracted to 3s1p1d pattern {311/2/1}

Atom   0C    basis set group =>   1
Atom   1S    basis set group =>   2
Atom   2C    basis set group =>   1
Atom   3C    basis set group =>   1
Atom   4S    basis set group =>   2
Atom   5C    basis set group =>   1
Atom   6O    basis set group =>   3
Atom   7C    basis set group =>   1
Atom   8C    basis set group =>   1
Atom   9C    basis set group =>   1
Atom  10C    basis set group =>   1
Atom  11C    basis set group =>   1
Atom  12C    basis set group =>   1
Atom  13C    basis set group =>   1
Atom  14N    basis set group =>   4
Atom  15C    basis set group =>   1
Atom  16C    basis set group =>   1
Atom  17S    basis set group =>   2
Atom  18C    basis set group =>   1
Atom  19C    basis set group =>   1
Atom  20C    basis set group =>   1
Atom  21O    basis set group =>   3
Atom  22C    basis set group =>   1
Atom  23C    basis set group =>   1
Atom  24O    basis set group =>   3
Atom  25N    basis set group =>   4
Atom  26O    basis set group =>   3
Atom  27O    basis set group =>   3
Atom  28C    basis set group =>   1
Atom  29C    basis set group =>   1
Atom  30C    basis set group =>   1
Atom  31C    basis set group =>   1
Atom  32N    basis set group =>   4
Atom  33C    basis set group =>   1
Atom  34C    basis set group =>   1
Atom  35S    basis set group =>   2
Atom  36C    basis set group =>   1
Atom  37C    basis set group =>   1
Atom  38S    basis set group =>   2
Atom  39C    basis set group =>   1
Atom  40O    basis set group =>   3
Atom  41C    basis set group =>   1
Atom  42C    basis set group =>   1
Atom  43C    basis set group =>   1
Atom  44H    basis set group =>   5
Atom  45H    basis set group =>   5
Atom  46H    basis set group =>   5
Atom  47H    basis set group =>   5
Atom  48H    basis set group =>   5
Atom  49H    basis set group =>   5
Atom  50H    basis set group =>   5
Atom  51H    basis set group =>   5
Atom  52H    basis set group =>   5
Atom  53H    basis set group =>   5
Atom  54H    basis set group =>   5
Atom  55H    basis set group =>   5
Atom  56H    basis set group =>   5
Atom  57H    basis set group =>   5
Atom  58H    basis set group =>   5
Atom  59H    basis set group =>   5
Atom  60H    basis set group =>   5
Atom  61H    basis set group =>   5
Atom  62H    basis set group =>   5
Atom  63H    basis set group =>   5
Atom  64H    basis set group =>   5
Atom  65H    basis set group =>   5
Atom  66H    basis set group =>   5


           ************************************************************
           *        Program running with 6 parallel MPI-processes     *
           *              working on a common directory               *
           ************************************************************
------------------------------------------------------------------------------
                           ORCA GTO INTEGRAL CALCULATION
                           -- RI-GTO INTEGRALS CHOSEN --
------------------------------------------------------------------------------

                         BASIS SET STATISTICS AND STARTUP INFO

Gaussian basis set:
 # of primitive gaussian shells          ...  673
 # of primitive gaussian functions       ... 1277
 # of contracted shells                  ...  343
 # of contracted basis functions         ...  751
 Highest angular momentum                ...    2
 Maximum contraction depth               ...    5
Auxiliary gaussian basis set:
 # of primitive gaussian shells          ... 1255
 # of primitive gaussian functions       ... 3483
 # of contracted shells                  ...  785
 # of contracted aux-basis functions     ... 2419
 Highest angular momentum                ...    4
 Maximum contraction depth               ...    7
Ratio of auxiliary to basis functions    ...  3.22
Integral package used                  ... LIBINT
 One Electron integrals                  ... done
 Ordering auxiliary basis shells         ... done
 Integral threshhold             Thresh  ...  2.500e-11
 Primitive cut-off               TCut    ...  2.500e-12
 Pre-screening matrix                    ... done
 Shell pair data                         ... 
 Ordering of the shell pairs             ... done (   0.005 sec) 24619 of 58996 pairs
 Determination of significant pairs      ... done (   0.000 sec)
 Creation of shell pair data             ... done (   0.002 sec)
 Storage of shell pair data              ... done (   0.005 sec)
 Shell pair data done in (   0.012 sec)
 Computing two index integrals           ... done
 Cholesky decomposition of the V-matrix  ... done


Timings:
 Total evaluation time                   ...   0.888 sec (  0.015 min)
 One electron matrix time                ...   0.186 sec (  0.003 min) = 21.0%
 Schwartz matrix evaluation time         ...   0.271 sec (  0.005 min) = 30.5%
 Two index repulsion integral time       ...   0.098 sec (  0.002 min) = 11.0%
 Cholesky decomposition of V             ...   0.305 sec (  0.005 min) = 34.4%
 Three index repulsion integral time     ...   0.000 sec (  0.000 min) =  0.0%



           ************************************************************
           *        Program running with 6 parallel MPI-processes     *
           *              working on a common directory               *
           ************************************************************
-------------------------------------------------------------------------------
                                 ORCA SCF
-------------------------------------------------------------------------------

------------
SCF SETTINGS
------------
Hamiltonian:
 Density Functional     Method          .... DFT(GTOs)
 Exchange Functional    Exchange        .... WB88
 Correlation Functional Correlation     .... LYP
 LDA part of GGA corr.  LDAOpt          .... VWN-5
 Gradients option       PostSCFGGA      .... off
 Hybrid DFT is turned on
   Fraction HF Exchange ScalHFX         ....  0.190000
   Scaling of DF-GGA-X  ScalDFX         ....  0.350000
   Scaling of DF-GGA-C  ScalDFC         ....  0.810000
   Scaling of DF-LDA-C  ScalLDAC        ....  1.000000
   Perturbative correction              ....  0.000000
   Density functional embedding theory  .... OFF
 Long-range corrected/Screened/Range-Separated Hybrid DFT is turned on
   Amount of maximum screened exact exchange              ....  0.460000
   Range separation parameter mu (erf(mu*r12)/r12)        ....  0.330000
 RI-approximation to the Coulomb term is turned on
   Number of auxiliary basis functions  .... 2419
   RIJ-COSX (HFX calculated with COS-X)).... on


General Settings:
 Integral files         IntName         .... xtbopt
 Hartree-Fock type      HFTyp           .... RHF
 Total Charge           Charge          ....    0
 Multiplicity           Mult            ....    1
 Number of Electrons    NEL             ....  352
 Basis Dimension        Dim             ....  751
 Nuclear Repulsion      ENuc            ....   5744.8878267758 Eh

Convergence Acceleration:
 DIIS                   CNVDIIS         .... on
   Start iteration      DIISMaxIt       ....    12
   Startup error        DIISStart       ....  0.200000
   # of expansion vecs  DIISMaxEq       ....     5
   Bias factor          DIISBfac        ....   1.050
   Max. coefficient     DIISMaxC        ....  10.000
 Newton-Raphson         CNVNR           .... off
 SOSCF                  CNVSOSCF        .... on
   Start iteration      SOSCFMaxIt      ....   150
   Startup grad/error   SOSCFStart      ....  0.003300
 Level Shifting         CNVShift        .... on
   Level shift para.    LevelShift      ....    0.2500
   Turn off err/grad.   ShiftErr        ....    0.0010
 Zerner damping         CNVZerner       .... off
 Static damping         CNVDamp         .... on
   Fraction old density DampFac         ....    0.7000
   Max. Damping (<1)    DampMax         ....    0.9800
   Min. Damping (>=0)   DampMin         ....    0.0000
   Turn off err/grad.   DampErr         ....    0.1000
 Fernandez-Rico         CNVRico         .... off

SCF Procedure:
 Maximum # iterations   MaxIter         ....   125
 SCF integral mode      SCFMode         .... Direct
   Integral package                     .... LIBINT
 Reset frequency        DirectResetFreq ....    20
 Integral Threshold     Thresh          ....  2.500e-11 Eh
 Primitive CutOff       TCut            ....  2.500e-12 Eh

Convergence Tolerance:
 Convergence Check Mode ConvCheckMode   .... Total+1el-Energy
 Convergence forced     ConvForced      .... 1
 Energy Change          TolE            ....  1.000e-08 Eh
 1-El. energy change                    ....  1.000e-05 Eh
 Orbital Gradient       TolG            ....  1.000e-05
 Orbital Rotation angle TolX            ....  1.000e-05
 DIIS Error             TolErr          ....  5.000e-07


Diagonalization of the overlap matrix:
Smallest eigenvalue                        ... 2.498e-04
Time for diagonalization                   ...    0.236 sec
Threshold for overlap eigenvalues          ... 1.000e-08
Number of eigenvalues below threshold      ... 0
Time for construction of square roots      ...    0.080 sec
Total time needed                          ...    0.317 sec

-------------------
DFT GRID GENERATION
-------------------

General Integration Accuracy     IntAcc      ...  4.670
Radial Grid Type                 RadialGrid  ... Gauss-Chebyshev
Angular Grid (max. acc.)         AngularGrid ... Lebedev-302
Angular grid pruning method      GridPruning ... 3 (G Style)
Weight generation scheme         WeightScheme... Becke
Basis function cutoff            BFCut       ...    1.0000e-11
Integration weight cutoff        WCut        ...    1.0000e-14
Grids for H and He will be reduced by one unit

# of grid points (after initial pruning)     ... 354560 (   0.0 sec)
# of grid points (after weights+screening)   ... 309198 (   1.6 sec)
nearest neighbour list constructed           ...    0.0 sec
Grid point re-assignment to atoms done       ...    0.0 sec
Grid point division into batches done        ...    1.2 sec
Reduced shell lists constructed in    1.6 sec

Total number of grid points                  ...   309198
Total number of batches                      ...     4869
Average number of points per batch           ...       63
Average number of grid points per atom       ...     4615
Average number of shells per batch           ...    74.12 (21.61%)
Average number of basis functions per batch  ...   153.95 (20.50%)
Average number of large shells per batch     ...    49.71 (67.08%)
Average number of large basis fcns per batch ...   104.67 (67.99%)
Maximum spatial batch extension              ...  15.63, 18.80, 18.88 au
Average spatial batch extension              ...   0.30,  0.35,  0.33 au

Time for grid setup =    3.418 sec

------------------------------
INITIAL GUESS: MODEL POTENTIAL
------------------------------
Loading Hartree-Fock densities                     ... done
Calculating cut-offs                               ... done
Setting up the integral package                    ... done
Initializing the effective Hamiltonian             ... done
Starting the Coulomb interaction                   ... done (   0.5 sec)
Reading the grid                                   ... done
Mapping shells                                     ... done
Starting the XC term evaluation                    ... done (   0.6 sec)
  promolecular density results
     # of electrons  =    351.988834113
     EX              =   -353.471102854
     EC              =    -12.377136472
     EX+EC           =   -365.848239325
Transforming the Hamiltonian                       ... done (   0.2 sec)
Diagonalizing the Hamiltonian                      ... done (   0.2 sec)
Back transforming the eigenvectors                 ... done (   0.0 sec)
Now organizing SCF variables                       ... done
                      ------------------
                      INITIAL GUESS DONE (   5.1 sec)
                      ------------------
--------------------
COSX GRID GENERATION
--------------------

General Integration Accuracy     IntAcc      ...  3.340
Radial Grid Type                 RadialGrid  ... Gauss-Chebyshev
Angular Grid (max. acc.)         AngularGrid ... Lebedev-50
Angular grid pruning method      GridPruning ... 3 (G Style)
Weight generation scheme         WeightScheme... Becke
Basis function cutoff            BFCut       ...    1.0000e-11
Integration weight cutoff        WCut        ...    1.0000e-14
Grids for H and He will be reduced by one unit

# of grid points (after initial pruning)     ...  33468 (   0.0 sec)
# of grid points (after weights+screening)   ...  30344 (   0.1 sec)
nearest neighbour list constructed           ...    0.0 sec
Grid point re-assignment to atoms done       ...    0.0 sec
Grid point division into batches done        ...    0.0 sec
Reduced shell lists constructed in    0.1 sec

Total number of grid points                  ...    30344
Total number of batches                      ...      512
Average number of points per batch           ...       59
Average number of grid points per atom       ...      453
Average number of shells per batch           ...    85.41 (24.90%)
Average number of basis functions per batch  ...   178.10 (23.72%)
Average number of large shells per batch     ...    58.07 (67.99%)
Average number of large basis fcns per batch ...   124.16 (69.71%)
Maximum spatial batch extension              ...  18.96, 19.18, 14.59 au
Average spatial batch extension              ...   0.57,  0.79,  0.64 au

Overlap Fitting                  UseSFitting ... on
Constructing numerical overlap ... done (      0.1 sec)
Inverting numerical overlap    ... done (      0.1 sec)
Obtaining analytic overlap     ... done (      0.0 sec)
Final contraction and storage  ... done (      0.1 sec)


General Integration Accuracy     IntAcc      ...  3.670
Radial Grid Type                 RadialGrid  ... Gauss-Chebyshev
Angular Grid (max. acc.)         AngularGrid ... Lebedev-50
Angular grid pruning method      GridPruning ... 3 (G Style)
Weight generation scheme         WeightScheme... Becke
Basis function cutoff            BFCut       ...    1.0000e-11
Integration weight cutoff        WCut        ...    1.0000e-14
Grids for H and He will be reduced by one unit

# of grid points (after initial pruning)     ...  42056 (   0.0 sec)
# of grid points (after weights+screening)   ...  38004 (   0.2 sec)
nearest neighbour list constructed           ...    0.0 sec
Grid point re-assignment to atoms done       ...    0.0 sec
Grid point division into batches done        ...    0.0 sec
Reduced shell lists constructed in    0.1 sec

Total number of grid points                  ...    38004
Total number of batches                      ...      628
Average number of points per batch           ...       60
Average number of grid points per atom       ...      567
Average number of shells per batch           ...    84.42 (24.61%)
Average number of basis functions per batch  ...   176.03 (23.44%)
Average number of large shells per batch     ...    57.24 (67.80%)
Average number of large basis fcns per batch ...   122.16 (69.40%)
Maximum spatial batch extension              ...  20.23, 29.43, 16.57 au
Average spatial batch extension              ...   0.54,  0.71,  0.58 au

Overlap Fitting                  UseSFitting ... on
Constructing numerical overlap ... done (      0.1 sec)
Inverting numerical overlap    ... done (      0.1 sec)
Obtaining analytic overlap     ... done (      0.0 sec)
Final contraction and storage  ... done (      0.1 sec)


General Integration Accuracy     IntAcc      ...  4.010
Radial Grid Type                 RadialGrid  ... Gauss-Chebyshev
Angular Grid (max. acc.)         AngularGrid ... Lebedev-110
Angular grid pruning method      GridPruning ... 3 (G Style)
Weight generation scheme         WeightScheme... Becke
Basis function cutoff            BFCut       ...    1.0000e-11
Integration weight cutoff        WCut        ...    1.0000e-14
Grids for H and He will be reduced by one unit

# of grid points (after initial pruning)     ...  80500 (   0.0 sec)
# of grid points (after weights+screening)   ...  72069 (   0.4 sec)
nearest neighbour list constructed           ...    0.0 sec
Grid point re-assignment to atoms done       ...    0.0 sec
Grid point division into batches done        ...    0.1 sec
Reduced shell lists constructed in    0.2 sec

Total number of grid points                  ...    72069
Total number of batches                      ...     1162
Average number of points per batch           ...       62
Average number of grid points per atom       ...     1076
Average number of shells per batch           ...    80.55 (23.49%)
Average number of basis functions per batch  ...   168.31 (22.41%)
Average number of large shells per batch     ...    54.75 (67.97%)
Average number of large basis fcns per batch ...   116.36 (69.13%)
Maximum spatial batch extension              ...  16.32, 25.18, 16.57 au
Average spatial batch extension              ...   0.48,  0.64,  0.55 au

Overlap Fitting                  UseSFitting ... on
Constructing numerical overlap ... done (      0.2 sec)
Inverting numerical overlap    ... done (      0.1 sec)
Obtaining analytic overlap     ... done (      0.0 sec)
Final contraction and storage  ... done (      0.1 sec)

Time for X-Grid setup             =    1.968 sec
--------------
SCF ITERATIONS
--------------
ITER       Energy         Delta-E        Max-DP      RMS-DP      [F,P]     Damp
               ***  Starting incremental Fock matrix formation  ***
  0  -3759.2091598739   0.000000000000 0.14317658  0.00157945  0.2674432 0.7000
  1  -3759.8217967654  -0.612636891504 0.11612710  0.00104179  0.1002515 0.7000
                               ***Turning on DIIS***
  2  -3760.0212124334  -0.199415668011 0.26807700  0.00207282  0.0588968 0.0000
  3  -3760.2488565810  -0.227644147583 0.07179682  0.00093241  0.0751040 0.0000
  4  -3760.3804443096  -0.131587728542 0.09011687  0.00055474  0.0283477 0.0000
  5  -3760.4105722922  -0.030127982675 0.06016971  0.00041383  0.0171491 0.0000
  6  -3760.4266637147  -0.016091422480 0.04290428  0.00032291  0.0083267 0.0000
  7  -3760.4359594843  -0.009295769541 0.03072215  0.00026120  0.0072213 0.0000
  8  -3760.4416815116  -0.005722027308 0.01599256  0.00022951  0.0062544 0.0000
  9  -3760.4456033419  -0.003921830304 0.01047447  0.00016784  0.0039776 0.0000
 10  -3760.4478561021  -0.002252760222 0.00775753  0.00013624  0.0026314 0.0000
 11  -3760.4490139105  -0.001157808387 0.00778690  0.00008161  0.0044482 0.0000
 12  -3760.4499864110  -0.000972500563 0.00582301  0.00007778  0.0024640 0.0000
 13  -3760.4506909196  -0.000704508531 0.00548843  0.00008010  0.0025237 0.0000
 14  -3760.4512825525  -0.000591632947 0.00518090  0.00006319  0.0028694 0.0000
 15  -3760.4518065312  -0.000523978687 0.00522716  0.00006096  0.0026934 0.0000
 16  -3760.4522897128  -0.000483181610 0.00522968  0.00006164  0.0024524 0.0000
 17  -3760.4527474861  -0.000457773313 0.00506456  0.00005832  0.0023093 0.0000
 18  -3760.4531685933  -0.000421107175 0.00490844  0.00005583  0.0021106 0.0000
 19  -3760.4535569769  -0.000388383572 0.00442803  0.00005011  0.0018924 0.0000
               *** Restarting incremental Fock matrix formation ***
                                   *** Resetting DIIS ***
 20  -3760.4286039325   0.024953044403 0.00412021  0.00005634  0.0016692 0.0000
 21  -3760.4289132706  -0.000309338095 0.00432225  0.00004839  0.0016212 0.0000
 22  -3760.4292141299  -0.000300859322 0.00503816  0.00005601  0.0015251 0.0000
 23  -3760.4295380767  -0.000323946829 0.00411425  0.00004303  0.0018372 0.0000
 24  -3760.4297796998  -0.000241623030 0.00580643  0.00006381  0.0014757 0.0000
 25  -3760.4300780542  -0.000298354488 0.00413155  0.00004284  0.0019012 0.0000
 26  -3760.4303105196  -0.000232465393 0.00615124  0.00006697  0.0014832 0.0000
 27  -3760.4305204819  -0.000209962242 0.00331498  0.00003535  0.0024717 0.0000
 28  -3760.4307258702  -0.000205388372 0.00524945  0.00005345  0.0013261 0.0000
 29  -3760.4308846997  -0.000158829417 0.00352315  0.00003645  0.0018986 0.0000
 30  -3760.4310354850  -0.000150785360 0.00332860  0.00003552  0.0013503 0.0000
                      *** Initiating the SOSCF procedure ***
                           *** Shutting down DIIS ***
                      *** Re-Reading the Fockian *** 
                      *** Removing any level shift *** 
ITER      Energy       Delta-E        Grad      Rot      Max-DP    RMS-DP
 31  -3760.43115229  -0.0001168055  0.003128  0.003128  0.002884  0.000030
               *** Restarting incremental Fock matrix formation ***
 32  -3760.45650770  -0.0253554102  0.002413  0.043441  0.014937  0.000136
 33  -3760.45648620   0.0000215051  0.003328  0.023841  0.007951  0.000101
 34  -3760.45670486  -0.0002186611  0.003652  0.018497  0.011855  0.000122
 35  -3760.45637351   0.0003313432  0.003446  0.010134  0.007436  0.000065
 36  -3760.45697267  -0.0005991609  0.000447  0.013727  0.003468  0.000041
 37  -3760.45699073  -0.0000180589  0.000283  0.010911  0.002789  0.000035
 38  -3760.45700320  -0.0000124686  0.000105  0.003636  0.001078  0.000013
 39  -3760.45700305   0.0000001496  0.000209  0.000729  0.000397  0.000004
 40  -3760.45700448  -0.0000014326  0.000048  0.000239  0.000127  0.000001
 41  -3760.45700450  -0.0000000135  0.000068  0.000072  0.000082  0.000001
 42  -3760.45700452  -0.0000000169  0.000008  0.000026  0.000033  0.000000
 43  -3760.45700453  -0.0000000100  0.000008  0.000018  0.000020  0.000000
                  ***Gradient check signals convergence***
              ***Rediagonalizing the Fockian in SOSCF/NRSCF***

               *****************************************************
               *                     SUCCESS                       *
               *           SCF CONVERGED AFTER  44 CYCLES          *
               *****************************************************

Setting up the final grid:

General Integration Accuracy     IntAcc      ...  5.010
Radial Grid Type                 RadialGrid  ... Gauss-Chebyshev
Angular Grid (max. acc.)         AngularGrid ... Lebedev-434
Angular grid pruning method      GridPruning ... 3 (G Style)
Weight generation scheme         WeightScheme... Becke
Basis function cutoff            BFCut       ...    1.0000e-11
Integration weight cutoff        WCut        ...    1.0000e-14
Grids for H and He will be reduced by one unit

# of grid points (after initial pruning)     ... 630378 (   0.0 sec)
# of grid points (after weights+screening)   ... 548157 (   2.7 sec)
nearest neighbour list constructed           ...    0.0 sec
Grid point re-assignment to atoms done       ...    0.1 sec
Grid point division into batches done        ...    3.9 sec
Reduced shell lists constructed in    4.6 sec

Total number of grid points                  ...   548157
Total number of batches                      ...     8600
Average number of points per batch           ...       63
Average number of grid points per atom       ...     8181
Average number of shells per batch           ...    72.93 (21.26%)
Average number of basis functions per batch  ...   151.06 (20.11%)
Average number of large shells per batch     ...    48.67 (66.74%)
Average number of large basis fcns per batch ...   102.10 (67.59%)
Maximum spatial batch extension              ...  16.77, 21.42, 17.83 au
Average spatial batch extension              ...   0.25,  0.28,  0.26 au

Final grid set up in    7.7 sec
Final integration                            ... done (   1.6 sec)
Change in XC energy                          ...    -0.000016524
Integrated number of electrons               ...   351.999942413
Previous integrated no of electrons          ...   352.000199097
Old exchange energy                            =    -95.653214980 Eh
New exchange energy                            =    -95.650762319 Eh
Exchange energy change after final integration =      0.002452661 Eh
Total energy after final integration           =  -3760.454568386 Eh
Final COS-X integration done in                =    23.347 sec

----------------
TOTAL SCF ENERGY
----------------

Total Energy       :        -3760.45456839 Eh         -102327.17102 eV

Components:
Nuclear Repulsion  :         5744.88782678 Eh          156326.34524 eV
Electronic Energy  :        -9505.34239516 Eh         -258653.51626 eV
One Electron Energy:       -16597.23540230 Eh         -451633.73591 eV
Two Electron Energy:         7091.89300714 Eh          192980.21965 eV

Virial components:
Potential Energy   :        -7500.69544732 Eh         -204104.29958 eV
Kinetic Energy     :         3740.24087893 Eh          101777.12857 eV
Virial Ratio       :            2.00540438


DFT components:
N(Alpha)           :      175.999971206650 electrons
N(Beta)            :      175.999971206650 electrons
N(Total)           :      351.999942413300 electrons
E(XC)              :     -275.541777333357 Eh       
DFET-embed. en.    :        0.000000000000 Eh       

---------------
SCF CONVERGENCE
---------------

  Last Energy change         ...    2.4484e-09  Tolerance :   1.0000e-08
  Last MAX-Density change    ...    7.1054e-15  Tolerance :   1.0000e-07
  Last RMS-Density change    ...    4.7080e-17  Tolerance :   5.0000e-09
  Last Orbital Gradient      ...    7.4269e-07  Tolerance :   1.0000e-05
  Last Orbital Rotation      ...    1.0177e-05  Tolerance :   1.0000e-05

             **** THE GBW FILE WAS UPDATED (xtbopt.gbw) ****
             **** DENSITY FILE WAS UPDATED (xtbopt.scfp) ****
             **** ENERGY FILE WAS UPDATED (xtbopt.en.tmp) ****
             **** THE GBW FILE WAS UPDATED (xtbopt.gbw) ****
             **** DENSITY FILE WAS UPDATED (xtbopt.scfp) ****
----------------
ORBITAL ENERGIES
----------------

  NO   OCC          E(Eh)            E(eV) 
   0   2.0000     -89.009580     -2422.0738 
   1   2.0000     -88.996567     -2421.7197 
   2   2.0000     -88.960670     -2420.7429 
   3   2.0000     -88.955618     -2420.6054 
   4   2.0000     -88.948475     -2420.4110 
   5   2.0000     -19.297594      -525.1142 
   6   2.0000     -19.276176      -524.5314 
   7   2.0000     -19.274625      -524.4892 
   8   2.0000     -19.258508      -524.0507 
   9   2.0000     -19.228380      -523.2308 
  10   2.0000     -19.191992      -522.2407 
  11   2.0000     -14.706790      -400.1921 
  12   2.0000     -14.402243      -391.9050 
  13   2.0000     -14.379925      -391.2977 
  14   2.0000     -10.389748      -282.7194 
  15   2.0000     -10.354270      -281.7540 
  16   2.0000     -10.352731      -281.7121 
  17   2.0000     -10.347228      -281.5624 
  18   2.0000     -10.346876      -281.5528 
  19   2.0000     -10.340265      -281.3729 
  20   2.0000     -10.336474      -281.2697 
  21   2.0000     -10.330040      -281.0947 
  22   2.0000     -10.322275      -280.8834 
  23   2.0000     -10.311017      -280.5770 
  24   2.0000     -10.302995      -280.3587 
  25   2.0000     -10.301559      -280.3197 
  26   2.0000     -10.301245      -280.3111 
  27   2.0000     -10.299179      -280.2549 
  28   2.0000     -10.299007      -280.2502 
  29   2.0000     -10.297831      -280.2182 
  30   2.0000     -10.297576      -280.2113 
  31   2.0000     -10.294009      -280.1142 
  32   2.0000     -10.293144      -280.0907 
  33   2.0000     -10.289391      -279.9886 
  34   2.0000     -10.283879      -279.8386 
  35   2.0000     -10.278558      -279.6938 
  36   2.0000     -10.278503      -279.6923 
  37   2.0000     -10.276636      -279.6415 
  38   2.0000     -10.272667      -279.5335 
  39   2.0000     -10.271278      -279.4957 
  40   2.0000     -10.269353      -279.4433 
  41   2.0000     -10.268785      -279.4278 
  42   2.0000     -10.267360      -279.3891 
  43   2.0000     -10.260752      -279.2093 
  44   2.0000      -8.102508      -220.4804 
  45   2.0000      -8.091754      -220.1878 
  46   2.0000      -8.055718      -219.2072 
  47   2.0000      -8.050946      -219.0774 
  48   2.0000      -8.043051      -218.8625 
  49   2.0000      -6.071824      -165.2227 
  50   2.0000      -6.067016      -165.0919 
  51   2.0000      -6.065560      -165.0523 
  52   2.0000      -6.061448      -164.9404 
  53   2.0000      -6.056852      -164.8153 
  54   2.0000      -6.053426      -164.7221 
  55   2.0000      -6.024973      -163.9479 
  56   2.0000      -6.021101      -163.8425 
  57   2.0000      -6.020618      -163.8293 
  58   2.0000      -6.017696      -163.7498 
  59   2.0000      -6.016289      -163.7116 
  60   2.0000      -6.013062      -163.6237 
  61   2.0000      -6.012415      -163.6061 
  62   2.0000      -6.008752      -163.5065 
  63   2.0000      -6.003975      -163.3765 
  64   2.0000      -1.386011       -37.7153 
  65   2.0000      -1.203813       -32.7574 
  66   2.0000      -1.173017       -31.9194 
  67   2.0000      -1.155467       -31.4419 
  68   2.0000      -1.147637       -31.2288 
  69   2.0000      -1.111757       -30.2524 
  70   2.0000      -1.037164       -28.2227 
  71   2.0000      -1.022204       -27.8156 
  72   2.0000      -1.014661       -27.6103 
  73   2.0000      -0.987863       -26.8811 
  74   2.0000      -0.981711       -26.7137 
  75   2.0000      -0.936984       -25.4966 
  76   2.0000      -0.911573       -24.8052 
  77   2.0000      -0.902076       -24.5467 
  78   2.0000      -0.899778       -24.4842 
  79   2.0000      -0.893706       -24.3190 
  80   2.0000      -0.881252       -23.9801 
  81   2.0000      -0.877324       -23.8732 
  82   2.0000      -0.865117       -23.5410 
  83   2.0000      -0.852795       -23.2057 
  84   2.0000      -0.844094       -22.9690 
  85   2.0000      -0.840147       -22.8616 
  86   2.0000      -0.823742       -22.4152 
  87   2.0000      -0.817817       -22.2539 
  88   2.0000      -0.799300       -21.7501 
  89   2.0000      -0.793792       -21.6002 
  90   2.0000      -0.765492       -20.8301 
  91   2.0000      -0.757433       -20.6108 
  92   2.0000      -0.732694       -19.9376 
  93   2.0000      -0.728074       -19.8119 
  94   2.0000      -0.721959       -19.6455 
  95   2.0000      -0.716915       -19.5082 
  96   2.0000      -0.709844       -19.3158 
  97   2.0000      -0.706695       -19.2301 
  98   2.0000      -0.690890       -18.8001 
  99   2.0000      -0.677759       -18.4427 
 100   2.0000      -0.668806       -18.1991 
 101   2.0000      -0.665277       -18.1031 
 102   2.0000      -0.659509       -17.9462 
 103   2.0000      -0.654354       -17.8059 
 104   2.0000      -0.640976       -17.4418 
 105   2.0000      -0.635265       -17.2865 
 106   2.0000      -0.621282       -16.9059 
 107   2.0000      -0.616460       -16.7747 
 108   2.0000      -0.608449       -16.5567 
 109   2.0000      -0.600171       -16.3315 
 110   2.0000      -0.586756       -15.9664 
 111   2.0000      -0.583665       -15.8823 
 112   2.0000      -0.579981       -15.7821 
 113   2.0000      -0.576233       -15.6801 
 114   2.0000      -0.567704       -15.4480 
 115   2.0000      -0.566006       -15.4018 
 116   2.0000      -0.560944       -15.2641 
 117   2.0000      -0.558672       -15.2023 
 118   2.0000      -0.551392       -15.0041 
 119   2.0000      -0.548306       -14.9202 
 120   2.0000      -0.541485       -14.7345 
 121   2.0000      -0.531907       -14.4739 
 122   2.0000      -0.528593       -14.3837 
 123   2.0000      -0.526181       -14.3181 
 124   2.0000      -0.521990       -14.2041 
 125   2.0000      -0.518880       -14.1194 
 126   2.0000      -0.512524       -13.9465 
 127   2.0000      -0.511435       -13.9169 
 128   2.0000      -0.508010       -13.8237 
 129   2.0000      -0.504448       -13.7267 
 130   2.0000      -0.494954       -13.4684 
 131   2.0000      -0.493994       -13.4423 
 132   2.0000      -0.490018       -13.3341 
 133   2.0000      -0.485815       -13.2197 
 134   2.0000      -0.483688       -13.1618 
 135   2.0000      -0.481271       -13.0960 
 136   2.0000      -0.478231       -13.0133 
 137   2.0000      -0.475166       -12.9299 
 138   2.0000      -0.474835       -12.9209 
 139   2.0000      -0.470300       -12.7975 
 140   2.0000      -0.468552       -12.7499 
 141   2.0000      -0.463754       -12.6194 
 142   2.0000      -0.462702       -12.5908 
 143   2.0000      -0.461592       -12.5605 
 144   2.0000      -0.457613       -12.4523 
 145   2.0000      -0.453539       -12.3414 
 146   2.0000      -0.449113       -12.2210 
 147   2.0000      -0.448360       -12.2005 
 148   2.0000      -0.439876       -11.9696 
 149   2.0000      -0.437550       -11.9063 
 150   2.0000      -0.436998       -11.8913 
 151   2.0000      -0.431320       -11.7368 
 152   2.0000      -0.428642       -11.6639 
 153   2.0000      -0.423357       -11.5201 
 154   2.0000      -0.419417       -11.4129 
 155   2.0000      -0.413947       -11.2641 
 156   2.0000      -0.406853       -11.0710 
 157   2.0000      -0.397586       -10.8189 
 158   2.0000      -0.392247       -10.6736 
 159   2.0000      -0.389344       -10.5946 
 160   2.0000      -0.382107       -10.3977 
 161   2.0000      -0.380509       -10.3542 
 162   2.0000      -0.376536       -10.2461 
 163   2.0000      -0.373205       -10.1554 
 164   2.0000      -0.355582        -9.6759 
 165   2.0000      -0.351629        -9.5683 
 166   2.0000      -0.341549        -9.2940 
 167   2.0000      -0.331436        -9.0188 
 168   2.0000      -0.324841        -8.8394 
 169   2.0000      -0.310445        -8.4476 
 170   2.0000      -0.306519        -8.3408 
 171   2.0000      -0.301155        -8.1948 
 172   2.0000      -0.296091        -8.0571 
 173   2.0000      -0.281278        -7.6540 
 174   2.0000      -0.257558        -7.0085 
 175   2.0000      -0.136035        -3.7017 
 176   0.0000      -0.110813        -3.0154 
 177   0.0000      -0.081834        -2.2268 
 178   0.0000      -0.031269        -0.8509 
 179   0.0000      -0.025593        -0.6964 
 180   0.0000      -0.009883        -0.2689 
 181   0.0000       0.007910         0.2153 
 182   0.0000       0.015263         0.4153 
 183   0.0000       0.017996         0.4897 
 184   0.0000       0.044484         1.2105 
 185   0.0000       0.047538         1.2936 
 186   0.0000       0.061109         1.6629 
 187   0.0000       0.062011         1.6874 
 188   0.0000       0.076948         2.0939 
 189   0.0000       0.079520         2.1639 
 190   0.0000       0.080637         2.1942 
 191   0.0000       0.084229         2.2920 
 192   0.0000       0.085108         2.3159 
 193   0.0000       0.102701         2.7946 
 194   0.0000       0.108305         2.9471 
 195   0.0000       0.115189         3.1344 
 196   0.0000       0.116458         3.1690 
 197   0.0000       0.117127         3.1872 
 198   0.0000       0.117775         3.2048 
 199   0.0000       0.122780         3.3410 
 200   0.0000       0.126917         3.4536 
 201   0.0000       0.133951         3.6450 
 202   0.0000       0.141809         3.8588 
 203   0.0000       0.143815         3.9134 
 204   0.0000       0.145529         3.9600 
 205   0.0000       0.148180         4.0322 
 206   0.0000       0.152158         4.1404 
 207   0.0000       0.153873         4.1871 
 208   0.0000       0.159166         4.3311 
 209   0.0000       0.165038         4.4909 
 210   0.0000       0.168921         4.5966 
 211   0.0000       0.170253         4.6328 
 212   0.0000       0.171557         4.6683 
 213   0.0000       0.177478         4.8294 
 214   0.0000       0.181507         4.9390 
 215   0.0000       0.183900         5.0042 
 216   0.0000       0.187332         5.0976 
 217   0.0000       0.191005         5.1975 
 218   0.0000       0.194616         5.2958 
 219   0.0000       0.195494         5.3197 
 220   0.0000       0.204456         5.5635 
 221   0.0000       0.215407         5.8615 
 222   0.0000       0.218069         5.9340 
 223   0.0000       0.220314         5.9950 
 224   0.0000       0.226526         6.1641 
 225   0.0000       0.229785         6.2528 
 226   0.0000       0.232122         6.3164 
 227   0.0000       0.238467         6.4890 
 228   0.0000       0.247994         6.7483 
 229   0.0000       0.256253         6.9730 
 230   0.0000       0.266250         7.2450 
 231   0.0000       0.275142         7.4870 
 232   0.0000       0.277417         7.5489 
 233   0.0000       0.282013         7.6740 
 234   0.0000       0.295308         8.0357 
 235   0.0000       0.295955         8.0534 
 236   0.0000       0.307919         8.3789 
 237   0.0000       0.313718         8.5367 
 238   0.0000       0.319169         8.6850 
 239   0.0000       0.323106         8.7922 
 240   0.0000       0.328343         8.9347 
 241   0.0000       0.335285         9.1236 
 242   0.0000       0.335855         9.1391 
 243   0.0000       0.342068         9.3081 
 244   0.0000       0.349601         9.5131 
 245   0.0000       0.351535         9.5658 
 246   0.0000       0.353008         9.6058 
 247   0.0000       0.356121         9.6906 
 248   0.0000       0.362734         9.8705 
 249   0.0000       0.366579         9.9751 
 250   0.0000       0.370705        10.0874 
 251   0.0000       0.374648        10.1947 
 252   0.0000       0.379628        10.3302 
 253   0.0000       0.383654        10.4398 
 254   0.0000       0.389443        10.5973 
 255   0.0000       0.392528        10.6812 
 256   0.0000       0.397338        10.8121 
 257   0.0000       0.401261        10.9189 
 258   0.0000       0.402893        10.9633 
 259   0.0000       0.407773        11.0961 
 260   0.0000       0.410202        11.1622 
 261   0.0000       0.414287        11.2733 
 262   0.0000       0.416837        11.3427 
 263   0.0000       0.425792        11.5864 
 264   0.0000       0.433112        11.7856 
 265   0.0000       0.434360        11.8195 
 266   0.0000       0.440798        11.9947 
 267   0.0000       0.442584        12.0433 
 268   0.0000       0.456221        12.4144 
 269   0.0000       0.456858        12.4317 
 270   0.0000       0.460175        12.5220 
 271   0.0000       0.462400        12.5826 
 272   0.0000       0.466891        12.7048 
 273   0.0000       0.470099        12.7920 
 274   0.0000       0.473532        12.8855 
 275   0.0000       0.478086        13.0094 
 276   0.0000       0.480630        13.0786 
 277   0.0000       0.489294        13.3144 
 278   0.0000       0.489848        13.3294 
 279   0.0000       0.498609        13.5678 
 280   0.0000       0.505300        13.7499 
 281   0.0000       0.507546        13.8110 
 282   0.0000       0.508837        13.8461 
 283   0.0000       0.509679        13.8691 
 284   0.0000       0.515759        14.0345 
 285   0.0000       0.518937        14.1210 
 286   0.0000       0.520162        14.1543 
 287   0.0000       0.520994        14.1770 
 288   0.0000       0.525758        14.3066 
 289   0.0000       0.527307        14.3487 
 290   0.0000       0.529439        14.4068 
 291   0.0000       0.534530        14.5453 
 292   0.0000       0.536960        14.6114 
 293   0.0000       0.539670        14.6852 
 294   0.0000       0.542285        14.7563 
 295   0.0000       0.546053        14.8589 
 296   0.0000       0.551620        15.0103 
 297   0.0000       0.554080        15.0773 
 298   0.0000       0.559098        15.2138 
 299   0.0000       0.561331        15.2746 
 300   0.0000       0.564625        15.3642 
 301   0.0000       0.567733        15.4488 
 302   0.0000       0.568455        15.4684 
 303   0.0000       0.570421        15.5219 
 304   0.0000       0.574975        15.6459 
 305   0.0000       0.582858        15.8604 
 306   0.0000       0.592044        16.1103 
 307   0.0000       0.596223        16.2241 
 308   0.0000       0.597613        16.2619 
 309   0.0000       0.604682        16.4542 
 310   0.0000       0.607202        16.5228 
 311   0.0000       0.610165        16.6034 
 312   0.0000       0.616004        16.7623 
 313   0.0000       0.616990        16.7892 
 314   0.0000       0.624188        16.9850 
 315   0.0000       0.631547        17.1853 
 316   0.0000       0.632665        17.2157 
 317   0.0000       0.636371        17.3165 
 318   0.0000       0.639229        17.3943 
 319   0.0000       0.640600        17.4316 
 320   0.0000       0.646422        17.5900 
 321   0.0000       0.647911        17.6306 
 322   0.0000       0.653754        17.7896 
 323   0.0000       0.656285        17.8584 
 324   0.0000       0.659220        17.9383 
 325   0.0000       0.660881        17.9835 
 326   0.0000       0.663472        18.0540 
 327   0.0000       0.666953        18.1487 
 328   0.0000       0.669048        18.2057 
 329   0.0000       0.671781        18.2801 
 330   0.0000       0.674882        18.3645 
 331   0.0000       0.676038        18.3959 
 332   0.0000       0.678229        18.4555 
 333   0.0000       0.680966        18.5300 
 334   0.0000       0.683933        18.6108 
 335   0.0000       0.690162        18.7803 
 336   0.0000       0.691832        18.8257 
 337   0.0000       0.694107        18.8876 
 338   0.0000       0.696741        18.9593 
 339   0.0000       0.698415        19.0048 
 340   0.0000       0.703368        19.1396 
 341   0.0000       0.706577        19.2269 
 342   0.0000       0.709648        19.3105 
 343   0.0000       0.712101        19.3772 
 344   0.0000       0.714824        19.4513 
 345   0.0000       0.717828        19.5331 
 346   0.0000       0.719321        19.5737 
 347   0.0000       0.721707        19.6387 
 348   0.0000       0.721987        19.6463 
 349   0.0000       0.725096        19.7309 
 350   0.0000       0.728317        19.8185 
 351   0.0000       0.728710        19.8292 
 352   0.0000       0.730931        19.8896 
 353   0.0000       0.732877        19.9426 
 354   0.0000       0.735544        20.0152 
 355   0.0000       0.735880        20.0243 
 356   0.0000       0.736649        20.0452 
 357   0.0000       0.740209        20.1421 
 358   0.0000       0.743299        20.2262 
 359   0.0000       0.745219        20.2784 
 360   0.0000       0.747170        20.3315 
 361   0.0000       0.748258        20.3611 
 362   0.0000       0.751118        20.4390 
 363   0.0000       0.756382        20.5822 
 364   0.0000       0.758468        20.6390 
 365   0.0000       0.761811        20.7299 
 366   0.0000       0.764048        20.7908 
 367   0.0000       0.768333        20.9074 
 368   0.0000       0.771632        20.9972 
 369   0.0000       0.775112        21.0919 
 370   0.0000       0.778877        21.1943 
 371   0.0000       0.782967        21.3056 
 372   0.0000       0.788486        21.4558 
 373   0.0000       0.793308        21.5870 
 374   0.0000       0.797235        21.6939 
 375   0.0000       0.799351        21.7514 
 376   0.0000       0.805940        21.9307 
 377   0.0000       0.809644        22.0315 
 378   0.0000       0.813842        22.1458 
 379   0.0000       0.814924        22.1752 
 380   0.0000       0.818597        22.2752 
 381   0.0000       0.822345        22.3772 
 382   0.0000       0.831154        22.6168 
 383   0.0000       0.838921        22.8282 
 384   0.0000       0.841082        22.8870 
 385   0.0000       0.843918        22.9642 
 386   0.0000       0.852934        23.2095 
 387   0.0000       0.856488        23.3062 
 388   0.0000       0.861658        23.4469 
 389   0.0000       0.864202        23.5161 
 390   0.0000       0.865746        23.5582 
 391   0.0000       0.867304        23.6005 
 392   0.0000       0.871804        23.7230 
 393   0.0000       0.878188        23.8967 
 394   0.0000       0.880614        23.9627 
 395   0.0000       0.888159        24.1680 
 396   0.0000       0.891211        24.2511 
 397   0.0000       0.894106        24.3299 
 398   0.0000       0.899254        24.4700 
 399   0.0000       0.899914        24.4879 
 400   0.0000       0.913470        24.8568 
 401   0.0000       0.916119        24.9289 
 402   0.0000       0.921357        25.0714 
 403   0.0000       0.927890        25.2492 
 404   0.0000       0.932389        25.3716 
 405   0.0000       0.933173        25.3929 
 406   0.0000       0.943957        25.6864 
 407   0.0000       0.946399        25.7528 
 408   0.0000       0.949075        25.8256 
 409   0.0000       0.954163        25.9641 
 410   0.0000       0.955140        25.9907 
 411   0.0000       0.962821        26.1997 
 412   0.0000       0.965960        26.2851 
 413   0.0000       0.970740        26.4152 
 414   0.0000       0.977620        26.6024 
 415   0.0000       0.980847        26.6902 
 416   0.0000       0.985819        26.8255 
 417   0.0000       0.993857        27.0442 
 418   0.0000       1.003104        27.2958 
 419   0.0000       1.013641        27.5826 
 420   0.0000       1.016310        27.6552 
 421   0.0000       1.031629        28.0720 
 422   0.0000       1.036386        28.2015 
 423   0.0000       1.047662        28.5083 
 424   0.0000       1.051039        28.6002 
 425   0.0000       1.053852        28.6768 
 426   0.0000       1.064622        28.9698 
 427   0.0000       1.068785        29.0831 
 428   0.0000       1.073474        29.2107 
 429   0.0000       1.080161        29.3927 
 430   0.0000       1.086036        29.5526 
 431   0.0000       1.090019        29.6609 
 432   0.0000       1.093314        29.7506 
 433   0.0000       1.101314        29.9683 
 434   0.0000       1.103455        30.0265 
 435   0.0000       1.109061        30.1791 
 436   0.0000       1.120018        30.4772 
 437   0.0000       1.131451        30.7884 
 438   0.0000       1.139393        31.0045 
 439   0.0000       1.151316        31.3289 
 440   0.0000       1.156725        31.4761 
 441   0.0000       1.163564        31.6622 
 442   0.0000       1.169907        31.8348 
 443   0.0000       1.171524        31.8788 
 444   0.0000       1.181043        32.1378 
 445   0.0000       1.186197        32.2781 
 446   0.0000       1.189422        32.3658 
 447   0.0000       1.201754        32.7014 
 448   0.0000       1.205421        32.8012 
 449   0.0000       1.207836        32.8669 
 450   0.0000       1.211719        32.9725 
 451   0.0000       1.220327        33.2068 
 452   0.0000       1.223744        33.2998 
 453   0.0000       1.225495        33.3474 
 454   0.0000       1.235435        33.6179 
 455   0.0000       1.242988        33.8234 
 456   0.0000       1.251186        34.0465 
 457   0.0000       1.254677        34.1415 
 458   0.0000       1.261573        34.3291 
 459   0.0000       1.266720        34.4692 
 460   0.0000       1.269512        34.5452 
 461   0.0000       1.273198        34.6455 
 462   0.0000       1.274492        34.6807 
 463   0.0000       1.285197        34.9720 
 464   0.0000       1.288962        35.0744 
 465   0.0000       1.295964        35.2650 
 466   0.0000       1.299684        35.3662 
 467   0.0000       1.309798        35.6414 
 468   0.0000       1.314355        35.7654 
 469   0.0000       1.317104        35.8402 
 470   0.0000       1.318655        35.8824 
 471   0.0000       1.323857        36.0240 
 472   0.0000       1.330125        36.1945 
 473   0.0000       1.339384        36.4465 
 474   0.0000       1.339764        36.4568 
 475   0.0000       1.349691        36.7270 
 476   0.0000       1.353599        36.8333 
 477   0.0000       1.356645        36.9162 
 478   0.0000       1.363312        37.0976 
 479   0.0000       1.369438        37.2643 
 480   0.0000       1.372236        37.3404 
 481   0.0000       1.376879        37.4668 
 482   0.0000       1.383620        37.6502 
 483   0.0000       1.389105        37.7995 
 484   0.0000       1.396838        38.0099 
 485   0.0000       1.403531        38.1920 
 486   0.0000       1.409508        38.3547 
 487   0.0000       1.412005        38.4226 
 488   0.0000       1.413711        38.4690 
 489   0.0000       1.420064        38.6419 
 490   0.0000       1.427941        38.8562 
 491   0.0000       1.432648        38.9843 
 492   0.0000       1.441095        39.2142 
 493   0.0000       1.452175        39.5157 
 494   0.0000       1.454459        39.5778 
 495   0.0000       1.463938        39.8358 
 496   0.0000       1.467485        39.9323 
 497   0.0000       1.475051        40.1382 
[...]
      dx2y2   :     0.039931
      dxy     :     0.031548
 40 O s       :     3.538065  s :     3.538065
      pz      :     1.717112  p :     4.579490
      px      :     1.524404
      py      :     1.337975
      dz2     :     0.003932  d :     0.031259
      dxz     :     0.010274
      dyz     :     0.001477
      dx2y2   :     0.009409
      dxy     :     0.006167
 41 C s       :     2.836458  s :     2.836458
      pz      :     1.070145  p :     3.184790
      px      :     1.045343
      py      :     1.069302
      dz2     :     0.017800  d :     0.068467
      dxz     :     0.017002
      dyz     :     0.005499
      dx2y2   :     0.010407
      dxy     :     0.017759
 42 C s       :     2.853296  s :     2.853296
      pz      :     1.059135  p :     3.115336
      px      :     1.023955
      py      :     1.032246
      dz2     :     0.017449  d :     0.094815
      dxz     :     0.023717
      dyz     :     0.012873
      dx2y2   :     0.023056
      dxy     :     0.017719
 43 C s       :     2.873558  s :     2.873558
      pz      :     1.003792  p :     3.032155
      px      :     1.058006
      py      :     0.970358
      dz2     :     0.015145  d :     0.072700
      dxz     :     0.016180
      dyz     :     0.013149
      dx2y2   :     0.017199
      dxy     :     0.011027
 44 H s       :     0.889833  s :     0.889833
      pz      :     0.035053  p :     0.084399
      px      :     0.025415
      py      :     0.023931
 45 H s       :     0.883153  s :     0.883153
      pz      :     0.017832  p :     0.068754
      px      :     0.025231
      py      :     0.025690
 46 H s       :     0.884737  s :     0.884737
      pz      :     0.034196  p :     0.066956
      px      :     0.015624
      py      :     0.017137
 47 H s       :     0.883375  s :     0.883375
      pz      :     0.014945  p :     0.068711
      px      :     0.020775
      py      :     0.032991
 48 H s       :     0.896990  s :     0.896990
      pz      :     0.039799  p :     0.073707
      px      :     0.013398
      py      :     0.020509
 49 H s       :     0.909097  s :     0.909097
      pz      :     0.038902  p :     0.070823
      px      :     0.013346
      py      :     0.018575
 50 H s       :     0.896039  s :     0.896039
      pz      :     0.044710  p :     0.076900
      px      :     0.014681
      py      :     0.017509
 51 H s       :     0.918828  s :     0.918828
      pz      :     0.013705  p :     0.068999
      px      :     0.041378
      py      :     0.013916
 52 H s       :     0.918841  s :     0.918841
      pz      :     0.030484  p :     0.067468
      px      :     0.020375
      py      :     0.016609
 53 H s       :     0.913692  s :     0.913692
      pz      :     0.021406  p :     0.066464
      px      :     0.022797
      py      :     0.022260
 54 H s       :     0.922455  s :     0.922455
      pz      :     0.008704  p :     0.064384
      px      :     0.015701
      py      :     0.039980
 55 H s       :     0.906242  s :     0.906242
      pz      :     0.012982  p :     0.066272
      px      :     0.015760
      py      :     0.037530
 56 H s       :     0.899316  s :     0.899316
      pz      :     0.037565  p :     0.066327
      px      :     0.013651
      py      :     0.015111
 57 H s       :     0.906448  s :     0.906448
      pz      :     0.022741  p :     0.066313
      px      :     0.021331
      py      :     0.022241
 58 H s       :     0.915800  s :     0.915800
      pz      :     0.040907  p :     0.072986
      px      :     0.015467
      py      :     0.016611
 59 H s       :     0.923067  s :     0.923067
      pz      :     0.013628  p :     0.068717
      px      :     0.039545
      py      :     0.015544
 60 H s       :     0.917125  s :     0.917125
      pz      :     0.031255  p :     0.071033
      px      :     0.021743
      py      :     0.018035
 61 H s       :     0.891109  s :     0.891109
      pz      :     0.016589  p :     0.069587
      px      :     0.023927
      py      :     0.029071
 62 H s       :     0.893771  s :     0.893771
      pz      :     0.040289  p :     0.066877
      px      :     0.013351
      py      :     0.013236
 63 H s       :     0.892614  s :     0.892614
      pz      :     0.013492  p :     0.069163
      px      :     0.022221
      py      :     0.033451
 64 H s       :     0.900096  s :     0.900096
      pz      :     0.027765  p :     0.069119
      px      :     0.018386
      py      :     0.022968
 65 H s       :     0.900320  s :     0.900320
      pz      :     0.028895  p :     0.070393
      px      :     0.018883
      py      :     0.022615
 66 H s       :     0.901158  s :     0.901158
      pz      :     0.012587  p :     0.068960
      px      :     0.043206
      py      :     0.013168


                      *****************************
                      * MAYER POPULATION ANALYSIS *
                      *****************************

  NA   - Mulliken gross atomic population
  ZA   - Total nuclear charge
  QA   - Mulliken gross atomic charge
  VA   - Mayer's total valence
  BVA  - Mayer's bonded valence
  FA   - Mayer's free valence

  ATOM       NA         ZA         QA         VA         BVA        FA
  0 C      6.1711     6.0000    -0.1711     3.7881     3.7881    -0.0000
  1 S     15.8392    16.0000     0.1608     2.5150     2.5150    -0.0000
  2 C      5.9937     6.0000     0.0063     3.9129     3.9129    -0.0000
  3 C      6.1639     6.0000    -0.1639     3.7310     3.7310    -0.0000
  4 S     15.7206    16.0000     0.2794     2.7468     2.7468    -0.0000
  5 C      5.9755     6.0000     0.0245     4.3260     4.3260    -0.0000
  6 O      8.2042     8.0000    -0.2042     2.3033     2.3033    -0.0000
  7 C      5.9391     6.0000     0.0609     3.8938     3.8938    -0.0000
  8 C      6.0236     6.0000    -0.0236     3.8877     3.8877    -0.0000
  9 C      6.0143     6.0000    -0.0143     3.8279     3.8279    -0.0000
 10 C      5.9058     6.0000     0.0942     3.7800     3.7800    -0.0000
 11 C      6.0631     6.0000    -0.0631     3.8080     3.8080    -0.0000
 12 C      5.8878     6.0000     0.1122     3.8539     3.8539    -0.0000
 13 C      6.0522     6.0000    -0.0522     3.9955     3.9955    -0.0000
 14 N      7.0450     7.0000    -0.0450     3.2492     3.2492    -0.0000
 15 C      6.0319     6.0000    -0.0319     4.0151     4.0151    -0.0000
 16 C      6.1550     6.0000    -0.1550     3.8222     3.8222    -0.0000
 17 S     15.8637    16.0000     0.1363     2.5106     2.5106    -0.0000
 18 C      6.0701     6.0000    -0.0701     3.8507     3.8507    -0.0000
 19 C      5.9045     6.0000     0.0955     3.9549     3.9549    -0.0000
 20 C      5.7914     6.0000     0.2086     4.0107     4.0107    -0.0000
 21 O      8.3205     8.0000    -0.3205     2.2133     2.2133    -0.0000
 22 C      5.8389     6.0000     0.1611     4.0214     4.0214    -0.0000
 23 C      5.9973     6.0000     0.0027     3.9963     3.9963    -0.0000
 24 O      8.2547     8.0000    -0.2547     2.0835     2.0835    -0.0000
 25 N      6.6328     7.0000     0.3672     4.2585     4.2585    -0.0000
 26 O      8.1583     8.0000    -0.1583     2.0639     2.0639    -0.0000
 27 O      8.1520     8.0000    -0.1520     2.0520     2.0520    -0.0000
 28 C      5.9433     6.0000     0.0567     3.8683     3.8683    -0.0000
 29 C      6.0948     6.0000    -0.0948     3.8773     3.8773    -0.0000
 30 C      5.8621     6.0000     0.1379     3.9716     3.9716    -0.0000
 31 C      6.0609     6.0000    -0.0609     4.0212     4.0212    -0.0000
 32 N      7.0381     7.0000    -0.0381     3.2582     3.2582    -0.0000
 33 C      6.0693     6.0000    -0.0693     3.9986     3.9986    -0.0000
 34 C      6.2321     6.0000    -0.2321     3.7647     3.7647    -0.0000
 35 S     15.8602    16.0000     0.1398     2.4643     2.4643    -0.0000
 36 C      6.0509     6.0000    -0.0509     3.9720     3.9720    -0.0000
 37 C      6.0674     6.0000    -0.0674     3.7427     3.7427    -0.0000
 38 S     15.9283    16.0000     0.0717     2.4141     2.4141    -0.0000
 39 C      6.0009     6.0000    -0.0009     4.3613     4.3613    -0.0000
 40 O      8.1824     8.0000    -0.1824     2.3140     2.3140    -0.0000
 41 C      5.9745     6.0000     0.0255     3.8653     3.8653    -0.0000
 42 C      6.0210     6.0000    -0.0210     4.0402     4.0402    -0.0000
 43 C      5.9459     6.0000     0.0541     3.9886     3.9886    -0.0000
 44 H      0.9078     1.0000     0.0922     0.9988     0.9988    -0.0000
 45 H      0.9417     1.0000     0.0583     0.9948     0.9948    -0.0000
 46 H      0.9596     1.0000     0.0404     1.0171     1.0171    -0.0000
 47 H      0.9423     1.0000     0.0577     0.9947     0.9947    -0.0000
 48 H      1.0361     1.0000    -0.0361     1.0404     1.0404    -0.0000
 49 H      1.0031     1.0000    -0.0031     0.9957     0.9957    -0.0000
 50 H      1.0103     1.0000    -0.0103     1.0431     1.0431    -0.0000
 51 H      0.9916     1.0000     0.0084     0.9973     0.9973    -0.0000
 52 H      1.0138     1.0000    -0.0138     0.9930     0.9930    -0.0000
 53 H      0.9638     1.0000     0.0362     0.9878     0.9878    -0.0000
 54 H      0.9884     1.0000     0.0116     0.9833     0.9833    -0.0000
 55 H      0.9748     1.0000     0.0252     0.9942     0.9942    -0.0000
 56 H      0.9749     1.0000     0.0251     0.9910     0.9910    -0.0000
 57 H      0.9759     1.0000     0.0241     0.9929     0.9929    -0.0000
 58 H      1.0077     1.0000    -0.0077     1.0050     1.0050    -0.0000
 59 H      1.0069     1.0000    -0.0069     0.9933     0.9933    -0.0000
 60 H      1.0063     1.0000    -0.0063     1.0092     1.0092    -0.0000
 61 H      0.9532     1.0000     0.0468     1.0055     1.0055    -0.0000
 62 H      0.9652     1.0000     0.0348     1.0170     1.0170    -0.0000
 63 H      0.9562     1.0000     0.0438     1.0007     1.0007    -0.0000
 64 H      0.9860     1.0000     0.0140     0.9900     0.9900    -0.0000
 65 H      0.9636     1.0000     0.0364     0.9999     0.9999    -0.0000
 66 H      0.9682     1.0000     0.0318     0.9776     0.9776    -0.0000

  Mayer bond orders larger than 0.100000
B(  0-C ,  1-S ) :   1.1204 B(  0-C ,  4-S ) :   1.2408 B(  0-C , 34-C ) :   0.1030 
B(  0-C , 44-H ) :   0.9675 B(  1-S ,  2-C ) :   1.0218 B(  2-C ,  3-C ) :   1.4757 
B(  2-C ,  8-C ) :   1.2394 B(  3-C ,  4-S ) :   1.1483 B(  3-C ,  5-C ) :   0.9791 
B(  5-C ,  6-O ) :   2.1261 B(  5-C ,  7-C ) :   1.1040 B(  7-C , 45-H ) :   0.9352 
B(  7-C , 46-H ) :   0.9339 B(  7-C , 47-H ) :   0.9345 B(  8-C ,  9-C ) :   1.5634 
B(  8-C , 48-H ) :   0.9640 B(  9-C , 10-C ) :   1.1061 B(  9-C , 49-H ) :   0.9721 
B( 10-C , 11-C ) :   1.3103 B( 10-C , 15-C ) :   1.3009 B( 11-C , 12-C ) :   1.3864 
B( 11-C , 50-H ) :   0.9895 B( 12-C , 13-C ) :   1.2916 B( 12-C , 16-C ) :   1.0761 
B( 13-C , 14-N ) :   1.5633 B( 13-C , 51-H ) :   0.9775 B( 14-N , 15-C ) :   1.5803 
B( 15-C , 52-H ) :   0.9837 B( 16-C , 17-S ) :   1.0947 B( 16-C , 18-C ) :   0.1328 
B( 16-C , 20-C ) :   1.5225 B( 17-S , 18-C ) :   1.1634 B( 18-C , 19-C ) :   1.5170 
B( 18-C , 28-C ) :   1.0191 B( 19-C , 20-C ) :   1.1927 B( 19-C , 24-O ) :   1.0377 
B( 20-C , 21-O ) :   1.1620 B( 21-O , 22-C ) :   0.9203 B( 22-C , 23-C ) :   1.0997 
B( 22-C , 53-H ) :   0.9546 B( 22-C , 54-H ) :   0.9574 B( 23-C , 55-H ) :   0.9703 
B( 23-C , 56-H ) :   0.9619 B( 23-C , 57-H ) :   0.9680 B( 24-O , 25-N ) :   0.8330 
B( 25-N , 26-O ) :   1.7068 B( 25-N , 27-O ) :   1.6602 B( 26-O , 27-O ) :   0.2475 
B( 28-C , 29-C ) :   1.4238 B( 28-C , 33-C ) :   1.3064 B( 29-C , 30-C ) :   1.2651 
B( 29-C , 58-H ) :   0.9728 B( 30-C , 31-C ) :   1.1994 B( 30-C , 34-C ) :   1.3466 
B( 31-C , 32-N ) :   1.6444 B( 31-C , 59-H ) :   0.9797 B( 32-N , 33-C ) :   1.5057 
B( 33-C , 60-H ) :   0.9885 B( 34-C , 35-S ) :   1.0338 B( 34-C , 38-S ) :   1.0174 
B( 35-S , 36-C ) :   1.1122 B( 36-C , 37-C ) :   1.6606 B( 36-C , 42-C ) :   1.0482 
B( 37-C , 38-S ) :   1.0127 B( 37-C , 39-C ) :   0.9799 B( 39-C , 40-O ) :   2.1626 
B( 39-C , 41-C ) :   1.0704 B( 41-C , 61-H ) :   0.9392 B( 41-C , 62-H ) :   0.9479 
B( 41-C , 63-H ) :   0.9426 B( 42-C , 43-C ) :   1.9822 B( 42-C , 64-H ) :   0.9487 
B( 43-C , 65-H ) :   0.9561 B( 43-C , 66-H ) :   0.9509 

-------
TIMINGS
-------

Total SCF time: 0 days 0 hours 9 min 2 sec 

Total time                  ....     542.613 sec
Sum of individual times     ....     540.872 sec  ( 99.7%)

Fock matrix formation       ....     497.934 sec  ( 91.8%)
  Split-RI-J                ....      42.320 sec  (  8.5% of F)
  Chain of spheres X        ....     418.020 sec  ( 84.0% of F)
  COS-X 1 center corr.      ....       0.000 sec  (  0.0% of F)
  XC integration            ....      36.475 sec  (  7.3% of F)
    Basis function eval.    ....       9.041 sec  ( 24.8% of XC)
    Density eval.           ....      11.555 sec  ( 31.7% of XC)
    XC-Functional eval.     ....       8.683 sec  ( 23.8% of XC)
    XC-Potential eval.      ....       5.943 sec  ( 16.3% of XC)
Diagonalization             ....      16.125 sec  (  3.0%)
Density matrix formation    ....       0.337 sec  (  0.1%)
Population analysis         ....       0.384 sec  (  0.1%)
Initial guess               ....       1.633 sec  (  0.3%)
Orbital Transformation      ....       0.000 sec  (  0.0%)
Orbital Orthonormalization  ....       0.000 sec  (  0.0%)
DIIS solution               ....       6.644 sec  (  1.2%)
SOSCF solution              ....       4.732 sec  (  0.9%)
Grid generation             ....      13.083 sec  (  2.4%)


           ************************************************************
           *        Program running with 6 parallel MPI-processes     *
           *              working on a common directory               *
           ************************************************************

---------------------------------------------------------------------------------

                       ORCA sTD-DFT CALCULATION

                       please cite in your paper           
 orginal sTDA method:  S. Grimme, J. Chem. Phys. 138, 244104 (2013)           
 range-separated sTDA: T. Risthaus, A. Hansen, S. Grimme, Phys. Chem. Chem. Phys.
                       16, 14408-14419 (2014) 
 sTD-DFT approach:     C. Bannwarth, S. Grimme, Comp. Theor. Chem. 
                       1040-1041, 45-53 (2014)

---------------------------------------------------------------------------------


spectral range up to (eV)      ...    5.000000
occ. MO cut-off (eV)           ...   -16.055374
virt. MO cut-off (eV)          ...    9.338308
perturbation threshold         ...   1.000e-04 
MOs in sTD-DFT                 ...         134 
occ. MOs in sTD-DFT            ...          66 
virt. in sTD-DFT               ...          68 
calculate triplets           ...   no  

Calculating the dipole lengths integrals ... 
Transforming integrals ... 
Calculating the dipole velocity integrals ... 
Transforming integrals ... 
Calculating magnetic dipole integrals ... 
Transforming integrals ... 





























SCF atom population (using active MOs):

   2.424   3.699   1.955   2.061   3.557   1.713   4.302   2.718   2.194   2.296
   2.219   2.293   2.190   2.198   3.148   2.188   2.403   3.877   2.264   1.883
   1.783   3.515   2.185   2.938   3.389   0.481   2.898   2.843   2.312   2.583
   2.262   2.531   3.350   2.623   2.620   3.925   2.137   2.224   4.030   2.047
   4.734   3.070   2.601   2.885   0.421   0.606   0.656   0.606   0.493   0.548
   0.535   0.582   0.596   0.586   0.616   0.666   0.651   0.664   0.684   0.743
   0.755   0.693   0.656   0.693   0.673   0.675   0.657

Number of electrons in sTDA:  132.000

ax(DF)   :  0.3800
s^k      :  2.0000
beta  (J):  1.8600
alpha (K):  0.9000

hardness table read
setting up gammas ...
computing q(ij,n)
memory needed for q data:             3.5 MB 
memory available for q data:       2492.0 MB 

CSF included by energy:           42 
CSF considered in PT2:          4446 

ordered frontier orbitals
           eV         # centers 
  55      -9.568       7.1
  56      -9.294      11.8
  57      -9.019      15.8
  58      -8.839       2.4
  59      -8.448       5.8
  60      -8.341       9.2
  61      -8.195       5.3
  62      -8.057      12.2
  63      -7.654      13.2
  64      -7.009      11.4
  65      -3.702      11.3

  66      -3.015       9.3
  67      -2.227      10.0
  68      -0.851      21.2
  69      -0.696      13.5
  70      -0.269       3.9
  71       0.215      10.5
  72       0.415       4.8
  73       0.490      13.8
  74       1.210       7.1
  75       1.294      13.6
  76       1.663      22.2

           eV        nm       excitation i->a                     eV 
   0      0.35    3574.6    65 ->  67      gap,J,K:    1.475     1.808     0.340
   1      1.08    1149.5    65 ->  68      gap,J,K:    2.851     1.992     0.110
   2      1.24     996.8    65 ->  69      gap,J,K:    3.005     1.970     0.104
   3      1.61     769.3    65 ->  70      gap,J,K:    3.433     1.838     0.009
   4      2.23     555.1    65 ->  72      gap,J,K:    4.117     1.884     0.000
   5      2.26     547.4    65 ->  66      gap,J,K:    0.686     2.097     1.838
   6      2.33     532.4    64 ->  66      gap,J,K:    3.993     1.821     0.078
   7      2.34     529.2    65 ->  71      gap,J,K:    3.917     1.803     0.115
   8      2.41     515.0    65 ->  73      gap,J,K:    4.191     1.924     0.070
   9      2.72     455.5    65 ->  74      gap,J,K:    4.912     2.250     0.030
  10      3.24     382.6    64 ->  67      gap,J,K:    4.782     1.676     0.067
  11      3.26     380.6    65 ->  75      gap,J,K:    4.995     2.200     0.231
  12      3.31     374.9    63 ->  66      gap,J,K:    4.639     1.754     0.211
  13      3.33     372.6    62 ->  66      gap,J,K:    5.042     2.106     0.196
  14      3.39     365.5    61 ->  66      gap,J,K:    5.179     1.798     0.006
  15      3.60     344.9    65 ->  77      gap,J,K:    5.389     1.873     0.040
  16      3.60     344.6    60 ->  66      gap,J,K:    5.325     1.774     0.023
  17      3.75     330.2    65 ->  76      gap,J,K:    5.365     1.884     0.137
  18      3.93     315.2    59 ->  66      gap,J,K:    5.432     1.594     0.048
  19      4.00     310.3    58 ->  66      gap,J,K:    5.824     1.829     0.000
  20      4.04     307.2    65 ->  78      gap,J,K:    5.796     1.803     0.022
  21      4.11     301.9    54 ->  67      gap,J,K:    7.449     3.343     0.000
  22      4.13     300.1    62 ->  67      gap,J,K:    5.830     2.652     0.477
  23      4.15     298.5    65 ->  80      gap,J,K:    5.896     1.781     0.019
  24      4.16     297.7    65 ->  79      gap,J,K:    5.866     1.981     0.140








average / max PT2 energy lowering (eV):       0.031       0.181

CSF included by PT:                   252 
total number of CSF included:         294 
 
sTD-DFT procedure...
setting up A+B and A-B matrices...  done
estimated time (min):    0.001
calculating (A-B)^0.5 ...[file orca_cis/cis_stda.cpp, line 1998, Process 5]: Non-real instability encountered...

[file orca_cis/cis_stda.cpp, line 1998, Process 4]: Non-real instability encountered...

[file orca_cis/cis_stda.cpp, line 1998, Process 1]: Non-real instability encountered...

[file orca_cis/cis_stda.cpp, line 1998, Process 3]: Non-real instability encountered...

[file orca_cis/cis_stda.cpp, line 1998, Process 2]: Non-real instability encountered...


Error (STDDFT): (A-B) is not positive definite!
                The ground-state wave function is non-real unstable.
                Check your ground-state and/or resort to sTDA.
[file orca_cis/cis_stda.cpp, line 1998, Process 0]: Non-real instability encountered...


ORCA finished by error termination in CIS
Calling Command: mpirun -np 6  /ihome/crc/build/orca/orca_4_2_0_linux_x86-64_openmpi314/orca_cis_mpi xtbopt.cisinp.tmp xtbopt 
[file orca_tools/qcmsg.cpp, line 458]: 
  .... aborting the run

