
                                 *****************
                                 * O   R   C   A *
                                 *****************

           --- An Ab Initio, DFT and Semiempirical electronic structure package ---

                  #######################################################
                  #                        -***-                        #
                  #          Department of theory and spectroscopy      #
                  #               Directorship: Frank Neese             #
                  #        Max Planck Institute fuer Kohlenforschung    #
                  #                Kaiser Wilhelm Platz 1               #
                  #                 D-45470 Muelheim/Ruhr               #
                  #                      Germany                        #
                  #                                                     #
                  #                  All rights reserved                #
                  #                        -***-                        #
                  #######################################################


                         Program Version 4.2.0 -  RELEASE  -


 With contributions from (in alphabetic order):
   Daniel Aravena         : Magnetic Suceptibility
   Michael Atanasov       : Ab Initio Ligand Field Theory (pilot matlab implementation)
   Alexander A. Auer      : GIAO ZORA, VPT2
   Ute Becker             : Parallelization
   Giovanni Bistoni       : ED, misc. LED, open-shell LED, HFLED
   Martin Brehm           : Molecular dynamics
   Dmytro Bykov           : SCF Hessian
   Vijay G. Chilkuri      : MRCI spin determinant printing, contributions to CSF-ICE
   Dipayan Datta          : RHF DLPNO-CCSD density
   Achintya Kumar Dutta   : EOM-CC, STEOM-CC
   Dmitry Ganyushin       : Spin-Orbit,Spin-Spin,Magnetic field MRCI
   Miquel Garcia          : C-PCM Hessian, Gaussian charge scheme
   Yang Guo               : DLPNO-NEVPT2, CIM, IAO-localization
   Andreas Hansen         : Spin unrestricted coupled pair/coupled cluster methods
   Benjamin Helmich-Paris : CASSCF linear response (MC-RPA)
   Lee Huntington         : MR-EOM, pCC
   Robert Izsak           : Overlap fitted RIJCOSX, COSX-SCS-MP3, EOM
   Christian Kollmar      : KDIIS, OOCD, Brueckner-CCSD(T), CCSD density
   Simone Kossmann        : Meta GGA functionals, TD-DFT gradient, OOMP2, MP2 Hessian
   Martin Krupicka        : AUTO-CI
   Lucas Lang             : DCDCAS
   Dagmar Lenk            : GEPOL surface, SMD
   Dimitrios Liakos       : Extrapolation schemes; Compound Job, initial MDCI parallelization
   Dimitrios Manganas     : Further ROCIS development; embedding schemes
   Dimitrios Pantazis     : SARC Basis sets
   Taras Petrenko         : DFT Hessian,TD-DFT gradient, ASA, ECA, R-Raman, ABS, FL, XAS/XES, NRVS
   Peter Pinski           : DLPNO-MP2, DLPNO-MP2 Gradient
   Christoph Reimann      : Effective Core Potentials
   Marius Retegan         : Local ZFS, SOC
   Christoph Riplinger    : Optimizer, TS searches, QM/MM, DLPNO-CCSD(T), (RO)-DLPNO pert. Triples
   Tobias Risthaus        : Range-separated hybrids, TD-DFT gradient, RPA, STAB
   Michael Roemelt        : Original ROCIS implementation
   Masaaki Saitow         : Open-shell DLPNO-CCSD energy and density
   Barbara Sandhoefer     : DKH picture change effects
   Avijit Sen             : IP-ROCIS
   Kantharuban Sivalingam : CASSCF convergence, NEVPT2, FIC-MRCI
   Bernardo de Souza      : ESD, SOC TD-DFT
   Georgi Stoychev        : AutoAux, RI-MP2 NMR
   Willem Van den Heuvel  : Paramagnetic NMR
   Boris Wezisla          : Elementary symmetry handling
   Frank Wennmohs         : Technical directorship


 We gratefully acknowledge several colleagues who have allowed us to
 interface, adapt or use parts of their codes:
   Stefan Grimme, W. Hujo, H. Kruse,             : VdW corrections, initial TS optimization,
                  C. Bannwarth                     DFT functionals, gCP, sTDA/sTD-DF
   Ed Valeev, F. Pavosevic, A. Kumar             : LibInt (2-el integral package), F12 methods
   Garnet Chan, S. Sharma, J. Yang, R. Olivares  : DMRG
   Ulf Ekstrom                                   : XCFun DFT Library
   Mihaly Kallay                                 : mrcc  (arbitrary order and MRCC methods)
   Andreas Klamt, Michael Diedenhofen            : otool_cosmo (COSMO solvation model)
   Jiri Pittner, Ondrej Demel                    : Mk-CCSD
   Frank Weinhold                                : gennbo (NPA and NBO analysis)
   Christopher J. Cramer and Donald G. Truhlar   : smd solvation model
   Lars Goerigk                                  : TD-DFT with DH, B97 family of functionals
   V. Asgeirsson, H. Jonsson                     : NEB implementation
   FAccTs GmbH                                   : IRC, NEB, NEB-TS, Multilevel, MM, QM/MM, CI optimization
   S Lehtola, MJT Oliveira, MAL Marques          : LibXC Library


 Your calculation uses the libint2 library for the computation of 2-el integrals
 For citations please refer to: http://libint.valeyev.net

 Your ORCA version has been built with support for libXC version: 4.2.3
 For citations please refer to: https://tddft.org/programs/libxc/

 This ORCA versions uses:
   CBLAS   interface :  Fast vector & matrix operations
   LAPACKE interface :  Fast linear algebra routines
   SCALAPACK package :  Parallel linear algebra routines


XCFun DFT library Copyright 2009-2010 Ulf Ekstrom and contributors.
See http://admol.org/xcfun for more information. This is free soft-
ware; see the source code for copying conditions. There is ABSOLUTELY
NO WARRANTY; not even for MERCHANTABILITY or FITNESS FOR A PARTICULAR
PURPOSE. For details see the documentation. Scientific users of this 
library should cite U. Ekstrom, L. Visscher, R. Bast, A. J. Thorvald-
sen and K. Ruud; J.Chem.Theor.Comp. 2010, DOI: 10.1021/ct100117s
XCFun Version 0.99 
----- Orbital basis set information -----
Your calculation utilizes the basis: def2-SVP
   F. Weigend and R. Ahlrichs, Phys. Chem. Chem. Phys. 7, 3297 (2005).

----- AuxJ basis set information -----
Your calculation utilizes the auxiliary basis: def2/J
   F. Weigend, Phys. Chem. Chem. Phys. 8, 1057 (2006).

================================================================================
                                        WARNINGS
                       Please study these warnings very carefully!
================================================================================

INFO   : Checking CIS options ...

WARNING: CIS/ROCIS methods need fully converged wavefunctions
  ===> : Setting SCFConvForced true
         You can overwrite this default with %scf ConvForced false 


INFO   : the flag for use of LIBINT has been found!

================================================================================
                                       INPUT FILE
================================================================================
NAME = xtbopt.inp
|  1> # ORCA input file
|  2> # SCF done       -156.974978023073          0.000732735688
|  3> ! CAM-B3LYP def2-SVP def2/J RIJCOSX Grid4 TightSCF
|  4> %maxcore 5000
|  5> %tddft
|  6>     Mode sTDDFT
|  7>     Ethresh 5.0
|  8>     maxcore 5000
|  9> end
| 10> 
| 11> %pal
| 12>   nprocs 6
| 13>   end
| 14> * xyz 0 1
| 15>    C       -1.85862         2.30031         3.32576
| 16>    C       -1.97463         2.41806         4.70255
| 17>    C       -2.97685         1.75484         5.39759
| 18>    C       -3.89769         0.95813         4.73438
| 19>    C       -3.79184         0.83186         3.35868
| 20>    C       -2.76703         1.50093         2.64884
| 21>    C       -2.87915         1.17629         1.23361
| 22>    C       -2.16352         1.73464         0.21289
| 23>    C       -1.18373         2.73646         0.39312
| 24>    N       -0.37885         3.55000         0.47141
| 25>    C       -2.32052         1.43110        -1.15844
| 26>    N       -2.38942         1.24229        -2.28797
| 27>    C       -3.90483         0.13906         1.12635
| 28>    C       -4.61115         0.10375         2.40480
| 29>    C       -5.89689        -0.32238         2.59533
| 30>    C       -6.75407        -0.73316         1.55039
| 31>    N       -7.50989        -0.99384         0.72742
| 32>    C       -6.55297        -0.28960         3.84496
| 33>    N       -7.11626        -0.29318         4.84386
| 34>    C       -4.06086        -0.71020         0.07491
| 35>    C       -4.76820        -1.94196         0.08515
| 36>    C       -4.94356        -2.87340         1.21246
| 37>    N       -5.57420        -3.96623         0.90763
| 38>    C       -5.88999        -3.85834        -0.41485
| 39>    C       -5.35832        -2.60370        -0.96647
| 40>    C       -5.67716        -2.49175        -2.36742
| 41>    S       -5.26954        -1.26290        -3.37558
| 42>    C       -6.40246        -3.70480        -2.65571
| 43>    C       -6.52515        -4.52466        -1.43038
| 44>    N       -7.21159        -5.67340        -1.68612
| 45>    C       -7.51165        -5.63272        -2.94997
| 46>    C       -7.03650        -4.42565        -3.63674
| 47>    C       -7.22134        -4.16659        -5.02154
| 48>    O       -6.75236        -3.00966        -5.56734
| 49>    C       -7.06436        -3.09359        -6.87442
| 50>    C       -7.73432        -4.34103        -7.07413
| 51>    N       -7.80301        -4.96868        -5.86582
| 52>    C       -8.18159        -4.74528        -8.32365
| 53>    C       -7.92395        -3.84878        -9.34623
| 54>    C       -7.25631        -2.60482        -9.11730
| 55>    C       -6.80558        -2.18501        -7.88156
| 56>    O       -7.16019        -1.97668       -10.30594
| 57>    C       -7.74651        -2.82767       -11.20248
| 58>    N       -8.20416        -3.92574       -10.68163
| 59>    C       -7.78591        -2.44835       -12.57924
| 60>    C       -8.30376        -3.26689       -13.51836
| 61>    C       -8.36822        -2.98991       -14.91545
| 62>    C       -7.97791        -1.86512       -15.62165
| 63>    F       -7.45271        -0.77558       -15.05453
| 64>    C       -8.18468        -1.96695       -17.00580
| 65>    F       -7.87642        -0.99806       -17.86662
| 66>    C       -8.73608        -3.17473       -17.38269
| 67>    S       -9.00342        -4.18324       -16.00977
| 68>    C       -9.06343        -3.62382       -18.69830
| 69>    N       -9.56345        -4.78451       -19.00522
| 70>    C       -9.69971        -4.77099       -20.36559
| 71>    C       -9.25645        -3.55115       -20.82387
| 72>    O       -8.85586        -2.82865       -19.77568
| 73>    C      -10.23102        -5.90707       -21.11117
| 74>    O      -10.36414        -5.93782       -22.30617
| 75>    H       -1.07089         2.81813         2.80383
| 76>    H       -1.26995         3.03353         5.24027
| 77>    H       -3.04141         1.85772         6.46978
| 78>    H       -4.66772         0.44195         5.28451
| 79>    H       -3.56372        -0.47967        -0.85909
| 80>    H       -4.54476        -2.73446         2.20277
| 81>    H       -8.05959        -6.42327        -3.42959
| 82>    H       -8.68317        -5.68247        -8.48471
| 83>    H       -6.29986        -1.24968        -7.71725
| 84>    H       -7.36654        -1.48166       -12.81030
| 85>    H       -8.69808        -4.22257       -13.20331
| 86>    H       -9.18784        -3.12736       -21.80465
| 87>    H      -10.50765        -6.75333       -20.45904
| 88> *
| 89> 
| 90>                          ****END OF INPUT****
================================================================================

                       ****************************
                       * Single Point Calculation *
                       ****************************

---------------------------------
CARTESIAN COORDINATES (ANGSTROEM)
---------------------------------
  C     -1.858620    2.300310    3.325760
  C     -1.974630    2.418060    4.702550
  C     -2.976850    1.754840    5.397590
  C     -3.897690    0.958130    4.734380
  C     -3.791840    0.831860    3.358680
  C     -2.767030    1.500930    2.648840
  C     -2.879150    1.176290    1.233610
  C     -2.163520    1.734640    0.212890
  C     -1.183730    2.736460    0.393120
  N     -0.378850    3.550000    0.471410
  C     -2.320520    1.431100   -1.158440
  N     -2.389420    1.242290   -2.287970
  C     -3.904830    0.139060    1.126350
  C     -4.611150    0.103750    2.404800
  C     -5.896890   -0.322380    2.595330
  C     -6.754070   -0.733160    1.550390
  N     -7.509890   -0.993840    0.727420
  C     -6.552970   -0.289600    3.844960
  N     -7.116260   -0.293180    4.843860
  C     -4.060860   -0.710200    0.074910
  C     -4.768200   -1.941960    0.085150
  C     -4.943560   -2.873400    1.212460
  N     -5.574200   -3.966230    0.907630
  C     -5.889990   -3.858340   -0.414850
  C     -5.358320   -2.603700   -0.966470
  C     -5.677160   -2.491750   -2.367420
  S     -5.269540   -1.262900   -3.375580
  C     -6.402460   -3.704800   -2.655710
  C     -6.525150   -4.524660   -1.430380
  N     -7.211590   -5.673400   -1.686120
  C     -7.511650   -5.632720   -2.949970
  C     -7.036500   -4.425650   -3.636740
  C     -7.221340   -4.166590   -5.021540
  O     -6.752360   -3.009660   -5.567340
  C     -7.064360   -3.093590   -6.874420
  C     -7.734320   -4.341030   -7.074130
  N     -7.803010   -4.968680   -5.865820
  C     -8.181590   -4.745280   -8.323650
  C     -7.923950   -3.848780   -9.346230
  C     -7.256310   -2.604820   -9.117300
  C     -6.805580   -2.185010   -7.881560
  O     -7.160190   -1.976680  -10.305940
  C     -7.746510   -2.827670  -11.202480
  N     -8.204160   -3.925740  -10.681630
  C     -7.785910   -2.448350  -12.579240
  C     -8.303760   -3.266890  -13.518360
  C     -8.368220   -2.989910  -14.915450
  C     -7.977910   -1.865120  -15.621650
  F     -7.452710   -0.775580  -15.054530
  C     -8.184680   -1.966950  -17.005800
  F     -7.876420   -0.998060  -17.866620
  C     -8.736080   -3.174730  -17.382690
  S     -9.003420   -4.183240  -16.009770
  C     -9.063430   -3.623820  -18.698300
  N     -9.563450   -4.784510  -19.005220
  C     -9.699710   -4.770990  -20.365590
  C     -9.256450   -3.551150  -20.823870
  O     -8.855860   -2.828650  -19.775680
  C    -10.231020   -5.907070  -21.111170
  O    -10.364140   -5.937820  -22.306170
  H     -1.070890    2.818130    2.803830
  H     -1.269950    3.033530    5.240270
  H     -3.041410    1.857720    6.469780
  H     -4.667720    0.441950    5.284510
  H     -3.563720   -0.479670   -0.859090
  H     -4.544760   -2.734460    2.202770
  H     -8.059590   -6.423270   -3.429590
  H     -8.683170   -5.682470   -8.484710
  H     -6.299860   -1.249680   -7.717250
  H     -7.366540   -1.481660  -12.810300
  H     -8.698080   -4.222570  -13.203310
  H     -9.187840   -3.127360  -21.804650
  H    -10.507650   -6.753330  -20.459040

----------------------------
CARTESIAN COORDINATES (A.U.)
----------------------------
  NO LB      ZA    FRAG     MASS         X           Y           Z
   0 C     6.0000    0    12.011   -3.512283    4.346956    6.284776
   1 C     6.0000    0    12.011   -3.731510    4.569471    8.886532
   2 C     6.0000    0    12.011   -5.625431    3.316167   10.199967
   3 C     6.0000    0    12.011   -7.365567    1.810603    8.946682
   4 C     6.0000    0    12.011   -7.165539    1.571988    6.346985
   5 C     6.0000    0    12.011   -5.228929    2.836347    5.005582
   6 C     6.0000    0    12.011   -5.440805    2.222866    2.331185
   7 C     6.0000    0    12.011   -4.088460    3.277995    0.402304
   8 C     6.0000    0    12.011   -2.236926    5.171160    0.742889
   9 N     7.0000    0    14.007   -0.715923    6.708528    0.890836
  10 C     6.0000    0    12.011   -4.385147    2.704387   -2.189134
  11 N     7.0000    0    14.007   -4.515349    2.347588   -4.323637
  12 C     6.0000    0    12.011   -7.379059    0.262785    2.128493
  13 C     6.0000    0    12.011   -8.713811    0.196059    4.544413
  14 C     6.0000    0    12.011  -11.143507   -0.609210    4.904463
  15 C     6.0000    0    12.011  -12.763343   -1.385472    2.929813
  16 N     7.0000    0    14.007  -14.191635   -1.878085    1.374625
  17 C     6.0000    0    12.011  -12.383319   -0.547265    7.265921
  18 N     7.0000    0    14.007  -13.447782   -0.554030    9.153569
  19 C     6.0000    0    12.011   -7.673913   -1.342084    0.141559
  20 C     6.0000    0    12.011   -9.010592   -3.669773    0.160910
  21 C     6.0000    0    12.011   -9.341975   -5.429939    2.291217
  22 N     7.0000    0    14.007  -10.533711   -7.495088    1.715172
  23 C     6.0000    0    12.011  -11.130468   -7.291206   -0.783953
  24 C     6.0000    0    12.011  -10.125757   -4.920280   -1.826364
  25 C     6.0000    0    12.011  -10.728278   -4.708725   -4.473775
  26 S    16.0000    0    32.060   -9.957987   -2.386535   -6.378922
  27 C     6.0000    0    12.011  -12.098896   -7.001057   -5.018565
  28 C     6.0000    0    12.011  -12.330746   -8.550368   -2.703026
  29 N     7.0000    0    14.007  -13.627930  -10.721172   -3.186305
  30 C     6.0000    0    12.011  -14.194961  -10.644298   -5.574635
  31 C     6.0000    0    12.011  -13.297058   -8.363266   -6.872443
  32 C     6.0000    0    12.011  -13.646355   -7.873714   -9.489335
  33 O     8.0000    0    15.999  -12.760111   -5.687433  -10.520748
  34 C     6.0000    0    12.011  -13.349706   -5.846038  -12.990771
  35 C     6.0000    0    12.011  -14.615747   -8.203358  -13.368168
  36 N     7.0000    0    14.007  -14.745552   -9.389444  -11.084793
  37 C     6.0000    0    12.011  -15.460964   -8.967280  -15.729419
  38 C     6.0000    0    12.011  -14.974095   -7.273140  -17.661815
  39 C     6.0000    0    12.011  -13.712439   -4.922396  -17.229200
  40 C     6.0000    0    12.011  -12.860682   -4.129070  -14.893990
  41 O     8.0000    0    15.999  -13.530798   -3.735384  -19.475404
  42 C     6.0000    0    12.011  -14.638782   -5.343522  -21.169619
  43 N     7.0000    0    14.007  -15.503616   -7.418573  -20.185355
  44 C     6.0000    0    12.011  -14.713238   -4.626711  -23.771319
  45 C     6.0000    0    12.011  -15.691832   -6.173527  -25.545998
  46 C     6.0000    0    12.011  -15.813644   -5.650111  -28.186116
  47 C     6.0000    0    12.011  -15.076065   -3.524566  -29.520640
  48 F     9.0000    0    18.998  -14.083581   -1.465634  -28.448939
  49 C     6.0000    0    12.011  -15.466804   -3.716997  -32.136305
  50 F     9.0000    0    18.998  -14.884277   -1.886060  -33.763019
  51 C     6.0000    0    12.011  -16.508799   -5.999370  -32.848524
  52 S    16.0000    0    32.060  -17.013998   -7.905178  -30.254081
  53 C     6.0000    0    12.011  -17.127401   -6.848027  -35.334666
  54 N     7.0000    0    14.007  -18.072301   -9.041414  -35.914661
  55 C     6.0000    0    12.011  -18.329795   -9.015864  -38.485388
  56 C     6.0000    0    12.011  -17.492155   -6.710701  -39.351411
  57 O     8.0000    0    15.999  -16.735150   -5.345374  -37.370619
  58 C     6.0000    0    12.011  -19.333826  -11.162745  -39.894330
  59 O     8.0000    0    15.999  -19.585386  -11.220854  -42.152552
  60 H     1.0000    0     1.008   -2.023689    5.325494    5.298471
  61 H     1.0000    0     1.008   -2.399858    5.732541    9.902675
  62 H     1.0000    0     1.008   -5.747432    3.510582   12.226112
  63 H     1.0000    0     1.008   -8.820712    0.835164    9.986277
  64 H     1.0000    0     1.008   -6.734455   -0.906445   -1.623445
  65 H     1.0000    0     1.008   -8.588352   -5.167381    4.162632
  66 H     1.0000    0     1.008  -15.230418  -12.138221   -6.480986
  67 H     1.0000    0     1.008  -16.408813  -10.738312  -16.033778
  68 H     1.0000    0     1.008  -11.905010   -2.361553  -14.583489
  69 H     1.0000    0     1.008  -13.920743   -2.799932  -24.207959
  70 H     1.0000    0     1.008  -16.436989   -7.979501  -24.950640
  71 H     1.0000    0     1.008  -17.362501   -5.909854  -41.204817
  72 H     1.0000    0     1.008  -19.856581  -12.761944  -38.661983

--------------------------------
INTERNAL COORDINATES (ANGSTROEM)
--------------------------------
 C      0   0   0     0.000000000000     0.00000000     0.00000000
 C      1   0   0     1.386677354939     0.00000000     0.00000000
 C      2   1   0     1.388303388457   121.12448262     0.00000000
 C      3   2   1     1.386557115232   120.96153658   359.69615101
 C      4   3   2     1.385531964770   118.46026069     0.33103867
 C      1   2   3     1.386520031914   118.61219594   359.92081915
 C      6   1   2     1.456309711875   130.79889682   181.06034694
 C      7   6   1     1.365924718936   126.49381171   352.03304396
 C      8   7   6     1.412839201537   123.90767644     0.00000000
 N      9   8   7     1.147086949669   176.56880884   180.62298823
 C      8   7   6     1.413269790415   125.38734584   182.07362771
 N     11   8   7     1.147272612329   175.81724108   177.86884556
 C      7   6   1     1.462658621449   106.45923199   172.01708802
 C      5   4   3     1.453031349490   130.87473991   181.45909037
 C     14   5   4     1.367850797931   126.48989520    20.09948146
 C     15  14   5     1.412585347652   123.91377111   164.11109273
 N     16  15  14     1.147387273635   175.12124337   241.07545543
 C     15  14   5     1.411768618330   123.56522305   349.87179088
 N     18  15  14     1.146782303011   177.71269615   198.36192813
 C     13   7   6     1.360556497210   125.43199063   199.90767262
 C     20  13   7     1.420446208344   126.35744187   160.86405109
 C     21  20  13     1.472806653740   127.82307558   329.23765262
 N     22  21  20     1.298039116283   114.23884285   183.95089039
 C     23  22  21     1.363934355678   105.87804656   359.05340849
 C     21  20  13     1.375516654352   128.70462208   155.00918957
 C     25  21  20     1.441128950025   143.20250022   354.04560171
 S     26  25  21     1.640918332063   126.90385590     3.72788078
 C     26  25  21     1.442449831571   103.89880872   182.81970659
 C     24  23  22     1.370661062736   141.92670639   181.10332861
 N     29  24  23     1.362426661806   141.48408978     0.71634154
 C     30  29  24     1.299618285690   105.81179135   180.92260317
 C     28  26  25     1.372607483952   144.76176426   180.97978429
 C     32  28  26     1.420897233863   131.36882362     1.05969462
 O     33  32  28     1.362470882368   120.03029377   358.13124092
 C     34  33  32     1.346419834710   104.84448514   178.80356012
 C     35  34  33     1.429977985600   107.36893237     0.05864650
 N     33  32  28     1.301728495271   125.30254211   176.99542487
 C     36  35  34     1.387360351819   122.07386883   180.61231279
 C     38  36  35     1.384109994184   114.62370590     0.10757869
 C     39  38  36     1.430240747602   122.13962282   359.63437117
 C     40  39  38     1.380743030618   124.06157668     0.32550343
 O     40  39  38     1.347836771868   107.30561756   179.82460803
 C     42  40  39     1.368115161125   104.91972804   359.72720500
 N     43  42  40     1.298647746658   114.46554812     0.27128104
 C     43  42  40     1.428602155955   118.56742933   180.90590892
 C     45  43  42     1.349119241765   121.35428888   177.41034761
 C     46  45  43     1.425739625633   125.56290695   181.10035439
 C     47  46  45     1.384273412372   130.16678591   357.94866765
 F     48  47  46     1.335873327079   123.84791677   359.19307197
 C     48  47  46     1.403208610400   113.74806579   179.24049510
 F     50  48  47     1.332209867889   123.40189945   180.09162127
 C     50  48  47     1.380152368581   113.06324460   359.91317794
 S     52  50  48     1.724375951497   110.87496215     0.22586585
 C     52  50  48     1.428169990827   128.19271359   180.79510651
 N     54  52  50     1.300546486251   125.88453932   178.79748869
 C     55  54  52     1.367243985139   105.32523309   180.42079076
 C     56  55  54     1.376411861181   107.93559401   359.96364521
 O     57  56  55     1.334608884355   108.35717876     0.02478562
 C     56  55  54     1.459060526126   122.48115689   179.80739730
 O     59  56  55     1.202784892198   124.60401168   180.19248020
 H      1   2   3     1.077528203900   120.08448640   180.34476833
 H      2   1   3     1.079129288686   119.24448529   179.76638693
 H      3   2   1     1.079047581944   119.67651646   179.58734117
 H      4   3   2     1.077975421890   120.36057382   179.56516947
 H     20  13   7     1.082888849559   118.75179259   344.54252682
 H     22  21  20     1.076596330897   125.33440629   359.96573938
 H     31  30  29     1.074822259957   121.91301556   179.90130635
 H     38  36  35     1.075103676907   122.63837923   179.78325919
 H     41  40  39     1.075914821629   123.67185391   179.70434000
 H     45  43  42     1.078772207929   115.69785787   358.17652436
 H     46  45  43     1.080772421604   118.26998988     0.39827639
 H     57  56  55     1.070623512071   132.56740234   179.98705118
 H     59  56  55     1.103609388054   112.73015184     0.34346692

---------------------------
INTERNAL COORDINATES (A.U.)
---------------------------
 C      0   0   0     0.000000000000     0.00000000     0.00000000
 C      1   0   0     2.620440436945     0.00000000     0.00000000
 C      2   1   0     2.623513194978   121.12448262     0.00000000
 C      3   2   1     2.620213216828   120.96153658   359.69615101
 C      4   3   2     2.618275963210   118.46026069     0.33103867
 C      1   2   3     2.620143139514   118.61219594   359.92081915
 C      6   1   2     2.752026521613   130.79889682   181.06034694
 C      7   6   1     2.581223638342   126.49381171   352.03304396
 C      8   7   6     2.669879162173   123.90767644     0.00000000
 N      9   8   7     2.167680186669   176.56880884   180.62298823
 C      8   7   6     2.670692857229   125.38734584   182.07362771
 N     11   8   7     2.168031038250   175.81724108   177.86884556
 C      7   6   1     2.764024221958   106.45923199   172.01708802
 C      5   4   3     2.745831314538   130.87473991   181.45909037
 C     14   5   4     2.584863400155   126.48989520    20.09948146
 C     15  14   5     2.669399447851   123.91377111   164.11109273
 N     16  15  14     2.168247716717   175.12124337   241.07545543
 C     15  14   5     2.667856053107   123.56522305   349.87179088
 N     18  15  14     2.167104487919   177.71269615   198.36192813
 C     13   7   6     2.571079169454   125.43199063   199.90767262
 C     20  13   7     2.684254321738   126.35744187   160.86405109
 C     21  20  13     2.783201223785   127.82307558   329.23765262
 N     22  21  20     2.452938440891   114.23884285   183.95089039
 C     23  22  21     2.577462396879   105.87804656   359.05340849
 C     21  20  13     2.599349769373   128.70462208   155.00918957
 C     25  21  20     2.723339039213   143.20250022   354.04560171
 S     26  25  21     3.100886255730   126.90385590     3.72788078
 C     26  25  21     2.725835143591   103.89880872   182.81970659
 C     24  23  22     2.590174031000   141.92670639   181.10332861
 N     29  24  23     2.574613268366   141.48408978     0.71634154
 C     30  29  24     2.455922638590   105.81179135   180.92260317
 C     28  26  25     2.593852234039   144.76176426   180.97978429
 C     32  28  26     2.685106636448   131.36882362     1.05969462
 O     33  32  28     2.574696833117   120.03029377   358.13124092
 C     34  33  32     2.544364748881   104.84448514   178.80356012
 C     35  34  33     2.702266770320   107.36893237     0.05864650
 N     33  32  28     2.459910356783   125.30254211   176.99542487
 C     36  35  34     2.621731113999   122.07386883   180.61231279
 C     38  36  35     2.615588828231   114.62370590     0.10757869
 C     39  38  36     2.702763318542   122.13962282   359.63437117
 C     40  39  38     2.609226189188   124.06157668     0.32550343
 O     40  39  38     2.547042372059   107.30561756   179.82460803
 C     42  40  39     2.585362974192   104.91972804   359.72720500
 N     43  42  40     2.454088585618   114.46554812     0.27128104
 C     43  42  40     2.699666829085   118.56742933   180.90590892
 C     45  43  42     2.549465888939   121.35428888   177.41034761
 C     46  45  43     2.694257430726   125.56290695   181.10035439
 C     47  46  45     2.615897643852   130.16678591   357.94866765
 F     48  47  46     2.524434737789   123.84791677   359.19307197
 C     48  47  46     2.651679982416   113.74806579   179.24049510
 F     50  48  47     2.517511803217   123.40189945   180.09162127
 C     50  48  47     2.608109999701   113.06324460   359.91317794
 S     52  50  48     3.258598300249   110.87496215     0.22586585
 C     52  50  48     2.698850155349   128.19271359   180.79510651
 N     54  52  50     2.457676683448   125.88453932   178.79748869
 C     55  54  52     2.583716690165   105.32523309   180.42079076
 C     56  55  54     2.601041465113   107.93559401   359.96364521
 O     57  56  55     2.522045287330   108.35717876     0.02478562
 C     56  55  54     2.757224807194   122.48115689   179.80739730
 O     59  56  55     2.272934044272   124.60401168   180.19248020
 H      1   2   3     2.036233206947   120.08448640   180.34476833
 H      2   1   3     2.039258818710   119.24448529   179.76638693
 H      3   2   1     2.039104415345   119.67651646   179.58734117
 H      4   3   2     2.037078326471   120.36057382   179.56516947
 H     20  13   7     2.046363359144   118.75179259   344.54252682
 H     22  21  20     2.034472222179   125.33440629   359.96573938
 H     31  30  29     2.031119713962   121.91301556   179.90130635
 H     38  36  35     2.031651514927   122.63837923   179.78325919
 H     41  40  39     2.033184356305   123.67185391   179.70434000
 H     45  43  42     2.038584033871   115.69785787   358.17652436
 H     46  45  43     2.042363889927   118.26998988     0.39827639
 H     57  56  55     2.023185230352   132.56740234   179.98705118
 H     59  56  55     2.085519502246   112.73015184     0.34346692

---------------------
BASIS SET INFORMATION
---------------------
There are 6 groups of distinct atoms

 Group   1 Type C   : 7s4p1d contracted to 3s2p1d pattern {511/31/1}
 Group   2 Type N   : 7s4p1d contracted to 3s2p1d pattern {511/31/1}
 Group   3 Type S   : 10s7p1d contracted to 4s3p1d pattern {5311/511/1}
 Group   4 Type O   : 7s4p1d contracted to 3s2p1d pattern {511/31/1}
 Group   5 Type F   : 7s4p1d contracted to 3s2p1d pattern {511/31/1}
 Group   6 Type H   : 4s1p contracted to 2s1p pattern {31/1}

Atom   0C    basis set group =>   1
Atom   1C    basis set group =>   1
Atom   2C    basis set group =>   1
Atom   3C    basis set group =>   1
Atom   4C    basis set group =>   1
Atom   5C    basis set group =>   1
Atom   6C    basis set group =>   1
Atom   7C    basis set group =>   1
Atom   8C    basis set group =>   1
Atom   9N    basis set group =>   2
Atom  10C    basis set group =>   1
Atom  11N    basis set group =>   2
Atom  12C    basis set group =>   1
Atom  13C    basis set group =>   1
Atom  14C    basis set group =>   1
Atom  15C    basis set group =>   1
Atom  16N    basis set group =>   2
Atom  17C    basis set group =>   1
Atom  18N    basis set group =>   2
Atom  19C    basis set group =>   1
Atom  20C    basis set group =>   1
Atom  21C    basis set group =>   1
Atom  22N    basis set group =>   2
Atom  23C    basis set group =>   1
Atom  24C    basis set group =>   1
Atom  25C    basis set group =>   1
Atom  26S    basis set group =>   3
Atom  27C    basis set group =>   1
Atom  28C    basis set group =>   1
Atom  29N    basis set group =>   2
Atom  30C    basis set group =>   1
Atom  31C    basis set group =>   1
Atom  32C    basis set group =>   1
Atom  33O    basis set group =>   4
Atom  34C    basis set group =>   1
Atom  35C    basis set group =>   1
Atom  36N    basis set group =>   2
Atom  37C    basis set group =>   1
Atom  38C    basis set group =>   1
Atom  39C    basis set group =>   1
Atom  40C    basis set group =>   1
Atom  41O    basis set group =>   4
Atom  42C    basis set group =>   1
Atom  43N    basis set group =>   2
Atom  44C    basis set group =>   1
Atom  45C    basis set group =>   1
Atom  46C    basis set group =>   1
Atom  47C    basis set group =>   1
Atom  48F    basis set group =>   5
Atom  49C    basis set group =>   1
Atom  50F    basis set group =>   5
Atom  51C    basis set group =>   1
Atom  52S    basis set group =>   3
Atom  53C    basis set group =>   1
Atom  54N    basis set group =>   2
Atom  55C    basis set group =>   1
Atom  56C    basis set group =>   1
Atom  57O    basis set group =>   4
Atom  58C    basis set group =>   1
Atom  59O    basis set group =>   4
Atom  60H    basis set group =>   6
Atom  61H    basis set group =>   6
Atom  62H    basis set group =>   6
Atom  63H    basis set group =>   6
Atom  64H    basis set group =>   6
Atom  65H    basis set group =>   6
Atom  66H    basis set group =>   6
Atom  67H    basis set group =>   6
Atom  68H    basis set group =>   6
Atom  69H    basis set group =>   6
Atom  70H    basis set group =>   6
Atom  71H    basis set group =>   6
Atom  72H    basis set group =>   6
---------------------------------
AUXILIARY/J BASIS SET INFORMATION
---------------------------------
There are 6 groups of distinct atoms

 Group   1 Type C   : 12s5p4d2f1g contracted to 6s4p3d1f1g pattern {711111/2111/211/2/1}
 Group   2 Type N   : 12s5p4d2f1g contracted to 6s4p3d1f1g pattern {711111/2111/211/2/1}
 Group   3 Type S   : 14s5p5d2f1g contracted to 8s4p3d1f1g pattern {71111111/2111/311/2/1}
 Group   4 Type O   : 12s5p4d2f1g contracted to 6s4p3d1f1g pattern {711111/2111/211/2/1}
 Group   5 Type F   : 12s5p4d2f1g contracted to 6s4p3d1f1g pattern {711111/2111/211/2/1}
 Group   6 Type H   : 5s2p1d contracted to 3s1p1d pattern {311/2/1}

Atom   0C    basis set group =>   1
Atom   1C    basis set group =>   1
Atom   2C    basis set group =>   1
Atom   3C    basis set group =>   1
Atom   4C    basis set group =>   1
Atom   5C    basis set group =>   1
Atom   6C    basis set group =>   1
Atom   7C    basis set group =>   1
Atom   8C    basis set group =>   1
Atom   9N    basis set group =>   2
Atom  10C    basis set group =>   1
Atom  11N    basis set group =>   2
Atom  12C    basis set group =>   1
Atom  13C    basis set group =>   1
Atom  14C    basis set group =>   1
Atom  15C    basis set group =>   1
Atom  16N    basis set group =>   2
Atom  17C    basis set group =>   1
Atom  18N    basis set group =>   2
Atom  19C    basis set group =>   1
Atom  20C    basis set group =>   1
Atom  21C    basis set group =>   1
Atom  22N    basis set group =>   2
Atom  23C    basis set group =>   1
Atom  24C    basis set group =>   1
Atom  25C    basis set group =>   1
Atom  26S    basis set group =>   3
Atom  27C    basis set group =>   1
Atom  28C    basis set group =>   1
Atom  29N    basis set group =>   2
Atom  30C    basis set group =>   1
Atom  31C    basis set group =>   1
Atom  32C    basis set group =>   1
Atom  33O    basis set group =>   4
Atom  34C    basis set group =>   1
Atom  35C    basis set group =>   1
Atom  36N    basis set group =>   2
Atom  37C    basis set group =>   1
Atom  38C    basis set group =>   1
Atom  39C    basis set group =>   1
Atom  40C    basis set group =>   1
Atom  41O    basis set group =>   4
Atom  42C    basis set group =>   1
Atom  43N    basis set group =>   2
Atom  44C    basis set group =>   1
Atom  45C    basis set group =>   1
Atom  46C    basis set group =>   1
Atom  47C    basis set group =>   1
Atom  48F    basis set group =>   5
Atom  49C    basis set group =>   1
Atom  50F    basis set group =>   5
Atom  51C    basis set group =>   1
Atom  52S    basis set group =>   3
Atom  53C    basis set group =>   1
Atom  54N    basis set group =>   2
Atom  55C    basis set group =>   1
Atom  56C    basis set group =>   1
Atom  57O    basis set group =>   4
Atom  58C    basis set group =>   1
Atom  59O    basis set group =>   4
Atom  60H    basis set group =>   6
Atom  61H    basis set group =>   6
Atom  62H    basis set group =>   6
Atom  63H    basis set group =>   6
Atom  64H    basis set group =>   6
Atom  65H    basis set group =>   6
Atom  66H    basis set group =>   6
Atom  67H    basis set group =>   6
Atom  68H    basis set group =>   6
Atom  69H    basis set group =>   6
Atom  70H    basis set group =>   6
Atom  71H    basis set group =>   6
Atom  72H    basis set group =>   6


           ************************************************************
           *        Program running with 6 parallel MPI-processes     *
           *              working on a common directory               *
           ************************************************************
------------------------------------------------------------------------------
                           ORCA GTO INTEGRAL CALCULATION
                           -- RI-GTO INTEGRALS CHOSEN --
------------------------------------------------------------------------------

                         BASIS SET STATISTICS AND STARTUP INFO

Gaussian basis set:
 # of primitive gaussian shells          ...  797
 # of primitive gaussian functions       ... 1555
 # of contracted shells                  ...  403
 # of contracted basis functions         ...  913
 Highest angular momentum                ...    2
 Maximum contraction depth               ...    5
Auxiliary gaussian basis set:
 # of primitive gaussian shells          ... 1550
 # of primitive gaussian functions       ... 4422
 # of contracted shells                  ...  969
 # of contracted aux-basis functions     ... 3087
 Highest angular momentum                ...    4
 Maximum contraction depth               ...    7
Ratio of auxiliary to basis functions    ...  3.38
Integral package used                  ... LIBINT
 One Electron integrals                  ... done
 Ordering auxiliary basis shells         ... done
 Integral threshhold             Thresh  ...  2.500e-11
 Primitive cut-off               TCut    ...  2.500e-12
 Pre-screening matrix                    ... done
 Shell pair data                         ... 
 Ordering of the shell pairs             ... done (   0.005 sec) 28292 of 81406 pairs
 Determination of significant pairs      ... done (   0.000 sec)
 Creation of shell pair data             ... done (   0.004 sec)
 Storage of shell pair data              ... done (   0.007 sec)
 Shell pair data done in (   0.016 sec)
 Computing two index integrals           ... done
 Cholesky decomposition of the V-matrix  ... done


Timings:
 Total evaluation time                   ...   1.362 sec (  0.023 min)
 One electron matrix time                ...   0.284 sec (  0.005 min) = 20.9%
 Schwartz matrix evaluation time         ...   0.427 sec (  0.007 min) = 31.4%
 Two index repulsion integral time       ...   0.208 sec (  0.003 min) = 15.3%
 Cholesky decomposition of V             ...   0.410 sec (  0.007 min) = 30.1%
 Three index repulsion integral time     ...   0.000 sec (  0.000 min) =  0.0%



           ************************************************************
           *        Program running with 6 parallel MPI-processes     *
           *              working on a common directory               *
           ************************************************************
-------------------------------------------------------------------------------
                                 ORCA SCF
-------------------------------------------------------------------------------

------------
SCF SETTINGS
------------
Hamiltonian:
 Density Functional     Method          .... DFT(GTOs)
 Exchange Functional    Exchange        .... WB88
 Correlation Functional Correlation     .... LYP
 LDA part of GGA corr.  LDAOpt          .... VWN-5
 Gradients option       PostSCFGGA      .... off
 Hybrid DFT is turned on
   Fraction HF Exchange ScalHFX         ....  0.190000
   Scaling of DF-GGA-X  ScalDFX         ....  0.350000
   Scaling of DF-GGA-C  ScalDFC         ....  0.810000
   Scaling of DF-LDA-C  ScalLDAC        ....  1.000000
   Perturbative correction              ....  0.000000
   Density functional embedding theory  .... OFF
 Long-range corrected/Screened/Range-Separated Hybrid DFT is turned on
   Amount of maximum screened exact exchange              ....  0.460000
   Range separation parameter mu (erf(mu*r12)/r12)        ....  0.330000
 RI-approximation to the Coulomb term is turned on
   Number of auxiliary basis functions  .... 3087
   RIJ-COSX (HFX calculated with COS-X)).... on


General Settings:
 Integral files         IntName         .... xtbopt
 Hartree-Fock type      HFTyp           .... RHF
 Total Charge           Charge          ....    0
 Multiplicity           Mult            ....    1
 Number of Electrons    NEL             ....  416
 Basis Dimension        Dim             ....  913
 Nuclear Repulsion      ENuc            ....   7098.3873391122 Eh

Convergence Acceleration:
 DIIS                   CNVDIIS         .... on
   Start iteration      DIISMaxIt       ....    12
   Startup error        DIISStart       ....  0.200000
   # of expansion vecs  DIISMaxEq       ....     5
   Bias factor          DIISBfac        ....   1.050
   Max. coefficient     DIISMaxC        ....  10.000
 Newton-Raphson         CNVNR           .... off
 SOSCF                  CNVSOSCF        .... on
   Start iteration      SOSCFMaxIt      ....   150
   Startup grad/error   SOSCFStart      ....  0.003300
 Level Shifting         CNVShift        .... on
   Level shift para.    LevelShift      ....    0.2500
   Turn off err/grad.   ShiftErr        ....    0.0010
 Zerner damping         CNVZerner       .... off
 Static damping         CNVDamp         .... on
   Fraction old density DampFac         ....    0.7000
   Max. Damping (<1)    DampMax         ....    0.9800
   Min. Damping (>=0)   DampMin         ....    0.0000
   Turn off err/grad.   DampErr         ....    0.1000
 Fernandez-Rico         CNVRico         .... off

SCF Procedure:
 Maximum # iterations   MaxIter         ....   125
 SCF integral mode      SCFMode         .... Direct
   Integral package                     .... LIBINT
 Reset frequency        DirectResetFreq ....    20
 Integral Threshold     Thresh          ....  2.500e-11 Eh
 Primitive CutOff       TCut            ....  2.500e-12 Eh

Convergence Tolerance:
 Convergence Check Mode ConvCheckMode   .... Total+1el-Energy
 Convergence forced     ConvForced      .... 1
 Energy Change          TolE            ....  1.000e-08 Eh
 1-El. energy change                    ....  1.000e-05 Eh
 Orbital Gradient       TolG            ....  1.000e-05
 Orbital Rotation angle TolX            ....  1.000e-05
 DIIS Error             TolErr          ....  5.000e-07


Diagonalization of the overlap matrix:
Smallest eigenvalue                        ... 1.190e-04
Time for diagonalization                   ...    0.128 sec
Threshold for overlap eigenvalues          ... 1.000e-08
Number of eigenvalues below threshold      ... 0
Time for construction of square roots      ...    0.092 sec
Total time needed                          ...    0.222 sec

-------------------
DFT GRID GENERATION
-------------------

General Integration Accuracy     IntAcc      ...  4.670
Radial Grid Type                 RadialGrid  ... Gauss-Chebyshev
Angular Grid (max. acc.)         AngularGrid ... Lebedev-302
Angular grid pruning method      GridPruning ... 3 (G Style)
Weight generation scheme         WeightScheme... Becke
Basis function cutoff            BFCut       ...    1.0000e-11
Integration weight cutoff        WCut        ...    1.0000e-14
Grids for H and He will be reduced by one unit

# of grid points (after initial pruning)     ... 418230 (   0.0 sec)
# of grid points (after weights+screening)   ... 365489 (   2.6 sec)
nearest neighbour list constructed           ...    0.0 sec
Grid point re-assignment to atoms done       ...    0.1 sec
Grid point division into batches done        ...    1.4 sec
Reduced shell lists constructed in    2.0 sec

Total number of grid points                  ...   365489
Total number of batches                      ...     5751
Average number of points per batch           ...       63
Average number of grid points per atom       ...     5007
Average number of shells per batch           ...    86.23 (21.40%)
Average number of basis functions per batch  ...   185.05 (20.27%)
Average number of large shells per batch     ...    55.24 (64.06%)
Average number of large basis fcns per batch ...   119.54 (64.60%)
Maximum spatial batch extension              ...  18.78, 30.34, 16.23 au
Average spatial batch extension              ...   0.35,  0.36,  0.32 au

Time for grid setup =    4.817 sec

------------------------------
INITIAL GUESS: MODEL POTENTIAL
------------------------------
Loading Hartree-Fock densities                     ... done
Calculating cut-offs                               ... done
Setting up the integral package                    ... done
Initializing the effective Hamiltonian             ... done
Starting the Coulomb interaction                   ... done (   0.6 sec)
Reading the grid                                   ... done
Mapping shells                                     ... done
Starting the XC term evaluation                    ... done (   0.8 sec)
  promolecular density results
     # of electrons  =    415.992455882
     EX              =   -385.141627739
     EC              =    -14.346898109
     EX+EC           =   -399.488525848
Transforming the Hamiltonian                       ... done (   0.1 sec)
Diagonalizing the Hamiltonian                      ... done (   0.1 sec)
Back transforming the eigenvectors                 ... done (   0.0 sec)
Now organizing SCF variables                       ... done
                      ------------------
                      INITIAL GUESS DONE (   6.6 sec)
                      ------------------
--------------------
COSX GRID GENERATION
--------------------

General Integration Accuracy     IntAcc      ...  3.340
Radial Grid Type                 RadialGrid  ... Gauss-Chebyshev
Angular Grid (max. acc.)         AngularGrid ... Lebedev-50
Angular grid pruning method      GridPruning ... 3 (G Style)
Weight generation scheme         WeightScheme... Becke
Basis function cutoff            BFCut       ...    1.0000e-11
Integration weight cutoff        WCut        ...    1.0000e-14
Grids for H and He will be reduced by one unit

# of grid points (after initial pruning)     ...  39086 (   0.0 sec)
# of grid points (after weights+screening)   ...  35594 (   0.2 sec)
nearest neighbour list constructed           ...    0.0 sec
Grid point re-assignment to atoms done       ...    0.0 sec
Grid point division into batches done        ...    0.0 sec
Reduced shell lists constructed in    0.1 sec

Total number of grid points                  ...    35594
Total number of batches                      ...      595
Average number of points per batch           ...       59
Average number of grid points per atom       ...      488
Average number of shells per batch           ...   101.50 (25.18%)
Average number of basis functions per batch  ...   220.03 (24.10%)
Average number of large shells per batch     ...    65.30 (64.34%)
Average number of large basis fcns per batch ...   142.98 (64.98%)
Maximum spatial batch extension              ...  17.62, 20.66, 13.48 au
Average spatial batch extension              ...   0.83,  0.88,  0.56 au

Overlap Fitting                  UseSFitting ... on
Constructing numerical overlap ... done (      0.0 sec)
Inverting numerical overlap    ... done (      0.0 sec)
Obtaining analytic overlap     ... done (      0.0 sec)
Final contraction and storage  ... done (      0.0 sec)


General Integration Accuracy     IntAcc      ...  3.670
Radial Grid Type                 RadialGrid  ... Gauss-Chebyshev
Angular Grid (max. acc.)         AngularGrid ... Lebedev-50
Angular grid pruning method      GridPruning ... 3 (G Style)
Weight generation scheme         WeightScheme... Becke
Basis function cutoff            BFCut       ...    1.0000e-11
Integration weight cutoff        WCut        ...    1.0000e-14
Grids for H and He will be reduced by one unit

# of grid points (after initial pruning)     ...  48452 (   0.0 sec)
# of grid points (after weights+screening)   ...  43938 (   0.3 sec)
nearest neighbour list constructed           ...    0.0 sec
Grid point re-assignment to atoms done       ...    0.0 sec
Grid point division into batches done        ...    0.0 sec
Reduced shell lists constructed in    0.1 sec

Total number of grid points                  ...    43938
Total number of batches                      ...      725
Average number of points per batch           ...       60
Average number of grid points per atom       ...      602
Average number of shells per batch           ...   100.23 (24.87%)
Average number of basis functions per batch  ...   216.93 (23.76%)
Average number of large shells per batch     ...    63.92 (63.77%)
Average number of large basis fcns per batch ...   139.69 (64.39%)
Maximum spatial batch extension              ...  22.40, 20.08, 14.39 au
Average spatial batch extension              ...   0.74,  0.75,  0.53 au

Overlap Fitting                  UseSFitting ... on
Constructing numerical overlap ... done (      0.1 sec)
Inverting numerical overlap    ... done (      0.0 sec)
Obtaining analytic overlap     ... done (      0.0 sec)
Final contraction and storage  ... done (      0.0 sec)


General Integration Accuracy     IntAcc      ...  4.010
Radial Grid Type                 RadialGrid  ... Gauss-Chebyshev
Angular Grid (max. acc.)         AngularGrid ... Lebedev-110
Angular grid pruning method      GridPruning ... 3 (G Style)
Weight generation scheme         WeightScheme... Becke
Basis function cutoff            BFCut       ...    1.0000e-11
Integration weight cutoff        WCut        ...    1.0000e-14
Grids for H and He will be reduced by one unit

# of grid points (after initial pruning)     ...  96864 (   0.0 sec)
# of grid points (after weights+screening)   ...  86866 (   0.6 sec)
nearest neighbour list constructed           ...    0.0 sec
Grid point re-assignment to atoms done       ...    0.0 sec
Grid point division into batches done        ...    0.1 sec
Reduced shell lists constructed in    0.2 sec

Total number of grid points                  ...    86866
Total number of batches                      ...     1391
Average number of points per batch           ...       62
Average number of grid points per atom       ...     1190
Average number of shells per batch           ...    94.30 (23.40%)
Average number of basis functions per batch  ...   203.93 (22.34%)
Average number of large shells per batch     ...    60.69 (64.36%)
Average number of large basis fcns per batch ...   132.36 (64.91%)
Maximum spatial batch extension              ...  17.48, 17.12, 15.84 au
Average spatial batch extension              ...   0.61,  0.61,  0.46 au

Overlap Fitting                  UseSFitting ... on
Constructing numerical overlap ... done (      0.1 sec)
Inverting numerical overlap    ... done (      0.0 sec)
Obtaining analytic overlap     ... done (      0.0 sec)
Final contraction and storage  ... done (      0.0 sec)

Time for X-Grid setup             =    2.064 sec
--------------
SCF ITERATIONS
--------------
ITER       Energy         Delta-E        Max-DP      RMS-DP      [F,P]     Damp
               ***  Starting incremental Fock matrix formation  ***
  0  -3431.4648908407   0.000000000000 0.09469266  0.00106800  0.2437630 0.7000
  1  -3431.8998992178  -0.435008377045 0.06807986  0.00074339  0.1010936 0.7000
                               ***Turning on DIIS***
  2  -3432.0728976207  -0.172998402955 0.08529232  0.00137437  0.0351323 0.0000
  3  -3432.3826629723  -0.309765351520 0.05752831  0.00053318  0.0605357 0.0000
  4  -3432.4292933689  -0.046630396595 0.01617029  0.00016928  0.0262977 0.0000
  5  -3432.4348535514  -0.005560182587 0.00516095  0.00006091  0.0043698 0.0000
                      *** Initiating the SOSCF procedure ***
                           *** Shutting down DIIS ***
                      *** Re-Reading the Fockian *** 
                      *** Removing any level shift *** 
ITER      Energy       Delta-E        Grad      Rot      Max-DP    RMS-DP
  6  -3432.43557656  -0.0007230066  0.002552  0.002552  0.003727  0.000038
               *** Restarting incremental Fock matrix formation ***
  7  -3432.43588663  -0.0003100728  0.001940  0.014209  0.002080  0.000042
  8  -3432.43612299  -0.0002363560  0.000571  0.011891  0.003359  0.000045
  9  -3432.43613265  -0.0000096614  0.000806  0.003677  0.001613  0.000017
 10  -3432.43618169  -0.0000490395  0.000208  0.001635  0.000911  0.000010
 11  -3432.43618030   0.0000013859  0.000272  0.000699  0.000380  0.000005
 12  -3432.43618522  -0.0000049170  0.000056  0.000272  0.000343  0.000003
 13  -3432.43618515   0.0000000669  0.000042  0.000149  0.000199  0.000001
 14  -3432.43618551  -0.0000003595  0.000011  0.000069  0.000078  0.000000
 15  -3432.43618552  -0.0000000101  0.000008  0.000058  0.000034  0.000000
 16  -3432.43618553  -0.0000000085  0.000004  0.000041  0.000023  0.000000
                  ***Gradient check signals convergence***
              ***Rediagonalizing the Fockian in SOSCF/NRSCF***

               *****************************************************
               *                     SUCCESS                       *
               *           SCF CONVERGED AFTER  17 CYCLES          *
               *****************************************************

Setting up the final grid:

General Integration Accuracy     IntAcc      ...  5.010
Radial Grid Type                 RadialGrid  ... Gauss-Chebyshev
Angular Grid (max. acc.)         AngularGrid ... Lebedev-434
Angular grid pruning method      GridPruning ... 3 (G Style)
Weight generation scheme         WeightScheme... Becke
Basis function cutoff            BFCut       ...    1.0000e-11
Integration weight cutoff        WCut        ...    1.0000e-14
Grids for H and He will be reduced by one unit

# of grid points (after initial pruning)     ... 730804 (   0.0 sec)
# of grid points (after weights+screening)   ... 636634 (   4.5 sec)
nearest neighbour list constructed           ...    0.0 sec
Grid point re-assignment to atoms done       ...    0.1 sec
Grid point division into batches done        ...    4.4 sec
Reduced shell lists constructed in    5.6 sec

Total number of grid points                  ...   636634
Total number of batches                      ...     9991
Average number of points per batch           ...       63
Average number of grid points per atom       ...     8721
Average number of shells per batch           ...    84.24 (20.90%)
Average number of basis functions per batch  ...   180.44 (19.76%)
Average number of large shells per batch     ...    54.08 (64.21%)
Average number of large basis fcns per batch ...   116.87 (64.77%)
Maximum spatial batch extension              ...  21.46, 17.95, 20.35 au
Average spatial batch extension              ...   0.28,  0.29,  0.27 au

Final grid set up in   10.4 sec
Final integration                            ... done (   2.1 sec)
Change in XC energy                          ...    -0.000050310
Integrated number of electrons               ...   416.000007675
Previous integrated no of electrons          ...   415.999470610
Old exchange energy                            =   -106.780875685 Eh
New exchange energy                            =   -106.779359209 Eh
Exchange energy change after final integration =      0.001516476 Eh
Total energy after final integration           =  -3432.434719366 Eh
Final COS-X integration done in                =    33.834 sec

----------------
TOTAL SCF ENERGY
----------------

Total Energy       :        -3432.43471937 Eh          -93401.29714 eV

Components:
Nuclear Repulsion  :         7098.38733911 Eh          193156.93941 eV
Electronic Energy  :       -10530.82205848 Eh         -286558.23655 eV
One Electron Energy:       -18814.35712620 Eh         -511964.68519 eV
Two Electron Energy:         8283.53506773 Eh          225406.44864 eV

Virial components:
Potential Energy   :        -6840.39895585 Eh         -186136.71860 eV
Kinetic Energy     :         3407.96423649 Eh           92735.42145 eV
Virial Ratio       :            2.00718038


DFT components:
N(Alpha)           :      208.000003837270 electrons
N(Beta)            :      208.000003837270 electrons
N(Total)           :      416.000007674540 electrons
E(XC)              :     -298.805081017851 Eh       
DFET-embed. en.    :        0.000000000000 Eh       

---------------
SCF CONVERGENCE
---------------

  Last Energy change         ...   -1.9782e-09  Tolerance :   1.0000e-08
  Last MAX-Density change    ...    9.3259e-15  Tolerance :   1.0000e-07
  Last RMS-Density change    ...    4.0141e-17  Tolerance :   5.0000e-09
  Last Orbital Gradient      ...    2.4302e-06  Tolerance :   1.0000e-05
  Last Orbital Rotation      ...    1.2824e-05  Tolerance :   1.0000e-05

             **** THE GBW FILE WAS UPDATED (xtbopt.gbw) ****
             **** DENSITY FILE WAS UPDATED (xtbopt.scfp) ****
             **** ENERGY FILE WAS UPDATED (xtbopt.en.tmp) ****
             **** THE GBW FILE WAS UPDATED (xtbopt.gbw) ****
             **** DENSITY FILE WAS UPDATED (xtbopt.scfp) ****
----------------
ORBITAL ENERGIES
----------------

  NO   OCC          E(Eh)            E(eV) 
   0   2.0000     -88.989091     -2421.5163 
   1   2.0000     -88.915756     -2419.5207 
   2   2.0000     -24.813767      -675.2169 
   3   2.0000     -24.811340      -675.1509 
   4   2.0000     -19.327956      -525.9404 
   5   2.0000     -19.306312      -525.3515 
   6   2.0000     -19.304314      -525.2971 
   7   2.0000     -19.217464      -522.9338 
   8   2.0000     -14.433635      -392.7592 
   9   2.0000     -14.432244      -392.7213 
  10   2.0000     -14.431209      -392.6932 
  11   2.0000     -14.431002      -392.6875 
  12   2.0000     -14.430326      -392.6691 
  13   2.0000     -14.428192      -392.6111 
  14   2.0000     -14.427961      -392.6048 
  15   2.0000     -14.423006      -392.4699 
  16   2.0000     -14.411954      -392.1692 
  17   2.0000     -10.391012      -282.7538 
  18   2.0000     -10.390055      -282.7278 
  19   2.0000     -10.385190      -282.5954 
  20   2.0000     -10.384854      -282.5862 
  21   2.0000     -10.376652      -282.3631 
  22   2.0000     -10.367835      -282.1231 
  23   2.0000     -10.364741      -282.0389 
  24   2.0000     -10.362519      -281.9785 
  25   2.0000     -10.360872      -281.9336 
  26   2.0000     -10.359980      -281.9094 
  27   2.0000     -10.357243      -281.8349 
  28   2.0000     -10.354828      -281.7692 
  29   2.0000     -10.351474      -281.6779 
  30   2.0000     -10.349918      -281.6356 
  31   2.0000     -10.349363      -281.6205 
  32   2.0000     -10.349171      -281.6153 
  33   2.0000     -10.349063      -281.6123 
  34   2.0000     -10.346213      -281.5348 
  35   2.0000     -10.337803      -281.3059 
  36   2.0000     -10.336646      -281.2744 
  37   2.0000     -10.335647      -281.2473 
  38   2.0000     -10.334788      -281.2239 
  39   2.0000     -10.333448      -281.1874 
  40   2.0000     -10.332903      -281.1726 
  41   2.0000     -10.332835      -281.1707 
  42   2.0000     -10.331431      -281.1325 
  43   2.0000     -10.325366      -280.9675 
  44   2.0000     -10.325056      -280.9591 
  45   2.0000     -10.323406      -280.9142 
  46   2.0000     -10.323035      -280.9041 
  47   2.0000     -10.319338      -280.8035 
  48   2.0000     -10.316801      -280.7344 
  49   2.0000     -10.314231      -280.6645 
  50   2.0000     -10.314013      -280.6586 
  51   2.0000     -10.312786      -280.6252 
  52   2.0000     -10.312625      -280.6208 
  53   2.0000     -10.312474      -280.6167 
  54   2.0000     -10.311885      -280.6007 
  55   2.0000     -10.310695      -280.5683 
  56   2.0000     -10.310083      -280.5516 
  57   2.0000     -10.299916      -280.2750 
  58   2.0000     -10.298037      -280.2238 
  59   2.0000     -10.288175      -279.9555 
  60   2.0000      -8.084113      -219.9799 
  61   2.0000      -8.011248      -217.9971 
  62   2.0000      -6.053583      -164.7264 
  63   2.0000      -6.049634      -164.6189 
  64   2.0000      -6.045584      -164.5087 
  65   2.0000      -5.980552      -162.7391 
  66   2.0000      -5.979798      -162.7186 
  67   2.0000      -5.969946      -162.4505 
  68   2.0000      -1.332981       -36.2722 
  69   2.0000      -1.321293       -35.9542 
  70   2.0000      -1.258280       -34.2395 
  71   2.0000      -1.238780       -33.7089 
  72   2.0000      -1.233968       -33.5780 
  73   2.0000      -1.131415       -30.7874 
  74   2.0000      -1.099969       -29.9317 
  75   2.0000      -1.080765       -29.4091 
  76   2.0000      -1.048769       -28.5384 
  77   2.0000      -1.039546       -28.2875 
  78   2.0000      -1.033524       -28.1236 
  79   2.0000      -1.029065       -28.0023 
  80   2.0000      -1.025457       -27.9041 
  81   2.0000      -1.018614       -27.7179 
  82   2.0000      -1.018362       -27.7110 
  83   2.0000      -1.011110       -27.5137 
  84   2.0000      -1.008843       -27.4520 
  85   2.0000      -0.979750       -26.6603 
  86   2.0000      -0.972327       -26.4584 
  87   2.0000      -0.964354       -26.2414 
  88   2.0000      -0.953240       -25.9390 
  89   2.0000      -0.929504       -25.2931 
  90   2.0000      -0.928121       -25.2555 
  91   2.0000      -0.910694       -24.7813 
  92   2.0000      -0.906427       -24.6651 
  93   2.0000      -0.898254       -24.4427 
  94   2.0000      -0.877883       -23.8884 
  95   2.0000      -0.873165       -23.7600 
  96   2.0000      -0.862894       -23.4805 
  97   2.0000      -0.859261       -23.3817 
  98   2.0000      -0.855238       -23.2722 
  99   2.0000      -0.849672       -23.1207 
 100   2.0000      -0.825131       -22.4530 
 101   2.0000      -0.807934       -21.9850 
 102   2.0000      -0.803758       -21.8714 
 103   2.0000      -0.794994       -21.6329 
 104   2.0000      -0.783374       -21.3167 
 105   2.0000      -0.772192       -21.0124 
 106   2.0000      -0.753474       -20.5031 
 107   2.0000      -0.738790       -20.1035 
 108   2.0000      -0.732859       -19.9421 
 109   2.0000      -0.729311       -19.8456 
 110   2.0000      -0.727061       -19.7843 
 111   2.0000      -0.722223       -19.6527 
 112   2.0000      -0.714853       -19.4521 
 113   2.0000      -0.711867       -19.3709 
 114   2.0000      -0.707734       -19.2584 
 115   2.0000      -0.705026       -19.1847 
 116   2.0000      -0.695460       -18.9244 
 117   2.0000      -0.682527       -18.5725 
 118   2.0000      -0.679988       -18.5034 
 119   2.0000      -0.677941       -18.4477 
 120   2.0000      -0.664633       -18.0856 
 121   2.0000      -0.656388       -17.8612 
 122   2.0000      -0.654511       -17.8102 
 123   2.0000      -0.650839       -17.7102 
 124   2.0000      -0.648820       -17.6553 
 125   2.0000      -0.644037       -17.5251 
 126   2.0000      -0.619615       -16.8606 
 127   2.0000      -0.615383       -16.7454 
 128   2.0000      -0.606710       -16.5094 
 129   2.0000      -0.605566       -16.4783 
 130   2.0000      -0.600413       -16.3381 
 131   2.0000      -0.599103       -16.3024 
 132   2.0000      -0.592122       -16.1125 
 133   2.0000      -0.590725       -16.0745 
 134   2.0000      -0.587715       -15.9925 
 135   2.0000      -0.586195       -15.9512 
 136   2.0000      -0.579631       -15.7726 
 137   2.0000      -0.578128       -15.7317 
 138   2.0000      -0.576958       -15.6998 
 139   2.0000      -0.569927       -15.5085 
 140   2.0000      -0.568604       -15.4725 
 141   2.0000      -0.562054       -15.2943 
 142   2.0000      -0.560127       -15.2418 
 143   2.0000      -0.559256       -15.2181 
 144   2.0000      -0.555705       -15.1215 
 145   2.0000      -0.553725       -15.0676 
 146   2.0000      -0.549815       -14.9612 
 147   2.0000      -0.548055       -14.9133 
 148   2.0000      -0.546224       -14.8635 
 149   2.0000      -0.533904       -14.5283 
 150   2.0000      -0.531806       -14.4712 
 151   2.0000      -0.526686       -14.3319 
 152   2.0000      -0.521043       -14.1783 
 153   2.0000      -0.516805       -14.0630 
 154   2.0000      -0.516375       -14.0513 
 155   2.0000      -0.507632       -13.8134 
 156   2.0000      -0.505836       -13.7645 
 157   2.0000      -0.503931       -13.7127 
 158   2.0000      -0.503241       -13.6939 
 159   2.0000      -0.501367       -13.6429 
 160   2.0000      -0.494041       -13.4435 
 161   2.0000      -0.490923       -13.3587 
 162   2.0000      -0.488744       -13.2994 
 163   2.0000      -0.486995       -13.2518 
 164   2.0000      -0.486219       -13.2307 
 165   2.0000      -0.485063       -13.1992 
 166   2.0000      -0.475999       -12.9526 
 167   2.0000      -0.470300       -12.7975 
 168   2.0000      -0.469763       -12.7829 
 169   2.0000      -0.464926       -12.6513 
 170   2.0000      -0.461948       -12.5702 
 171   2.0000      -0.459249       -12.4968 
 172   2.0000      -0.456930       -12.4337 
 173   2.0000      -0.456048       -12.4097 
 174   2.0000      -0.454103       -12.3568 
 175   2.0000      -0.451579       -12.2881 
 176   2.0000      -0.450880       -12.2691 
 177   2.0000      -0.444484       -12.0950 
 178   2.0000      -0.443816       -12.0768 
 179   2.0000      -0.441837       -12.0230 
 180   2.0000      -0.441220       -12.0062 
 181   2.0000      -0.440047       -11.9743 
 182   2.0000      -0.438513       -11.9325 
 183   2.0000      -0.435437       -11.8488 
 184   2.0000      -0.426942       -11.6177 
 185   2.0000      -0.426545       -11.6069 
 186   2.0000      -0.422652       -11.5009 
 187   2.0000      -0.421135       -11.4597 
 188   2.0000      -0.399351       -10.8669 
 189   2.0000      -0.397643       -10.8204 
 190   2.0000      -0.392071       -10.6688 
 191   2.0000      -0.388270       -10.5654 
 192   2.0000      -0.381808       -10.3895 
 193   2.0000      -0.372765       -10.1434 
 194   2.0000      -0.368425       -10.0253 
 195   2.0000      -0.366750        -9.9798 
 196   2.0000      -0.365648        -9.9498 
 197   2.0000      -0.350003        -9.5241 
 198   2.0000      -0.345850        -9.4111 
 199   2.0000      -0.338569        -9.2129 
 200   2.0000      -0.337943        -9.1959 
 201   2.0000      -0.336364        -9.1529 
 202   2.0000      -0.325784        -8.8650 
 203   2.0000      -0.311071        -8.4647 
 204   2.0000      -0.308322        -8.3899 
 205   2.0000      -0.297290        -8.0897 
 206   2.0000      -0.293828        -7.9955 
 207   2.0000      -0.269707        -7.3391 
 208   0.0000      -0.132273        -3.5993 
 209   0.0000      -0.111008        -3.0207 
 210   0.0000      -0.098329        -2.6757 
 211   0.0000      -0.076529        -2.0825 
 212   0.0000      -0.070072        -1.9068 
 213   0.0000      -0.023582        -0.6417 
 214   0.0000      -0.013845        -0.3767 
 215   0.0000      -0.000290        -0.0079 
 216   0.0000       0.005932         0.1614 
 217   0.0000       0.024949         0.6789 
 218   0.0000       0.027766         0.7555 
 219   0.0000       0.028704         0.7811 
 220   0.0000       0.038587         1.0500 
 221   0.0000       0.048471         1.3190 
 222   0.0000       0.049721         1.3530 
 223   0.0000       0.057855         1.5743 
 224   0.0000       0.069041         1.8787 
 225   0.0000       0.080038         2.1779 
 226   0.0000       0.081951         2.2300 
 227   0.0000       0.084947         2.3115 
 228   0.0000       0.085825         2.3354 
 229   0.0000       0.090998         2.4762 
 230   0.0000       0.093459         2.5432 
 231   0.0000       0.103389         2.8134 
 232   0.0000       0.114793         3.1237 
 233   0.0000       0.116572         3.1721 
 234   0.0000       0.123267         3.3543 
 235   0.0000       0.123639         3.3644 
 236   0.0000       0.128981         3.5097 
 237   0.0000       0.136011         3.7010 
 238   0.0000       0.136439         3.7127 
 239   0.0000       0.136844         3.7237 
 240   0.0000       0.141641         3.8542 
 241   0.0000       0.142633         3.8812 
 242   0.0000       0.143697         3.9102 
 243   0.0000       0.144908         3.9431 
 244   0.0000       0.149684         4.0731 
 245   0.0000       0.151954         4.1349 
 246   0.0000       0.153925         4.1885 
 247   0.0000       0.154466         4.2032 
 248   0.0000       0.154697         4.2095 
 249   0.0000       0.162582         4.4241 
 250   0.0000       0.166029         4.5179 
 251   0.0000       0.168946         4.5973 
 252   0.0000       0.172448         4.6925 
 253   0.0000       0.174057         4.7363 
 254   0.0000       0.179875         4.8946 
 255   0.0000       0.186647         5.0789 
 256   0.0000       0.187019         5.0891 
 257   0.0000       0.191220         5.2034 
 258   0.0000       0.199684         5.4337 
 259   0.0000       0.201249         5.4763 
 260   0.0000       0.202610         5.5133 
 261   0.0000       0.210954         5.7403 
 262   0.0000       0.215766         5.8713 
 263   0.0000       0.217214         5.9107 
 264   0.0000       0.218581         5.9479 
 265   0.0000       0.228596         6.2204 
 266   0.0000       0.233191         6.3454 
 267   0.0000       0.234788         6.3889 
 268   0.0000       0.242872         6.6089 
 269   0.0000       0.249697         6.7946 
 270   0.0000       0.253577         6.9002 
 271   0.0000       0.257755         7.0139 
 272   0.0000       0.262122         7.1327 
 273   0.0000       0.265735         7.2310 
 274   0.0000       0.268971         7.3191 
 275   0.0000       0.272342         7.4108 
 276   0.0000       0.272814         7.4237 
 277   0.0000       0.282221         7.6796 
 278   0.0000       0.283842         7.7237 
 279   0.0000       0.286726         7.8022 
 280   0.0000       0.289660         7.8821 
 281   0.0000       0.292168         7.9503 
 282   0.0000       0.298837         8.1318 
 283   0.0000       0.304464         8.2849 
 284   0.0000       0.306469         8.3395 
 285   0.0000       0.308879         8.4050 
 286   0.0000       0.310415         8.4468 
 287   0.0000       0.317517         8.6401 
 288   0.0000       0.318088         8.6556 
 289   0.0000       0.323338         8.7985 
 290   0.0000       0.324491         8.8299 
 291   0.0000       0.326184         8.8759 
 292   0.0000       0.327615         8.9149 
 293   0.0000       0.334750         9.1090 
 294   0.0000       0.336505         9.1568 
 295   0.0000       0.340735         9.2719 
 296   0.0000       0.342716         9.3258 
 297   0.0000       0.347599         9.4586 
 298   0.0000       0.348390         9.4802 
 299   0.0000       0.353371         9.6157 
 300   0.0000       0.353850         9.6287 
 301   0.0000       0.356849         9.7103 
 302   0.0000       0.365241         9.9387 
 303   0.0000       0.368214        10.0196 
 304   0.0000       0.371832        10.1181 
 305   0.0000       0.379448        10.3253 
 306   0.0000       0.382670        10.4130 
 307   0.0000       0.387674        10.5491 
 308   0.0000       0.392690        10.6856 
 309   0.0000       0.395199        10.7539 
 310   0.0000       0.397492        10.8163 
 311   0.0000       0.405282        11.0283 
 312   0.0000       0.410330        11.1656 
 313   0.0000       0.414854        11.2888 
 314   0.0000       0.415648        11.3104 
 315   0.0000       0.420010        11.4291 
 316   0.0000       0.428135        11.6502 
 317   0.0000       0.431847        11.7512 
 318   0.0000       0.434648        11.8274 
 319   0.0000       0.439358        11.9555 
 320   0.0000       0.442297        12.0355 
 321   0.0000       0.447482        12.1766 
 322   0.0000       0.448715        12.2101 
 323   0.0000       0.454785        12.3753 
 324   0.0000       0.459831        12.5126 
 325   0.0000       0.463752        12.6193 
 326   0.0000       0.466663        12.6985 
 327   0.0000       0.471274        12.8240 
 328   0.0000       0.472941        12.8694 
 329   0.0000       0.477123        12.9832 
 330   0.0000       0.480147        13.0655 
 331   0.0000       0.481076        13.0908 
 332   0.0000       0.483282        13.1508 
 333   0.0000       0.486401        13.2356 
 334   0.0000       0.488920        13.3042 
 335   0.0000       0.490535        13.3481 
 336   0.0000       0.491425        13.3724 
 337   0.0000       0.498346        13.5607 
 338   0.0000       0.502395        13.6709 
 339   0.0000       0.502646        13.6777 
 340   0.0000       0.506507        13.7828 
 341   0.0000       0.510299        13.8859 
 342   0.0000       0.514032        13.9875 
 343   0.0000       0.514894        14.0110 
 344   0.0000       0.517703        14.0874 
 345   0.0000       0.522423        14.2158 
 346   0.0000       0.524832        14.2814 
 347   0.0000       0.525973        14.3125 
 348   0.0000       0.528476        14.3806 
 349   0.0000       0.536368        14.5953 
 350   0.0000       0.539229        14.6732 
 351   0.0000       0.541277        14.7289 
 352   0.0000       0.542140        14.7524 
 353   0.0000       0.545438        14.8421 
 354   0.0000       0.547015        14.8850 
 355   0.0000       0.550778        14.9874 
 356   0.0000       0.554242        15.0817 
 357   0.0000       0.557339        15.1660 
 358   0.0000       0.558625        15.2010 
 359   0.0000       0.560583        15.2542 
 360   0.0000       0.563206        15.3256 
 361   0.0000       0.567139        15.4326 
 362   0.0000       0.568221        15.4621 
 363   0.0000       0.569212        15.4890 
 364   0.0000       0.570841        15.5334 
 365   0.0000       0.573777        15.6133 
 366   0.0000       0.578074        15.7302 
 367   0.0000       0.580052        15.7840 
 368   0.0000       0.581770        15.8308 
 369   0.0000       0.588948        16.0261 
 370   0.0000       0.589904        16.0521 
 371   0.0000       0.591903        16.1065 
 372   0.0000       0.597649        16.2629 
 373   0.0000       0.600238        16.3333 
 374   0.0000       0.603545        16.4233 
 375   0.0000       0.605615        16.4796 
 376   0.0000       0.608414        16.5558 
 377   0.0000       0.613431        16.6923 
 378   0.0000       0.619418        16.8552 
 379   0.0000       0.620688        16.8898 
 380   0.0000       0.626269        17.0417 
 381   0.0000       0.627326        17.0704 
 382   0.0000       0.630800        17.1649 
 383   0.0000       0.632779        17.2188 
 384   0.0000       0.636929        17.3317 
 385   0.0000       0.638655        17.3787 
 386   0.0000       0.642671        17.4880 
 387   0.0000       0.644015        17.5246 
 388   0.0000       0.649195        17.6655 
 389   0.0000       0.654895        17.8206 
 390   0.0000       0.658584        17.9210 
 391   0.0000       0.661758        18.0074 
 392   0.0000       0.665247        18.1023 
 393   0.0000       0.666581        18.1386 
 394   0.0000       0.669330        18.2134 
 395   0.0000       0.670200        18.2371 
 396   0.0000       0.671674        18.2772 
 397   0.0000       0.672429        18.2977 
 398   0.0000       0.677838        18.4449 
 399   0.0000       0.679556        18.4917 
 400   0.0000       0.681332        18.5400 
 401   0.0000       0.683761        18.6061 
 402   0.0000       0.685076        18.6419 
 403   0.0000       0.688361        18.7313 
 404   0.0000       0.692746        18.8506 
 405   0.0000       0.694455        18.8971 
 406   0.0000       0.700862        19.0714 
 407   0.0000       0.701320        19.0839 
 408   0.0000       0.704478        19.1698 
 409   0.0000       0.706321        19.2200 
 410   0.0000       0.707006        19.2386 
 411   0.0000       0.708802        19.2875 
 412   0.0000       0.711799        19.3690 
 413   0.0000       0.712311        19.3830 
 414   0.0000       0.714325        19.4378 
 415   0.0000       0.719420        19.5764 
 416   0.0000       0.722554        19.6617 
 417   0.0000       0.726766        19.7763 
 418   0.0000       0.727643        19.8002 
 419   0.0000       0.730595        19.8805 
 420   0.0000       0.731966        19.9178 
 421   0.0000       0.732347        19.9282 
 422   0.0000       0.733440        19.9579 
 423   0.0000       0.735704        20.0195 
 424   0.0000       0.737162        20.0592 
 425   0.0000       0.741372        20.1738 
 426   0.0000       0.741808        20.1856 
 427   0.0000       0.748729        20.3739 
 428   0.0000       0.751829        20.4583 
 429   0.0000       0.757694        20.6179 
 430   0.0000       0.758118        20.6294 
 431   0.0000       0.758849        20.6493 
 432   0.0000       0.764615        20.8062 
 433   0.0000       0.766326        20.8528 
 434   0.0000       0.767430        20.8828 
 435   0.0000       0.770319        20.9614 
 436   0.0000       0.772762        21.0279 
 437   0.0000       0.776126        21.1195 
 438   0.0000       0.777209        21.1489 
 439   0.0000       0.783956        21.3325 
 440   0.0000       0.785149        21.3650 
 441   0.0000       0.786529        21.4025 
 442   0.0000       0.792672        21.5697 
 443   0.0000       0.794655        21.6237 
 444   0.0000       0.797696        21.7064 
 445   0.0000       0.801091        21.7988 
 446   0.0000       0.805754        21.9257 
 447   0.0000       0.813657        22.1407 
 448   0.0000       0.815281        22.1849 
 449   0.0000       0.823200        22.4004 
 450   0.0000       0.827018        22.5043 
 451   0.0000       0.829757        22.5788 
 452   0.0000       0.832546        22.6547 
 453   0.0000       0.834865        22.7178 
 454   0.0000       0.836208        22.7544 
 455   0.0000       0.839468        22.8431 
 456   0.0000       0.842441        22.9240 
 457   0.0000       0.850603        23.1461 
 458   0.0000       0.851723        23.1766 
 459   0.0000       0.853302        23.2195 
 460   0.0000       0.858536        23.3619 
 461   0.0000       0.863575        23.4991 
 462   0.0000       0.869324        23.6555 
 463   0.0000       0.873612        23.7722 
 464   0.0000       0.874998        23.8099 
 465   0.0000       0.876496        23.8507 
 466   0.0000       0.882625        24.0174 
 467   0.0000       0.884758        24.0755 
 468   0.0000       0.892050        24.2739 
 469   0.0000       0.898950        24.4617 
 470   0.0000       0.903768        24.5928 
 471   0.0000       0.910117        24.7656 
 472   0.0000       0.911720        24.8092 
 473   0.0000       0.912481        24.8299 
 474   0.0000       0.917213        24.9586 
 475   0.0000       0.920218        25.0404 
 476   0.0000       0.922573        25.1045 
 477   0.0000       0.925161        25.1749 
 478   0.0000       0.933129        25.3917 
 479   0.0000       0.935883        25.4667 
 480   0.0000       0.940495        25.5922 
 481   0.0000       0.946401        25.7529 
 482   0.0000       0.948183        25.8014 
 483   0.0000       0.949120        25.8269 
 484   0.0000       0.951806        25.8999 
 485   0.0000       0.954828        25.9822 
 486   0.0000       0.959276        26.1032 
 487   0.0000       0.962522        26.1916 
 488   0.0000       0.971154        26.4264 
 489   0.0000       0.978198        26.6181 
 490   0.0000       0.980975        26.6937 
 491   0.0000       0.981291        26.7023 
 492   0.0000       0.987540        26.8723 
 493   0.0000       0.994740        27.0683 
 494   0.0000       0.996752        27.1230 
 495   0.0000       1.001968        27.2649 
[...]
   5   2.737     453.0   0.194761   0.216817  21.118488   3.563167     0.31 (  79->  81)    0.23 (  76->  80)    0.09 (  78->  81)
   6   2.845     435.8   0.578611   0.565445  74.668240  91.337441     0.48 (  74->  80)    0.16 (  78->  80)    0.10 (  76->  81)
   7   2.982     415.8   0.053621   0.057166  -94.523597  -87.940668     0.55 (  76->  81)    0.16 (  78->  81)    0.08 (  74->  80)
   8   3.114     398.1   0.036288   0.034791  53.258015  41.198823     0.48 (  66->  80)    0.29 (  67->  80)    0.05 (  68->  80)
   9   3.169     391.2   0.184316   0.170534  69.858253  66.641509     0.37 (  66->  80)    0.23 (  67->  80)    0.11 (  68->  80)
  10   3.244     382.2   0.027315   0.027885   4.543267   1.040103     0.48 (  78->  81)    0.13 (  75->  81)    0.11 (  79->  81)
  11   3.282     377.7   0.602124   0.583195  131.831010  154.304047     0.29 (  72->  80)    0.14 (  76->  82)    0.10 (  78->  82)
  12   3.350     370.1   0.226532   0.227166  -84.805462  -63.001950     0.24 (  76->  82)    0.16 (  72->  80)    0.14 (  78->  82)
  13   3.388     366.0   0.022085   0.020452   3.594219   4.747330     0.58 (  77->  82)    0.13 (  77->  83)    0.09 (  77->  81)
  14   3.454     359.0   0.813964   0.769552  -137.281547  -157.805287     0.52 (  79->  84)    0.23 (  79->  83)    0.07 (  72->  80)
  15   3.484     355.8   0.005437   0.005701  -12.263138  -9.625343     0.46 (  77->  83)    0.27 (  77->  82)    0.11 (  77->  84)
  16   3.544     349.8   0.118485   0.114276  -64.659016  -69.471872     0.47 (  75->  80)    0.07 (  72->  80)    0.06 (  69->  80)
  17   3.590     345.4   0.066326   0.063914   9.089682   7.604537     0.43 (  79->  82)    0.16 (  76->  82)    0.07 (  75->  80)
  18   3.616     342.9   0.027921   0.025377  -18.536072  -15.337043     0.38 (  74->  81)    0.19 (  79->  82)    0.06 (  72->  80)
  19   3.763     329.5   0.098149   0.096384  37.971054  35.594227     0.28 (  72->  81)    0.12 (  70->  80)    0.09 (  76->  83)
  20   3.802     326.1   0.026674   0.027525   5.814936   4.769247     0.45 (  70->  80)    0.06 (  72->  81)    0.05 (  70->  81)
  21   3.882     319.4   0.018550   0.015095  11.221628  14.300641     0.24 (  79->  83)    0.19 (  76->  83)    0.11 (  79->  84)
  22   3.979     311.6   0.062971   0.053858  -127.055665  -119.730275     0.19 (  68->  80)    0.13 (  69->  80)    0.11 (  74->  82)
  23   4.030     307.7   0.314080   0.286316  -1.484654   2.618582     0.27 (  74->  82)    0.15 (  76->  82)    0.10 (  72->  82)
  24   4.053     305.9   0.193182   0.169482  -14.172793  -15.287825     0.27 (  75->  81)    0.08 (  78->  81)    0.06 (  76->  83)
  25   4.117     301.1   0.045380   0.038060  78.854783  72.703267     0.43 (  67->  81)    0.10 (  66->  81)    0.06 (  72->  81)
  26   4.136     299.8   0.005024   0.004559   9.568892   9.952179     0.56 (  78->  82)    0.09 (  79->  82)    0.08 (  75->  81)
  27   4.209     294.5   0.009100   0.010547  -8.171154  -4.482124     0.56 (  78->  84)    0.20 (  78->  83)    0.03 (  76->  83)
  28   4.214     294.2   0.123409   0.115194  74.585260  73.553545     0.14 (  72->  81)    0.09 (  76->  83)    0.09 (  67->  81)
  29   4.262     290.9   0.000002   0.000033  -0.034541  -0.478865     0.88 (  71->  85)    0.09 (  71->  86)    0.01 (  71->  88)
  30   4.279     289.8   0.006043   0.005678  -18.164869  -15.963570     0.42 (  64->  80)    0.29 (  66->  81)    0.07 (  64->  81)
  31   4.294     288.8   0.235210   0.212878   1.712645   7.370888     0.21 (  70->  81)    0.17 (  66->  81)    0.17 (  70->  82)
  32   4.306     287.9   0.143190   0.128860   1.143784   5.866343     0.19 (  66->  81)    0.16 (  67->  81)    0.14 (  64->  80)
  33   4.391     282.3   0.029821   0.025218  -162.735549  -149.850523     0.44 (  72->  82)    0.19 (  74->  82)    0.07 (  72->  81)
  34   4.446     278.9   0.003352   0.005317   1.747745   1.570516     0.26 (  78->  83)    0.24 (  75->  84)    0.10 (  78->  84)
  35   4.486     276.4   0.146605   0.129755  10.136966  11.596388     0.34 (  70->  81)    0.30 (  70->  82)    0.05 (  70->  80)
  36   4.511     274.9   0.130082   0.106484  53.641757  43.683466     0.36 (  75->  84)    0.26 (  75->  83)    0.08 (  78->  84)
  37   4.621     268.3   0.000674   0.000312  -0.389069  -0.580716     0.93 (  73->  80)    0.02 (  63->  80)    0.01 (  73->  81)
  38   4.641     267.2   0.020745   0.017889  -7.152175  -6.758926     0.40 (  63->  80)    0.11 (  68->  81)    0.07 (  69->  81)
  39   4.761     260.4   0.000373   0.000314   0.791134   0.579568     0.66 (  77->  84)    0.21 (  77->  83)    0.08 (  77->  86)
  40   4.806     258.0   0.181916   0.157435  -18.186394  -22.083754     0.20 (  69->  81)    0.16 (  68->  81)    0.11 (  72->  83)
  41   4.821     257.2   0.000733   0.000653  -0.534228  -0.406981     0.84 (  75->  82)    0.04 (  69->  82)    0.03 (  79->  82)
  42   4.847     255.8   0.097084   0.070127  13.750733   5.272629     0.34 (  74->  83)    0.14 (  63->  80)    0.06 (  67->  82)
  43   4.893     253.4   0.061374   0.052017  -3.307084  -12.524704     0.21 (  67->  82)    0.14 (  79->  86)    0.11 (  79->  85)
  44   4.930     251.5   0.000002   0.000002  -0.011171  -0.012739     0.96 (  71->  80)    0.02 (  71->  84)    0.01 (  71->  81)
  45   4.965     249.7   0.178212   0.154226  17.278340  29.770734     0.25 (  79->  85)    0.11 (  74->  83)    0.11 (  67->  82)
  46   4.976     249.2   0.038113   0.033575   3.033535   0.213605     0.38 (  69->  80)    0.20 (  68->  80)    0.08 (  79->  86)

-----------------------------------------------------------------------------
         ABSORPTION SPECTRUM VIA TRANSITION ELECTRIC DIPOLE MOMENTS
-----------------------------------------------------------------------------
State   Energy  Wavelength   fosc         T2         TX        TY        TZ  
        (cm-1)    (nm)                  (au**2)     (au)      (au)      (au) 
-----------------------------------------------------------------------------
   0   14208.7    703.8   0.000378426   0.00877  -0.04438  -0.04609  -0.06837
   1   16198.4    617.3   0.297354118   6.04333   0.74328   0.62523   2.25831
   2   16312.9    613.0   0.000422497   0.00853  -0.00859  -0.05010  -0.07709
   3   19767.7    505.9   0.032313815   0.53816   0.23628   0.63555  -0.28001
   4   21025.1    475.6   0.309526416   4.84658   0.58295   0.35866   2.09239
   5   22076.4    453.0   0.194761404   2.90435  -0.24369   0.30495  -1.65891
   6   22945.7    435.8   0.578610526   8.30159  -0.90599  -1.31509  -2.39819
   7   24048.8    415.8   0.053621163   0.73404  -0.17712   0.70751   0.44955
   8   25119.8    398.1   0.036288259   0.47558  -0.37149  -0.11859  -0.56878
   9   25559.5    391.2   0.184316154   2.37403   0.58416   0.43335   1.35830
  10   26163.0    382.2   0.027315067   0.34371  -0.35655  -0.41813  -0.20431
  11   26474.7    377.7   0.602123747   7.48739   0.07231   0.34156   2.71395
  12   27022.0    370.1   0.226531979   2.75986   1.13179   0.85912   0.86072
  13   27324.3    366.0   0.022085318   0.26609   0.27524   0.31471   0.30214
  14   27855.5    359.0   0.813963585   9.61989   0.44274  -0.20939   3.06268
  15   28103.4    355.8   0.005436812   0.06369   0.14472  -0.01080   0.20646
  16   28584.9    349.8   0.118485062   1.36459   0.72895   0.89842   0.16147
  17   28955.8    345.4   0.066326410   0.75410  -0.34935  -0.05946   0.79279
  18   29165.4    342.9   0.027920514   0.31516  -0.26728  -0.20054  -0.45112
  19   30348.8    329.5   0.098148762   1.06468   0.48228   0.68908   0.59770
  20   30662.0    326.1   0.026673514   0.28639  -0.46332  -0.25828   0.07080
  21   31312.3    319.4   0.018550143   0.19503  -0.23015  -0.30281  -0.22443
  22   32091.5    311.6   0.062971172   0.64599  -0.13292   0.63641   0.47255
  23   32502.2    307.7   0.314080129   3.18129   1.34447   0.64850  -0.97629
  24   32685.7    305.9   0.193182177   1.94574  -0.98317  -0.82434   0.54735
  25   33209.2    301.1   0.045379665   0.44986  -0.40865  -0.13460   0.51454
  26   33356.4    299.8   0.005023633   0.04958  -0.18824  -0.09353   0.07348
  27   33951.9    294.5   0.009099733   0.08823  -0.02255  -0.09589   0.28023
  28   33987.3    294.2   0.123408810   1.19538  -0.12862  -0.19521   1.06805
  29   34377.1    290.9   0.000001827   0.00002   0.00125  -0.00394   0.00061
  30   34511.5    289.8   0.006043361   0.05765  -0.02573   0.12289   0.20466
  31   34629.6    288.8   0.235210435   2.23607  -0.79086  -0.57628  -1.13071
  32   34729.1    287.9   0.143190408   1.35736  -0.65925  -0.43472  -0.85661
  33   35417.1    282.3   0.029821450   0.27720   0.31680  -0.32083   0.27186
  34   35861.4    278.9   0.003351802   0.03077  -0.04069  -0.01925  -0.16954
  35   36184.5    276.4   0.146604588   1.33383   0.08434  -0.03767   1.15122
  36   36380.4    274.9   0.130082479   1.17714  -0.44544  -0.75520  -0.63905
  37   37271.3    268.3   0.000673612   0.00595  -0.02790  -0.05449  -0.04693
  38   37429.7    267.2   0.020745239   0.18246   0.08205   0.09712   0.40780
  39   38403.0    260.4   0.000373420   0.00320  -0.03433  -0.04497  -0.00016
  40   38766.7    258.0   0.181916248   1.54486   0.47351   0.43585   1.06333
  41   38884.9    257.2   0.000732648   0.00620   0.02467  -0.04428   0.06027
  42   39093.0    255.8   0.097084298   0.81757  -0.30321  -0.81950   0.23249
  43   39468.6    253.4   0.061373845   0.51193   0.37270   0.39297   0.46754
  44   39764.0    251.5   0.000001678   0.00001   0.00310   0.00039   0.00203
  45   40043.5    249.7   0.178211641   1.46514   0.50670   0.98431   0.48942
  46   40134.5    249.2   0.038112722   0.31263   0.00937  -0.25017   0.49995

-----------------------------------------------------------------------------
         ABSORPTION SPECTRUM VIA TRANSITION VELOCITY DIPOLE MOMENTS
-----------------------------------------------------------------------------
State   Energy  Wavelength   fosc         P2         PX        PY        PZ  
        (cm-1)    (nm)                  (au**2)     (au)      (au)      (au) 
-----------------------------------------------------------------------------
   0   14208.7    703.8   0.000146832   0.00001  -0.00047  -0.00125  -0.00353
   1   16198.4    617.3   0.352415178   0.03902   0.06035   0.05042   0.18119
   2   16312.9    613.0   0.000126513   0.00001  -0.00095  -0.00003  -0.00363
   3   19767.7    505.9   0.042920879   0.00580   0.02669   0.06744  -0.02321
   4   21025.1    475.6   0.314519753   0.04520   0.05769   0.03855   0.20095
   5   22076.4    453.0   0.216817103   0.03271  -0.02435   0.03714  -0.17533
   6   22945.7    435.8   0.565444519   0.08867  -0.09258  -0.13763  -0.24730
   7   24048.8    415.8   0.057166442   0.00940  -0.01454   0.08302   0.04788
   8   25119.8    398.1   0.034790589   0.00597  -0.04648  -0.01157  -0.06065
   9   25559.5    391.2   0.170533572   0.02979   0.06918   0.05051   0.14984
  10   26163.0    382.2   0.027885095   0.00499  -0.04371  -0.04761  -0.02846
  11   26474.7    377.7   0.583194644   0.10552   0.00726   0.04440   0.32171
  12   27022.0    370.1   0.227166451   0.04195   0.13969   0.11133   0.10023
  13   27324.3    366.0   0.020451813   0.00382   0.03318   0.03841   0.03526
  14   27855.5    359.0   0.769552164   0.14651   0.05345  -0.02916   0.37789
  15   28103.4    355.8   0.005701144   0.00110   0.01831   0.00151   0.02752
  16   28584.9    349.8   0.114276025   0.02233   0.09409   0.11358   0.02391
  17   28955.8    345.4   0.063913914   0.01265  -0.04680  -0.00862   0.10190
  18   29165.4    342.9   0.025376536   0.00506  -0.03395  -0.02656  -0.05657
  19   30348.8    329.5   0.096383828   0.01999   0.06555   0.09400   0.08282
  20   30662.0    326.1   0.027524672   0.00577  -0.06512  -0.03823   0.00809
  21   31312.3    319.4   0.015094808   0.00323  -0.02916  -0.04155  -0.02556
  22   32091.5    311.6   0.053857908   0.01181  -0.01837   0.08375   0.06679
  23   32502.2    307.7   0.286315734   0.06360   0.18902   0.09081  -0.14009
  24   32685.7    305.9   0.169481602   0.03786  -0.13788  -0.11460   0.07561
  25   33209.2    301.1   0.038059751   0.00864  -0.05707  -0.01831   0.07104
  26   33356.4    299.8   0.004558690   0.00104  -0.02631  -0.01449   0.01172
  27   33951.9    294.5   0.010546730   0.00245   0.00033  -0.01105   0.04822
  28   33987.3    294.2   0.115193835   0.02676  -0.02125  -0.02939   0.15951
  29   34377.1    290.9   0.000033020   0.00001   0.00223  -0.00166   0.00021
  30   34511.5    289.8   0.005678187   0.00134  -0.00493   0.01991   0.03031
  31   34629.6    288.8   0.212877876   0.05038  -0.12158  -0.08833  -0.16673
  32   34729.1    287.9   0.128859820   0.03059  -0.09853  -0.06743  -0.12779
  33   35417.1    282.3   0.025217855   0.00610   0.04684  -0.04786   0.04024
  34   35861.4    278.9   0.005317144   0.00130  -0.00934  -0.00444  -0.03459
  35   36184.5    276.4   0.129755276   0.03209   0.01332  -0.00488   0.17857
  36   36380.4    274.9   0.106483738   0.02648  -0.06667  -0.11156  -0.09791
  37   37271.3    268.3   0.000312312   0.00008  -0.00237  -0.00487  -0.00708
  38   37429.7    267.2   0.017888665   0.00458   0.01097   0.01534   0.06497
  39   38403.0    260.4   0.000313733   0.00008  -0.00577  -0.00694  -0.00093
  40   38766.7    258.0   0.157434996   0.04171   0.07456   0.06837   0.17742
  41   38884.9    257.2   0.000653090   0.00017   0.00462  -0.00691   0.01022
  42   39093.0    255.8   0.070126720   0.01874  -0.04724  -0.12482   0.03041
  43   39468.6    253.4   0.052017294   0.01403   0.05967   0.05697   0.08500
  44   39764.0    251.5   0.000002459   0.00000   0.00076  -0.00003   0.00031
  45   40043.5    249.7   0.154226478   0.04221   0.08711   0.16945   0.07687
  46   40134.5    249.2   0.033575006   0.00921   0.00048  -0.04523   0.08464

-------------------------------------------------------------------
                             CD SPECTRUM
-------------------------------------------------------------------
State   Energy Wavelength       R         MX        MY        MZ   
        (cm-1)   (nm)       (1e40*cgs)   (au)      (au)      (au)  
-------------------------------------------------------------------
   0   14208.7    703.8      1.67466   0.04122  -0.21445   0.22172
   1   16198.4    617.3     13.90841   1.10400  -1.93967   0.14752
   2   16312.9    613.0     -0.32287  -0.17043  -0.60371   0.39356
   3   19767.7    505.9     -3.83280  -0.80465   0.66668   0.77613
   4   21025.1    475.6    -46.05869   1.64254  -2.45778   0.05705
   5   22076.4    453.0     21.11849  -0.79184   1.84640   0.50974
   6   22945.7    435.8     74.66824  -2.15539   2.98192  -0.68884
   7   24048.8    415.8    -94.52360  -0.56181   0.07828   0.54745
   8   25119.8    398.1     53.25802  -0.46267   0.84683   0.52285
   9   25559.5    391.2     69.85825   1.06530  -1.95171  -0.05366
  10   26163.0    382.2      4.54327   0.03252   0.18485  -0.34071
  11   26474.7    377.7    131.83101   1.02843  -2.89642   0.13106
  12   27022.0    370.1    -84.80546   0.79019  -1.34915   0.72557
  13   27324.3    366.0      3.59422  -0.03967  -0.40852   0.41118
  14   27855.5    359.0    -137.28155   1.45118  -4.46015  -0.32456
  15   28103.4    355.8    -12.26314   0.60136  -0.37822  -0.18933
  16   28584.9    349.8    -64.65902   0.87844  -0.51082   0.57529
  17   28955.8    345.4      9.08968  -0.06905  -0.58129  -0.12266
  18   29165.4    342.9    -18.53607  -0.63026   1.05387  -0.26939
  19   30348.8    329.5     37.97105   0.13824  -1.08680   0.87190
  20   30662.0    326.1      5.81494   0.05144  -0.07089  -0.27039
  21   31312.3    319.4     11.22163  -0.02718   0.46911  -0.39295
  22   32091.5    311.6    -127.05567  -0.93513   0.24591   0.54642
  23   32502.2    307.7     -1.48465   0.74906  -0.16734   0.91394
  24   32685.7    305.9    -14.17279  -0.72585   0.20018  -0.89247
  25   33209.2    301.1     78.85478   0.51993  -0.52649  -0.37493
  26   33356.4    299.8      9.56889  -0.01071   0.22791  -0.28979
  27   33951.9    294.5     -8.17115   0.39146  -0.85644  -0.13788
  28   33987.3    294.2     74.58526   0.66130  -1.20798  -0.43740
  29   34377.1    290.9     -0.03454   0.17575   0.14214   0.79394
  30   34511.5    289.8    -18.16487   0.11086  -0.37399   0.61503
  31   34629.6    288.8      1.71264  -0.23539   1.49750  -0.59215
  32   34729.1    287.9      1.14378  -0.14222   1.25782  -0.52322
  33   35417.1    282.3    -162.73555   1.37881  -1.23666  -0.52672
  34   35861.4    278.9      1.74774  -0.56893   0.33279   0.14248
  35   36184.5    276.4     10.13697   0.03417  -1.50178  -0.08900
  36   36380.4    274.9     53.64176   1.67351   0.36312  -1.23951
  37   37271.3    268.3     -0.38907   0.19832  -0.05841  -0.08525
  38   37429.7    267.2     -7.15218   0.00582  -0.50086   0.19252
  39   38403.0    260.4      0.79113   0.01348   0.06470  -0.10406
  40   38766.7    258.0    -18.18639   0.69797  -1.55528   0.39923
  41   38884.9    257.2     -0.53423   0.02971  -0.15279  -0.08681
  42   39093.0    255.8     13.75073   0.39069  -0.37508  -1.06350
  43   39468.6    253.4     -3.30708   1.31833  -1.22075   0.00515
  44   39764.0    251.5     -0.01117   0.01317   0.01362   0.00061
  45   40043.5    249.7     17.27834  -0.69575  -0.42360   1.42247
  46   40134.5    249.2      3.03354   0.68864  -0.96158  -0.51982

sTD-DFT done

Total run time:        1.914 sec

           *** ORCA-CIS/TD-DFT FINISHED WITHOUT ERROR ***

-------------------------   --------------------
FINAL SINGLE POINT ENERGY     -3432.434719365885
-------------------------   --------------------


                            ***************************************
                            *     ORCA property calculations      *
                            ***************************************

                                    ---------------------
                                    Active property flags
                                    ---------------------
   (+) Dipole Moment


------------------------------------------------------------------------------
                       ORCA ELECTRIC PROPERTIES CALCULATION
------------------------------------------------------------------------------

Dipole Moment Calculation                       ... on
Quadrupole Moment Calculation                   ... off
Polarizability Calculation                      ... off
GBWName                                         ... xtbopt.gbw
Electron density file                           ... xtbopt.scfp
The origin for moment calculation is the CENTER OF MASS  = (-12.075852, -3.844449 -12.102042)

-------------
DIPOLE MOMENT
-------------
                                X             Y             Z
Electronic contribution:     -6.87599       0.39572     -32.98588
Nuclear contribution   :      8.03668       0.11491      33.95298
                        -----------------------------------------
Total Dipole Moment    :      1.16070       0.51063       0.96710
                        -----------------------------------------
Magnitude (a.u.)       :      1.59476
Magnitude (Debye)      :      4.05355



--------------------
Rotational spectrum 
--------------------
 
Rotational constants in cm-1:     0.003674     0.000274     0.000259 
Rotational constants in MHz :   110.144143     8.222850     7.768820 

 Dipole components along the rotational axes: 
x,y,z [a.u.] :     1.286465     0.748024    -0.573340 
x,y,z [Debye]:     3.269935     1.901326    -1.457313 

 

Timings for individual modules:

Sum of individual times         ...      365.796 sec (=   6.097 min)
GTO integral calculation        ...        2.101 sec (=   0.035 min)   0.6 %
SCF iterations                  ...      361.042 sec (=   6.017 min)  98.7 %
CIS module                      ...        2.653 sec (=   0.044 min)   0.7 %
                             ****ORCA TERMINATED NORMALLY****
TOTAL RUN TIME: 0 days 0 hours 6 minutes 6 seconds 713 msec
