
                                 *****************
                                 * O   R   C   A *
                                 *****************

           --- An Ab Initio, DFT and Semiempirical electronic structure package ---

                  #######################################################
                  #                        -***-                        #
                  #          Department of theory and spectroscopy      #
                  #               Directorship: Frank Neese             #
                  #        Max Planck Institute fuer Kohlenforschung    #
                  #                Kaiser Wilhelm Platz 1               #
                  #                 D-45470 Muelheim/Ruhr               #
                  #                      Germany                        #
                  #                                                     #
                  #                  All rights reserved                #
                  #                        -***-                        #
                  #######################################################


                         Program Version 4.2.0 -  RELEASE  -


 With contributions from (in alphabetic order):
   Daniel Aravena         : Magnetic Suceptibility
   Michael Atanasov       : Ab Initio Ligand Field Theory (pilot matlab implementation)
   Alexander A. Auer      : GIAO ZORA, VPT2
   Ute Becker             : Parallelization
   Giovanni Bistoni       : ED, misc. LED, open-shell LED, HFLED
   Martin Brehm           : Molecular dynamics
   Dmytro Bykov           : SCF Hessian
   Vijay G. Chilkuri      : MRCI spin determinant printing, contributions to CSF-ICE
   Dipayan Datta          : RHF DLPNO-CCSD density
   Achintya Kumar Dutta   : EOM-CC, STEOM-CC
   Dmitry Ganyushin       : Spin-Orbit,Spin-Spin,Magnetic field MRCI
   Miquel Garcia          : C-PCM Hessian, Gaussian charge scheme
   Yang Guo               : DLPNO-NEVPT2, CIM, IAO-localization
   Andreas Hansen         : Spin unrestricted coupled pair/coupled cluster methods
   Benjamin Helmich-Paris : CASSCF linear response (MC-RPA)
   Lee Huntington         : MR-EOM, pCC
   Robert Izsak           : Overlap fitted RIJCOSX, COSX-SCS-MP3, EOM
   Christian Kollmar      : KDIIS, OOCD, Brueckner-CCSD(T), CCSD density
   Simone Kossmann        : Meta GGA functionals, TD-DFT gradient, OOMP2, MP2 Hessian
   Martin Krupicka        : AUTO-CI
   Lucas Lang             : DCDCAS
   Dagmar Lenk            : GEPOL surface, SMD
   Dimitrios Liakos       : Extrapolation schemes; Compound Job, initial MDCI parallelization
   Dimitrios Manganas     : Further ROCIS development; embedding schemes
   Dimitrios Pantazis     : SARC Basis sets
   Taras Petrenko         : DFT Hessian,TD-DFT gradient, ASA, ECA, R-Raman, ABS, FL, XAS/XES, NRVS
   Peter Pinski           : DLPNO-MP2, DLPNO-MP2 Gradient
   Christoph Reimann      : Effective Core Potentials
   Marius Retegan         : Local ZFS, SOC
   Christoph Riplinger    : Optimizer, TS searches, QM/MM, DLPNO-CCSD(T), (RO)-DLPNO pert. Triples
   Tobias Risthaus        : Range-separated hybrids, TD-DFT gradient, RPA, STAB
   Michael Roemelt        : Original ROCIS implementation
   Masaaki Saitow         : Open-shell DLPNO-CCSD energy and density
   Barbara Sandhoefer     : DKH picture change effects
   Avijit Sen             : IP-ROCIS
   Kantharuban Sivalingam : CASSCF convergence, NEVPT2, FIC-MRCI
   Bernardo de Souza      : ESD, SOC TD-DFT
   Georgi Stoychev        : AutoAux, RI-MP2 NMR
   Willem Van den Heuvel  : Paramagnetic NMR
   Boris Wezisla          : Elementary symmetry handling
   Frank Wennmohs         : Technical directorship


 We gratefully acknowledge several colleagues who have allowed us to
 interface, adapt or use parts of their codes:
   Stefan Grimme, W. Hujo, H. Kruse,             : VdW corrections, initial TS optimization,
                  C. Bannwarth                     DFT functionals, gCP, sTDA/sTD-DF
   Ed Valeev, F. Pavosevic, A. Kumar             : LibInt (2-el integral package), F12 methods
   Garnet Chan, S. Sharma, J. Yang, R. Olivares  : DMRG
   Ulf Ekstrom                                   : XCFun DFT Library
   Mihaly Kallay                                 : mrcc  (arbitrary order and MRCC methods)
   Andreas Klamt, Michael Diedenhofen            : otool_cosmo (COSMO solvation model)
   Jiri Pittner, Ondrej Demel                    : Mk-CCSD
   Frank Weinhold                                : gennbo (NPA and NBO analysis)
   Christopher J. Cramer and Donald G. Truhlar   : smd solvation model
   Lars Goerigk                                  : TD-DFT with DH, B97 family of functionals
   V. Asgeirsson, H. Jonsson                     : NEB implementation
   FAccTs GmbH                                   : IRC, NEB, NEB-TS, Multilevel, MM, QM/MM, CI optimization
   S Lehtola, MJT Oliveira, MAL Marques          : LibXC Library


 Your calculation uses the libint2 library for the computation of 2-el integrals
 For citations please refer to: http://libint.valeyev.net

 Your ORCA version has been built with support for libXC version: 4.2.3
 For citations please refer to: https://tddft.org/programs/libxc/

 This ORCA versions uses:
   CBLAS   interface :  Fast vector & matrix operations
   LAPACKE interface :  Fast linear algebra routines
   SCALAPACK package :  Parallel linear algebra routines


XCFun DFT library Copyright 2009-2010 Ulf Ekstrom and contributors.
See http://admol.org/xcfun for more information. This is free soft-
ware; see the source code for copying conditions. There is ABSOLUTELY
NO WARRANTY; not even for MERCHANTABILITY or FITNESS FOR A PARTICULAR
PURPOSE. For details see the documentation. Scientific users of this 
library should cite U. Ekstrom, L. Visscher, R. Bast, A. J. Thorvald-
sen and K. Ruud; J.Chem.Theor.Comp. 2010, DOI: 10.1021/ct100117s
XCFun Version 0.99 
----- Orbital basis set information -----
Your calculation utilizes the basis: def2-SVP
   F. Weigend and R. Ahlrichs, Phys. Chem. Chem. Phys. 7, 3297 (2005).

----- AuxJ basis set information -----
Your calculation utilizes the auxiliary basis: def2/J
   F. Weigend, Phys. Chem. Chem. Phys. 8, 1057 (2006).

================================================================================
                                        WARNINGS
                       Please study these warnings very carefully!
================================================================================

INFO   : Checking CIS options ...

WARNING: CIS/ROCIS methods need fully converged wavefunctions
  ===> : Setting SCFConvForced true
         You can overwrite this default with %scf ConvForced false 


INFO   : the flag for use of LIBINT has been found!

================================================================================
                                       INPUT FILE
================================================================================
NAME = xtbopt.inp
|  1> # ORCA input file
|  2> # SCF done       -219.670557512855          0.000776530927
|  3> ! CAM-B3LYP def2-SVP def2/J RIJCOSX Grid4 TightSCF
|  4> %maxcore 5000
|  5> %tddft
|  6>     Mode sTDDFT
|  7>     Ethresh 5.0
|  8>     maxcore 5000
|  9> end
| 10> 
| 11> %pal
| 12>   nprocs 6
| 13>   end
| 14> * xyz 0 1
| 15>    C        4.99522         7.64858         2.35701
| 16>    C        4.34750         8.79229         1.97548
| 17>    C        4.45755        10.01997         2.66244
| 18>    N        4.50570        11.04260         3.18108
| 19>    C        3.55393         8.91065         0.81769
| 20>    N        2.93465         9.10073        -0.13171
| 21>    C        6.00122         7.54144         3.40222
| 22>    C        6.76080         6.35247         3.18765
| 23>    C        7.79634         6.00676         4.00762
| 24>    C        8.12106         6.84427         5.09818
| 25>    C        7.35501         8.02457         5.32688
| 26>    C        6.28914         8.35955         4.46167
| 27>    C        7.68542         8.84567         6.42447
| 28>    C        8.72313         8.52104         7.25492
| 29>    C        9.47748         7.35997         7.02797
| 30>    C        9.18291         6.53991         5.97279
| 31>    C        6.22255         5.62987         2.02399
| 32>    O        6.63866         4.62528         1.49702
| 33>    C        4.98532         6.37859         1.65103
| 34>    C        4.02533         5.77650         0.91705
| 35>    C        2.66336         6.18397         0.74906
| 36>    C        1.77239         6.67417         1.70218
| 37>    N        1.93755         6.78425         3.08768
| 38>    O        0.98276         7.17971         3.73841
| 39>    O        3.01816         6.49363         3.58935
| 40>    C        0.52888         7.00410         1.06053
| 41>    C        0.67584         6.81605        -0.27503
| 42>    C        1.98307         6.28281        -0.53218
| 43>    C        2.51344         6.01268        -1.79120
| 44>    C        3.41751         5.00201        -2.17639
| 45>    C        3.49213         4.97674        -3.54682
| 46>    C        2.70613         6.02746        -4.09487
| 47>    N        2.64336         6.21582        -5.47621
| 48>    O        3.35389         5.50836        -6.17321
| 49>    O        1.87911         7.05573        -5.94660
| 50>    C        2.11575         6.74070        -3.02630
| 51>    C        1.55046         8.00483        -2.90795
| 52>    C        1.22013         8.90109        -3.90823
| 53>    C        0.70143        10.15621        -3.63591
| 54>    S        0.34494        10.74133        -2.01443
| 55>    C       -0.24310        12.28404        -2.56990
| 56>    C       -0.15064        12.36250        -3.97518
| 57>    C        0.36386        11.17002        -4.54694
| 58>    N        0.40898        11.31448        -5.88798
| 59>    C       -0.06288        12.57167        -6.19908
| 60>    C       -0.14371        13.03033        -7.52247
| 61>    N       -0.21491        13.41156        -8.60157
| 62>    C       -0.41716        13.24570        -5.04476
| 63>    C       -0.73256        13.19830        -1.62832
| 64>    C       -1.17805        14.45459        -1.92672
| 65>    C       -1.70369        15.34164        -0.96806
| 66>    S       -1.98959        14.84943         0.67528
| 67>    C       -2.59839        16.42049         1.09297
| 68>    C       -2.54254        17.29269        -0.00715
| 69>    C       -2.05713        16.68267        -1.17559
| 70>    C       -1.97141        17.38103        -2.46321
| 71>    O       -1.52188        16.86968        -3.47596
| 72>    C       -2.51012        18.75729        -2.45844
| 73>    C       -2.56490        19.45227        -3.66430
| 74>    C       -3.06322        20.74122        -3.71405
| 75>    C       -3.50882        21.35676        -2.55357
| 76>    C       -3.44981        20.68203        -1.34775
| 77>    C       -2.95580        19.38166        -1.28575
| 78>    C       -2.89885        18.71961         0.03518
| 79>    O       -3.10282        19.33177         1.06751
| 80>    C       -3.17781        16.76573         2.33416
| 81>    C       -3.22629        16.05394         3.49617
| 82>    C       -3.88380        16.49339         4.71808
| 83>    C       -4.85007        17.45782         4.81133
| 84>    C       -5.45638        17.84369         6.02602
| 85>    N       -5.97331        18.20324         6.98543
| 86>    C       -5.42984        18.13258         3.71346
| 87>    N       -5.99408        18.67195         2.87216
| 88>    C       -3.41157        15.64051         5.80092
| 89>    C       -2.58864        14.61697         5.24462
| 90>    C       -2.49128        14.80646         3.79356
| 91>    O       -1.91316        14.08883         2.99842
| 92>    C       -2.02545        13.64119         6.01737
| 93>    C       -2.26056        13.64769         7.40987
| 94>    C       -3.07340        14.67317         7.97609
| 95>    C       -3.64471        15.66880         7.15023
| 96>    C       -3.29931        14.66881         9.36730
| 97>    C       -2.75247        13.69772        10.16193
| 98>    C       -1.95399        12.68844         9.60334
| 99>    C       -1.71253        12.66370         8.25627
|100>    H        8.36079         5.10361         3.82873
|101>    H        5.71263         9.24824         4.66588
|102>    H        7.10312         9.73942         6.59382
|103>    H        8.96909         9.15720         8.09200
|104>    H       10.29230         7.11833         7.69397
|105>    H        9.75976         5.64433         5.79388
|106>    H        4.32501         4.85194         0.43710
|107>    H       -0.34046         7.34008         1.59158
|108>    H       -0.08631         6.93753        -1.02032
|109>    H        3.88038         4.28805        -1.52474
|110>    H        4.04704         4.28048        -4.14824
|111>    H        1.40396         8.35218        -1.89276
|112>    H        1.35560         8.62474        -4.94511
|113>    H        0.72366        10.62825        -6.55607
|114>    H       -0.80745        14.24270        -5.00842
|115>    H       -0.74515        12.86738        -0.59703
|116>    H       -1.12620        14.82712        -2.93815
|117>    H       -2.20870        18.95676        -4.55532
|118>    H       -3.10344        21.26661        -4.65624
|119>    H       -3.89918        22.36251        -2.58902
|120>    H       -3.78665        21.14317        -0.43125
|121>    H       -3.62045        17.75590         2.33729
|122>    H       -1.41068        12.87357         5.57145
|123>    H       -4.25182        16.43345         7.60845
|124>    H       -3.91621        15.44641         9.79307
|125>    H       -2.93340        13.70208        11.22627
|126>    H       -1.53129        11.93035        10.24526
|127>    H       -1.09917        11.88926         7.82011
|128> *
|129> 
|130>                          ****END OF INPUT****
================================================================================

                       ****************************
                       * Single Point Calculation *
                       ****************************

---------------------------------
CARTESIAN COORDINATES (ANGSTROEM)
---------------------------------
  C      4.995220    7.648580    2.357010
  C      4.347500    8.792290    1.975480
  C      4.457550   10.019970    2.662440
  N      4.505700   11.042600    3.181080
  C      3.553930    8.910650    0.817690
  N      2.934650    9.100730   -0.131710
  C      6.001220    7.541440    3.402220
  C      6.760800    6.352470    3.187650
  C      7.796340    6.006760    4.007620
  C      8.121060    6.844270    5.098180
  C      7.355010    8.024570    5.326880
  C      6.289140    8.359550    4.461670
  C      7.685420    8.845670    6.424470
  C      8.723130    8.521040    7.254920
  C      9.477480    7.359970    7.027970
  C      9.182910    6.539910    5.972790
  C      6.222550    5.629870    2.023990
  O      6.638660    4.625280    1.497020
  C      4.985320    6.378590    1.651030
  C      4.025330    5.776500    0.917050
  C      2.663360    6.183970    0.749060
  C      1.772390    6.674170    1.702180
  N      1.937550    6.784250    3.087680
  O      0.982760    7.179710    3.738410
  O      3.018160    6.493630    3.589350
  C      0.528880    7.004100    1.060530
  C      0.675840    6.816050   -0.275030
  C      1.983070    6.282810   -0.532180
  C      2.513440    6.012680   -1.791200
  C      3.417510    5.002010   -2.176390
  C      3.492130    4.976740   -3.546820
  C      2.706130    6.027460   -4.094870
  N      2.643360    6.215820   -5.476210
  O      3.353890    5.508360   -6.173210
  O      1.879110    7.055730   -5.946600
  C      2.115750    6.740700   -3.026300
  C      1.550460    8.004830   -2.907950
  C      1.220130    8.901090   -3.908230
  C      0.701430   10.156210   -3.635910
  S      0.344940   10.741330   -2.014430
  C     -0.243100   12.284040   -2.569900
  C     -0.150640   12.362500   -3.975180
  C      0.363860   11.170020   -4.546940
  N      0.408980   11.314480   -5.887980
  C     -0.062880   12.571670   -6.199080
  C     -0.143710   13.030330   -7.522470
  N     -0.214910   13.411560   -8.601570
  C     -0.417160   13.245700   -5.044760
  C     -0.732560   13.198300   -1.628320
  C     -1.178050   14.454590   -1.926720
  C     -1.703690   15.341640   -0.968060
  S     -1.989590   14.849430    0.675280
  C     -2.598390   16.420490    1.092970
  C     -2.542540   17.292690   -0.007150
  C     -2.057130   16.682670   -1.175590
  C     -1.971410   17.381030   -2.463210
  O     -1.521880   16.869680   -3.475960
  C     -2.510120   18.757290   -2.458440
  C     -2.564900   19.452270   -3.664300
  C     -3.063220   20.741220   -3.714050
  C     -3.508820   21.356760   -2.553570
  C     -3.449810   20.682030   -1.347750
  C     -2.955800   19.381660   -1.285750
  C     -2.898850   18.719610    0.035180
  O     -3.102820   19.331770    1.067510
  C     -3.177810   16.765730    2.334160
  C     -3.226290   16.053940    3.496170
  C     -3.883800   16.493390    4.718080
  C     -4.850070   17.457820    4.811330
  C     -5.456380   17.843690    6.026020
  N     -5.973310   18.203240    6.985430
  C     -5.429840   18.132580    3.713460
  N     -5.994080   18.671950    2.872160
  C     -3.411570   15.640510    5.800920
  C     -2.588640   14.616970    5.244620
  C     -2.491280   14.806460    3.793560
  O     -1.913160   14.088830    2.998420
  C     -2.025450   13.641190    6.017370
  C     -2.260560   13.647690    7.409870
  C     -3.073400   14.673170    7.976090
  C     -3.644710   15.668800    7.150230
  C     -3.299310   14.668810    9.367300
  C     -2.752470   13.697720   10.161930
  C     -1.953990   12.688440    9.603340
  C     -1.712530   12.663700    8.256270
  H      8.360790    5.103610    3.828730
  H      5.712630    9.248240    4.665880
  H      7.103120    9.739420    6.593820
  H      8.969090    9.157200    8.092000
  H     10.292300    7.118330    7.693970
  H      9.759760    5.644330    5.793880
  H      4.325010    4.851940    0.437100
  H     -0.340460    7.340080    1.591580
  H     -0.086310    6.937530   -1.020320
  H      3.880380    4.288050   -1.524740
  H      4.047040    4.280480   -4.148240
  H      1.403960    8.352180   -1.892760
  H      1.355600    8.624740   -4.945110
  H      0.723660   10.628250   -6.556070
  H     -0.807450   14.242700   -5.008420
  H     -0.745150   12.867380   -0.597030
  H     -1.126200   14.827120   -2.938150
  H     -2.208700   18.956760   -4.555320
  H     -3.103440   21.266610   -4.656240
  H     -3.899180   22.362510   -2.589020
  H     -3.786650   21.143170   -0.431250
  H     -3.620450   17.755900    2.337290
  H     -1.410680   12.873570    5.571450
  H     -4.251820   16.433450    7.608450
  H     -3.916210   15.446410    9.793070
  H     -2.933400   13.702080   11.226270
  H     -1.531290   11.930350   10.245260
  H     -1.099170   11.889260    7.820110

----------------------------
CARTESIAN COORDINATES (A.U.)
----------------------------
  NO LB      ZA    FRAG     MASS         X           Y           Z
   0 C     6.0000    0    12.011    9.439598   14.453722    4.454103
   1 C     6.0000    0    12.011    8.215584   16.615020    3.733116
   2 C     6.0000    0    12.011    8.423549   18.934999    5.031282
   3 N     7.0000    0    14.007    8.514539   20.867490    6.011370
   4 C     6.0000    0    12.011    6.715954   16.838688    1.545210
   5 N     7.0000    0    14.007    5.545685   17.197887   -0.248896
   6 C     6.0000    0    12.011   11.340662   14.251256    6.429264
   7 C     6.0000    0    12.011   12.776060   12.004429    6.023786
   8 C     6.0000    0    12.011   14.732947   11.351131    7.573304
   9 C     6.0000    0    12.011   15.346579   12.933796    9.634164
  10 C     6.0000    0    12.011   13.898955   15.164240   10.066344
  11 C     6.0000    0    12.011   11.884752   15.797260    8.431334
  12 C     6.0000    0    12.011   14.523339   16.715894   12.140489
  13 C     6.0000    0    12.011   16.484327   16.102432   13.709812
  14 C     6.0000    0    12.011   17.909842   13.908328   13.280939
  15 C     6.0000    0    12.011   17.353185   12.358639   11.286937
  16 C     6.0000    0    12.011   11.758915   10.638912    3.824787
  17 O     8.0000    0    15.999   12.545249    8.740512    2.828958
  18 C     6.0000    0    12.011    9.420889   12.053788    3.119995
  19 C     6.0000    0    12.011    7.606771   10.916003    1.732973
  20 C     6.0000    0    12.011    5.033021   11.686010    1.415518
  21 C     6.0000    0    12.011    3.349332   12.612353    3.216654
  22 N     7.0000    0    14.007    3.661439   12.820375    5.834870
  23 O     8.0000    0    15.999    1.857147   13.567686    7.064571
  24 O     8.0000    0    15.999    5.703496   12.271182    6.782888
  25 C     6.0000    0    12.011    0.999438   13.235831    2.004111
  26 C     6.0000    0    12.011    1.277153   12.880468   -0.519731
  27 C     6.0000    0    12.011    3.747459   11.872790   -1.005674
  28 C     6.0000    0    12.011    4.749713   11.362319   -3.384877
  29 C     6.0000    0    12.011    6.458158    9.452429   -4.112781
  30 C     6.0000    0    12.011    6.599169    9.404676   -6.702518
  31 C     6.0000    0    12.011    5.113845   11.390249   -7.738183
  32 N     7.0000    0    14.007    4.995226   11.746197  -10.348537
  33 O     8.0000    0    15.999    6.337934   10.409292  -11.665676
  34 O     8.0000    0    15.999    3.551003   13.333397  -11.237445
  35 C     6.0000    0    12.011    3.998188   12.738077   -5.718878
  36 C     6.0000    0    12.011    2.929945   15.126936   -5.495229
  37 C     6.0000    0    12.011    2.305712   16.820622   -7.385484
  38 C     6.0000    0    12.011    1.325511   19.192455   -6.870874
  39 S    16.0000    0    32.060    0.651842   20.298172   -3.806721
  40 C     6.0000    0    12.011   -0.459392   23.213471   -4.856407
  41 C     6.0000    0    12.011   -0.284668   23.361739   -7.512002
  42 C     6.0000    0    12.011    0.687596   21.108279   -8.592471
  43 N     7.0000    0    14.007    0.772860   21.381269  -11.126670
  44 C     6.0000    0    12.011   -0.118826   23.757013  -11.714563
  45 C     6.0000    0    12.011   -0.271573   24.623755  -14.215408
  46 N     7.0000    0    14.007   -0.406121   25.344175  -16.254612
  47 C     6.0000    0    12.011   -0.788318   25.030745   -9.533215
  48 C     6.0000    0    12.011   -1.384338   24.941172   -3.077079
  49 C     6.0000    0    12.011   -2.226192   27.315216   -3.640973
  50 C     6.0000    0    12.011   -3.219508   28.991498   -1.829368
  51 S    16.0000    0    32.060   -3.759780   28.061356    1.276094
  52 C     6.0000    0    12.011   -4.910245   31.030229    2.065414
  53 C     6.0000    0    12.011   -4.804704   32.678448   -0.013512
  54 C     6.0000    0    12.011   -3.887412   31.525677   -2.221543
  55 C     6.0000    0    12.011   -3.725425   32.845387   -4.654792
  56 O     8.0000    0    15.999   -2.875936   31.879075   -6.568612
  57 C     6.0000    0    12.011   -4.743439   35.446141   -4.645778
  58 C     6.0000    0    12.011   -4.846959   36.759463   -6.924523
  59 C     6.0000    0    12.011   -5.788647   39.195225   -7.018537
  60 C     6.0000    0    12.011   -6.630709   40.358428   -4.825548
  61 C     6.0000    0    12.011   -6.519196   39.083373   -2.546878
  62 C     6.0000    0    12.011   -5.585653   36.626029   -2.429715
  63 C     6.0000    0    12.011   -5.478033   35.374936    0.066481
  64 O     8.0000    0    15.999   -5.863480   36.531751    2.017302
  65 C     6.0000    0    12.011   -6.005191   31.682638    4.410923
  66 C     6.0000    0    12.011   -6.096805   30.337550    6.606804
  67 C     6.0000    0    12.011   -7.339318   31.167990    8.915879
  68 C     6.0000    0    12.011   -9.165304   32.990499    9.092096
  69 C     6.0000    0    12.011  -10.311064   33.719687   11.387527
  70 N     7.0000    0    14.007  -11.287920   34.399138   13.200550
  71 C     6.0000    0    12.011  -10.260911   34.265610    7.017422
  72 N     7.0000    0    14.007  -11.327170   35.284872    5.427596
  73 C     6.0000    0    12.011   -6.446933   29.556280   10.962150
  74 C     6.0000    0    12.011   -4.891821   27.622070    9.910895
  75 C     6.0000    0    12.011   -4.707837   27.980154    7.168789
  76 O     8.0000    0    15.999   -3.615348   26.624030    5.666193
  77 C     6.0000    0    12.011   -3.827546   25.778113   11.371181
  78 C     6.0000    0    12.011   -4.271839   25.790396   14.002625
  79 C     6.0000    0    12.011   -5.807884   27.728273   15.072626
  80 C     6.0000    0    12.011   -6.887504   29.609741   13.511976
  81 C     6.0000    0    12.011   -6.234792   27.720034   17.701632
  82 C     6.0000    0    12.011   -5.201414   25.884939   19.203265
  83 C     6.0000    0    12.011   -3.692506   23.977677   18.147683
  84 C     6.0000    0    12.011   -3.236213   23.930925   15.602089
  85 H     1.0000    0     1.008   15.799603    9.644425    7.235251
  86 H     1.0000    0     1.008   10.795306   17.476641    8.817235
  87 H     1.0000    0     1.008   13.422951   18.404837   12.460514
  88 H     1.0000    0     1.008   16.949124   17.304600   15.291664
  89 H     1.0000    0     1.008   19.449628   13.451694   14.539496
  90 H     1.0000    0     1.008   18.443274   10.666238   10.948846
  91 H     1.0000    0     1.008    8.173084    9.168838    0.825999
  92 H     1.0000    0     1.008   -0.643376   13.870741    3.007650
  93 H     1.0000    0     1.008   -0.163102   13.110032   -1.928125
  94 H     1.0000    0     1.008    7.332855    8.103240   -2.881341
  95 H     1.0000    0     1.008    7.647797    8.088935   -7.839038
  96 H     1.0000    0     1.008    2.653100   15.783333   -3.576798
  97 H     1.0000    0     1.008    2.561713   16.298397   -9.344904
  98 H     1.0000    0     1.008    1.367519   20.084482  -12.389177
  99 H     1.0000    0     1.008   -1.525859   26.914802   -9.464542
 100 H     1.0000    0     1.008   -1.408129   24.315824   -1.128223
 101 H     1.0000    0     1.008   -2.128210   28.019196   -5.552299
 102 H     1.0000    0     1.008   -4.173838   35.823085   -8.608307
 103 H     1.0000    0     1.008   -5.864652   40.188069   -8.799018
 104 H     1.0000    0     1.008   -7.368382   42.259020   -4.892539
 105 H     1.0000    0     1.008   -7.155731   39.954801   -0.814944
 106 H     1.0000    0     1.008   -6.841659   33.553788    4.416838
 107 H     1.0000    0     1.008   -2.665799   24.327522   10.528515
 108 H     1.0000    0     1.008   -8.034775   31.054720   14.377887
 109 H     1.0000    0     1.008   -7.400564   29.189485   18.506220
 110 H     1.0000    0     1.008   -5.543323   25.893179   21.214576
 111 H     1.0000    0     1.008   -2.893719   22.545094   19.360736
 112 H     1.0000    0     1.008   -2.077130   22.467445   14.777866

--------------------------------
INTERNAL COORDINATES (ANGSTROEM)
--------------------------------
 C      0   0   0     0.000000000000     0.00000000     0.00000000
 C      1   0   0     1.368641261763     0.00000000     0.00000000
 C      2   1   0     1.411107092499   123.67011383     0.00000000
 N      3   2   1     1.147640182723   176.88226749   182.98485153
 C      2   1   3     1.408630582729   124.46870755   176.34826785
 N      5   2   1     1.149346981899   175.12383969   211.80029181
 C      1   2   3     1.454640479191   126.09652940   352.22034756
 C      7   1   2     1.427113072675   108.74898323   200.47279629
 C      8   7   1     1.365360500600   121.62328255   178.80743718
 C      9   8   7     1.412864888126   119.19442210     0.22307668
 C     10   9   8     1.425568091148   119.41390701     0.55450444
 C      7   1   2     1.369173546706   131.10298085    20.20326249
 C     11  10   9     1.409992831968   118.75798340   179.57997341
 C     13  11  10     1.368164421223   120.80092513     0.15968704
 C     14  13  11     1.403080101028   120.39443734   359.91511266
 C     15  14  13     1.368457058479   120.32387025     0.00000000
 C      8   7   1     1.471722942031   109.46795966   357.60937477
 O     17   8   7     1.208323624324   128.83551515   175.88634670
 C      1   2   3     1.453058970070   126.27815848   183.83920070
 C     19   1   2     1.350118442434   131.20424152   326.39815088
 C     20  19   1     1.431507849053   127.83289789   352.64504806
 C     21  20  19     1.393757983044   128.90756761   318.36014720
 N     22  21  20     1.399644841379   128.98864180   353.71526832
 O     23  22  21     1.221254309552   117.43004899   183.99035168
 O     23  22  21     1.226315923977   119.35998180     4.46710822
 C     22  21  20     1.437666737286   109.17343829   177.61391329
 C     26  22  21     1.356716830330   108.29158871   355.68181403
 C     27  26  22     1.435033551176   109.06119540     3.52545263
 C     28  27  26     1.392621238600   125.52134750   182.78920145
 C     29  28  27     1.409669376095   129.07607506   212.42077793
 C     30  29  28     1.372692646662   108.71492442   170.22715453
 C     31  30  29     1.422029296780   109.94486863     3.78662550
 N     32  31  30     1.395535652751   120.40247625   179.00181707
 O     33  32  31     1.221131251136   117.42634468   355.14789243
 O     33  32  31     1.229143450823   119.93403609   174.14659289
 C     32  31  30     1.413895925060   108.19530218     0.03975665
 C     36  32  31     1.389814434916   133.86997949   161.02828721
 C     37  36  32     1.383097962872   128.67960310    10.65429919
 C     38  37  36     1.385111579188   122.30626049   182.35283807
 S     39  38  37     1.760297680763   123.92745648   357.65392340
 C     40  39  38     1.741921957666    93.95735005   180.57458180
 C     41  40  39     1.410502286989   110.17190623   359.11781218
 C     39  38  37     1.404186555234   128.07574750   177.91247226
 N     43  39  38     1.349552810230   135.55717856   359.66034553
 C     44  43  39     1.378391006101   108.08694273   180.39473748
 C     45  44  43     1.402948173170   122.05962434   180.03403410
 N     46  45  44     1.146674567129   179.57243734   164.65552337
 C     45  44  43     1.382854085470   110.11251437   359.96917356
 C     41  40  39     1.400719577789   118.79433480   177.91199492
 C     49  41  40     1.365931354132   124.57125779   177.64301000
 C     50  49  41     1.407900602919   123.53815537   178.00039001
 S     51  50  49     1.739130774180   121.76714225   353.41911582
 C     52  51  50     1.735895129234    91.65462701   180.54318281
 C     53  52  51     1.405032411334   111.06826933   358.54694234
 C     51  50  49     1.402266021624   126.57450039   173.35751499
 C     55  51  50     1.467317236456   124.77158741     1.95407880
 O     56  55  51     1.220335448104   123.39091980   356.57554787
 C     56  55  51     1.477945467397   114.77598370   174.95121208
 C     58  56  55     1.392873428708   118.43531840   185.02846848
 C     59  58  56     1.382819578759   120.69069473   179.84355916
 C     60  59  58     1.387141911269   119.95290677     0.31594167
 C     61  60  59     1.383020110266   119.94791410     0.21945581
 C     62  61  60     1.392426664855   120.63534799   359.48553553
 C     54  53  52     1.471342696791   124.74144417   184.22962492
 O     64  54  53     1.217394289210   123.54783128    10.49276664
 C     53  52  51     1.412611344319   125.20230449   173.71282123
 C     66  53  52     1.363547782294   129.47828895     9.84052394
 C     67  66  53     1.455506698954   125.02119977   181.64361280
 C     68  67  66     1.368392670362   126.08536499    19.78785768
 C     69  68  67     1.411374956948   123.68909485   179.90146512
 N     70  69  68     1.147588940126   177.05907609   169.03558056
 C     69  68  67     1.413065054200   124.98239966     4.12828406
 N     72  69  68     1.147637775825   174.68438735   139.36105839
 C     68  67  66     1.457033950497   107.50355107   194.89666901
 C     74  68  67     1.426295062917   108.49346420   354.40648428
 C     75  74  68     1.466615339242   109.35851379     1.16944424
 O     76  75  74     1.217153717038   126.99196754   183.03914945
 C     75  74  68     1.366188913364   121.99099944   181.64589292
 C     78  75  74     1.412223499344   119.06541359   359.77361227
 C     79  78  75     1.425806152463   119.32722767   359.73177459
 C     74  68  67     1.369595582572   131.67556855   175.58669245
 C     80  79  78     1.409439463688   118.75974086   180.05158549
 C     82  80  79     1.368753670534   120.74379582   359.84757542
 C     83  82  80     1.402939491532   120.43959489     0.08820764
 C     84  83  82     1.368763158512   120.34805035     0.00000000
 H      9   8   7     1.079946923279   120.57580360   180.08373850
 H     12   7   1     1.078812041229   121.75671316     2.20833057
 H     13  11  10     1.080065634580   118.52909094   179.95100504
 H     14  13  11     1.079767935068   120.23412031   179.91323844
 H     15  14  13     1.079758084943   119.41557998   180.07112928
 H     16  15  14     1.080198244305   120.63699415   180.05592223
 H     20  19   1     1.083960930338   115.11931395   175.47212317
 H     26  22  21     1.072682944071   123.49818072   175.79507609
 H     27  26  22     1.072887317942   126.24105756   177.26574146
 H     30  29  28     1.071744018411   126.04722063   357.21457292
 H     31  30  29     1.074434321911   126.78666383   184.03858563
 H     37  36  32     1.082924285719   115.25189856   194.54082086
 H     38  37  36     1.081592149472   119.85703777     3.00319915
 H     44  43  39     1.008106821423   126.59165893     0.83166214
 H     48  45  44     1.071287020224   125.11870881   179.65922787
 H     49  41  40     1.083155399100   116.40245685   357.96678145
 H     50  49  41     1.079100397692   120.43766613   357.02126327
 H     59  58  56     1.079965388566   118.18817186   359.87068846
 H     60  59  58     1.079525032873   119.89916464   180.24472339
 H     61  60  59     1.079430727096   120.14250918   180.05282359
 H     62  61  60     1.079853478579   121.22063266   179.70670768
 H     66  53  52     1.084608959672   113.14447906   188.30230009
 H     78  75  74     1.079827423110   120.58706992   179.63803249
 H     81  74  68     1.078534998505   121.93967213   357.98389673
 H     82  80  79     1.080049750197   118.58342322   180.05538458
 H     83  82  80     1.079617668483   120.16657429   180.13611926
 H     84  83  82     1.079554085954   119.42495620   180.03006015
 H     85  84  83     1.079908953940   120.70657751   180.02928283

---------------------------
INTERNAL COORDINATES (A.U.)
---------------------------
 C      0   0   0     0.000000000000     0.00000000     0.00000000
 C      1   0   0     2.586357160316     0.00000000     0.00000000
 C      2   1   0     2.666605950456   123.67011383     0.00000000
 N      3   2   1     2.168725645629   176.88226749   182.98485153
 C      2   1   3     2.661926025224   124.46870755   176.34826785
 N      5   2   1     2.171951028638   175.12383969   211.80029181
 C      1   2   3     2.748872128986   126.09652940   352.22034756
 C      7   1   2     2.696852869495   108.74898323   200.47279629
 C      8   7   1     2.580157420209   121.62328255   178.80743718
 C      9   8   7     2.669927702792   119.19442210     0.22307668
 C     10   9   8     2.693933277527   119.41390701     0.55450444
 C      7   1   2     2.587363033084   131.10298085    20.20326249
 C     11  10   9     2.664500303211   118.75798340   179.57997341
 C     13  11  10     2.585456062286   120.80092513     0.15968704
 C     14  13  11     2.651437134897   120.39443734   359.91511266
 C     15  14  13     2.586009066556   120.32387025     0.00000000
 C      8   7   1     2.781153305447   109.46795966   357.60937477
 O     17   8   7     2.283400731120   128.83551515   175.88634670
 C      1   2   3     2.745883509869   126.27815848   183.83920070
 C     19   1   2     2.551354104556   131.20424152   326.39815088
 C     20  19   1     2.705157793269   127.83289789   352.64504806
 C     21  20  19     2.633820884920   128.90756761   318.36014720
 N     22  21  20     2.644945434963   128.98864180   353.71526832
 O     23  22  21     2.307836184925   117.43004899   183.99035168
 O     23  22  21     2.317401249983   119.35998180     4.46710822
 C     22  21  20     2.716796405320   109.17343829   177.61391329
 C     26  22  21     2.563823250605   108.29158871   355.68181403
 C     27  26  22     2.711820404711   109.06119540     3.52545263
 C     28  27  26     2.631672749236   125.52134750   182.78920145
 C     29  28  27     2.663889060195   129.07607506   212.42077793
 C     30  29  28     2.594013168239   108.71492442   170.22715453
 C     31  30  29     2.687245925326   109.94486863     3.78662550
 N     32  31  30     2.637180193823   120.40247625   179.00181707
 O     33  32  31     2.307603638219   117.42634468   355.14789243
 O     33  32  31     2.322744501358   119.93403609   174.14659289
 C     32  31  30     2.671876080230   108.19530218     0.03975665
 C     36  32  31     2.626368658961   133.86997949   161.02828721
 C     37  36  32     2.613676366212   128.67960310    10.65429919
 C     38  37  36     2.617481549588   122.30626049   182.35283807
 S     39  38  37     3.326480530819   123.92745648   357.65392340
 C     40  39  38     3.291755446653    93.95735005   180.57458180
 C     41  40  39     2.665463033678   110.17190623   359.11781218
 C     39  38  37     2.653528030327   128.07574750   177.91247226
 N     43  39  38     2.550285214599   135.55717856   359.66034553
 C     44  43  39     2.604781506991   108.08694273   180.39473748
 C     45  44  43     2.651187827376   122.05962434   180.03403410
 N     46  45  44     2.166900896606   179.57243734   164.65552337
 C     45  44  43     2.613215504712   110.11251437   359.96917356
 C     41  40  39     2.646976392442   118.79433480   177.91199492
 C     49  41  40     2.581236177045   124.57125779   177.64301000
 C     50  49  41     2.660546563300   123.53815537   178.00039001
 S     51  50  49     3.286480874275   121.76714225   353.41911582
 C     52  51  50     3.280366391461    91.65462701   180.54318281
 C     53  52  51     2.655126466705   111.06826933   358.54694234
 C     51  50  49     2.649898747772   126.57450039   173.35751499
 C     55  51  50     2.772827728483   124.77158741     1.95407880
 O     56  55  51     2.306099788433   123.39091980   356.57554787
 C     56  55  51     2.792912174251   114.77598370   174.95121208
 C     58  56  55     2.632149319473   118.43531840   185.02846848
 C     59  58  56     2.613150296479   120.69069473   179.84355916
 C     60  59  58     2.621318321183   119.95290677     0.31594167
 C     61  60  59     2.613529246108   119.94791410     0.21945581
 C     62  61  60     2.631305058146   120.63534799   359.48553553
 C     54  53  52     2.780434746080   124.74144417   184.22962492
 O     64  54  53     2.300541803606   123.54783128    10.49276664
 C     53  52  51     2.669448574434   125.20230449   173.71282123
 C     66  53  52     2.576731879052   129.47828895     9.84052394
 C     67  66  53     2.750509047111   125.02119977   181.64361280
 C     68  67  66     2.585887390649   126.08536499    19.78785768
 C     69  68  67     2.667112140907   123.68909485   179.90146512
 N     70  69  68     2.168628811155   177.05907609   169.03558056
 C     69  68  67     2.670305961852   124.98239966     4.12828406
 N     72  69  68     2.168721097251   174.68438735   139.36105839
 C     68  67  66     2.753395134264   107.50355107   194.89666901
 C     74  68  67     2.695307055076   108.49346420   354.40648428
 C     75  74  68     2.771501334975   109.35851379     1.16944424
 O     76  75  74     2.300087188087   126.99196754   183.03914945
 C     75  74  68     2.581722893458   121.99099944   181.64589292
 C     78  75  74     2.668715653648   119.06541359   359.77361227
 C     79  78  75     2.694383148214   119.32722767   359.73177459
 C     74  68  67     2.588160565289   131.67556855   175.58669245
 C     80  79  78     2.663454588710   118.75974086   180.05158549
 C     82  80  79     2.586569582109   120.74379582   359.84757542
 C     83  82  80     2.651171421458   120.43959489     0.08820764
 C     84  83  82     2.586587511789   120.34805035     0.00000000
 H      9   8   7     2.040803924168   120.57580360   180.08373850
 H     12   7   1     2.038659307899   121.75671316     2.20833057
 H     13  11  10     2.041028256015   118.52909094   179.95100504
 H     14  13  11     2.040465685467   120.23412031   179.91323844
 H     15  14  13     2.040447071430   119.41557998   180.07112928
 H     16  15  14     2.041278852079   120.63699415   180.05592223
 H     20  19   1     2.048389298210   115.11931395   175.47212317
 H     26  22  21     2.027076992822   123.49818072   175.79507609
 H     27  26  22     2.027463203467   126.24105756   177.26574146
 H     30  29  28     2.025302680465   126.04722063   357.21457292
 H     31  30  29     2.030386617297   126.78666383   184.03858563
 H     37  36  32     2.046430323781   115.25189856   194.54082086
 H     38  37  36     2.043912951102   119.85703777     3.00319915
 H     44  43  39     1.905045806228   126.59165893     0.83166214
 H     48  45  44     2.024439079048   125.11870881   179.65922787
 H     49  41  40     2.046867064778   116.40245685   357.96678145
 H     50  49  41     2.039204222644   120.43766613   357.02126327
 H     59  58  56     2.040838818503   118.18817186   359.87068846
 H     60  59  58     2.040006666843   119.89916464   180.24472339
 H     61  60  59     2.039828454752   120.14250918   180.05282359
 H     62  61  60     2.040627339277   121.22063266   179.70670768
 H     66  53  52     2.049613896177   113.14447906   188.30230009
 H     78  75  74     2.040578101575   120.58706992   179.63803249
 H     81  74  68     2.038135773023   121.93967213   357.98389673
 H     82  80  79     2.040998238882   118.58342322   180.05538458
 H     83  82  80     2.040181722775   120.16657429   180.13611926
 H     84  83  82     2.040061569209   119.42495620   180.03006015
 H     85  84  83     2.040732172516   120.70657751   180.02928283

---------------------
BASIS SET INFORMATION
---------------------
There are 5 groups of distinct atoms

 Group   1 Type C   : 7s4p1d contracted to 3s2p1d pattern {511/31/1}
 Group   2 Type N   : 7s4p1d contracted to 3s2p1d pattern {511/31/1}
 Group   3 Type O   : 7s4p1d contracted to 3s2p1d pattern {511/31/1}
 Group   4 Type S   : 10s7p1d contracted to 4s3p1d pattern {5311/511/1}
 Group   5 Type H   : 4s1p contracted to 2s1p pattern {31/1}

Atom   0C    basis set group =>   1
Atom   1C    basis set group =>   1
Atom   2C    basis set group =>   1
Atom   3N    basis set group =>   2
Atom   4C    basis set group =>   1
Atom   5N    basis set group =>   2
Atom   6C    basis set group =>   1
Atom   7C    basis set group =>   1
Atom   8C    basis set group =>   1
Atom   9C    basis set group =>   1
Atom  10C    basis set group =>   1
Atom  11C    basis set group =>   1
Atom  12C    basis set group =>   1
Atom  13C    basis set group =>   1
Atom  14C    basis set group =>   1
Atom  15C    basis set group =>   1
Atom  16C    basis set group =>   1
Atom  17O    basis set group =>   3
Atom  18C    basis set group =>   1
Atom  19C    basis set group =>   1
Atom  20C    basis set group =>   1
Atom  21C    basis set group =>   1
Atom  22N    basis set group =>   2
Atom  23O    basis set group =>   3
Atom  24O    basis set group =>   3
Atom  25C    basis set group =>   1
Atom  26C    basis set group =>   1
Atom  27C    basis set group =>   1
Atom  28C    basis set group =>   1
Atom  29C    basis set group =>   1
Atom  30C    basis set group =>   1
Atom  31C    basis set group =>   1
Atom  32N    basis set group =>   2
Atom  33O    basis set group =>   3
Atom  34O    basis set group =>   3
Atom  35C    basis set group =>   1
Atom  36C    basis set group =>   1
Atom  37C    basis set group =>   1
Atom  38C    basis set group =>   1
Atom  39S    basis set group =>   4
Atom  40C    basis set group =>   1
Atom  41C    basis set group =>   1
Atom  42C    basis set group =>   1
Atom  43N    basis set group =>   2
Atom  44C    basis set group =>   1
Atom  45C    basis set group =>   1
Atom  46N    basis set group =>   2
Atom  47C    basis set group =>   1
Atom  48C    basis set group =>   1
Atom  49C    basis set group =>   1
Atom  50C    basis set group =>   1
Atom  51S    basis set group =>   4
Atom  52C    basis set group =>   1
Atom  53C    basis set group =>   1
Atom  54C    basis set group =>   1
Atom  55C    basis set group =>   1
Atom  56O    basis set group =>   3
Atom  57C    basis set group =>   1
Atom  58C    basis set group =>   1
Atom  59C    basis set group =>   1
Atom  60C    basis set group =>   1
Atom  61C    basis set group =>   1
Atom  62C    basis set group =>   1
Atom  63C    basis set group =>   1
Atom  64O    basis set group =>   3
Atom  65C    basis set group =>   1
Atom  66C    basis set group =>   1
Atom  67C    basis set group =>   1
Atom  68C    basis set group =>   1
Atom  69C    basis set group =>   1
Atom  70N    basis set group =>   2
Atom  71C    basis set group =>   1
Atom  72N    basis set group =>   2
Atom  73C    basis set group =>   1
Atom  74C    basis set group =>   1
Atom  75C    basis set group =>   1
Atom  76O    basis set group =>   3
Atom  77C    basis set group =>   1
Atom  78C    basis set group =>   1
Atom  79C    basis set group =>   1
Atom  80C    basis set group =>   1
Atom  81C    basis set group =>   1
Atom  82C    basis set group =>   1
Atom  83C    basis set group =>   1
Atom  84C    basis set group =>   1
Atom  85H    basis set group =>   5
Atom  86H    basis set group =>   5
Atom  87H    basis set group =>   5
Atom  88H    basis set group =>   5
Atom  89H    basis set group =>   5
Atom  90H    basis set group =>   5
Atom  91H    basis set group =>   5
Atom  92H    basis set group =>   5
Atom  93H    basis set group =>   5
Atom  94H    basis set group =>   5
Atom  95H    basis set group =>   5
Atom  96H    basis set group =>   5
Atom  97H    basis set group =>   5
Atom  98H    basis set group =>   5
Atom  99H    basis set group =>   5
Atom 100H    basis set group =>   5
Atom 101H    basis set group =>   5
Atom 102H    basis set group =>   5
Atom 103H    basis set group =>   5
Atom 104H    basis set group =>   5
Atom 105H    basis set group =>   5
Atom 106H    basis set group =>   5
Atom 107H    basis set group =>   5
Atom 108H    basis set group =>   5
Atom 109H    basis set group =>   5
Atom 110H    basis set group =>   5
Atom 111H    basis set group =>   5
Atom 112H    basis set group =>   5
---------------------------------
AUXILIARY/J BASIS SET INFORMATION
---------------------------------
There are 5 groups of distinct atoms

 Group   1 Type C   : 12s5p4d2f1g contracted to 6s4p3d1f1g pattern {711111/2111/211/2/1}
 Group   2 Type N   : 12s5p4d2f1g contracted to 6s4p3d1f1g pattern {711111/2111/211/2/1}
 Group   3 Type O   : 12s5p4d2f1g contracted to 6s4p3d1f1g pattern {711111/2111/211/2/1}
 Group   4 Type S   : 14s5p5d2f1g contracted to 8s4p3d1f1g pattern {71111111/2111/311/2/1}
 Group   5 Type H   : 5s2p1d contracted to 3s1p1d pattern {311/2/1}

Atom   0C    basis set group =>   1
Atom   1C    basis set group =>   1
Atom   2C    basis set group =>   1
Atom   3N    basis set group =>   2
Atom   4C    basis set group =>   1
Atom   5N    basis set group =>   2
Atom   6C    basis set group =>   1
Atom   7C    basis set group =>   1
Atom   8C    basis set group =>   1
Atom   9C    basis set group =>   1
Atom  10C    basis set group =>   1
Atom  11C    basis set group =>   1
Atom  12C    basis set group =>   1
Atom  13C    basis set group =>   1
Atom  14C    basis set group =>   1
Atom  15C    basis set group =>   1
Atom  16C    basis set group =>   1
Atom  17O    basis set group =>   3
Atom  18C    basis set group =>   1
Atom  19C    basis set group =>   1
Atom  20C    basis set group =>   1
Atom  21C    basis set group =>   1
Atom  22N    basis set group =>   2
Atom  23O    basis set group =>   3
Atom  24O    basis set group =>   3
Atom  25C    basis set group =>   1
Atom  26C    basis set group =>   1
Atom  27C    basis set group =>   1
Atom  28C    basis set group =>   1
Atom  29C    basis set group =>   1
Atom  30C    basis set group =>   1
Atom  31C    basis set group =>   1
Atom  32N    basis set group =>   2
Atom  33O    basis set group =>   3
Atom  34O    basis set group =>   3
Atom  35C    basis set group =>   1
Atom  36C    basis set group =>   1
Atom  37C    basis set group =>   1
Atom  38C    basis set group =>   1
Atom  39S    basis set group =>   4
Atom  40C    basis set group =>   1
Atom  41C    basis set group =>   1
Atom  42C    basis set group =>   1
Atom  43N    basis set group =>   2
Atom  44C    basis set group =>   1
Atom  45C    basis set group =>   1
Atom  46N    basis set group =>   2
Atom  47C    basis set group =>   1
Atom  48C    basis set group =>   1
Atom  49C    basis set group =>   1
Atom  50C    basis set group =>   1
Atom  51S    basis set group =>   4
Atom  52C    basis set group =>   1
Atom  53C    basis set group =>   1
Atom  54C    basis set group =>   1
Atom  55C    basis set group =>   1
Atom  56O    basis set group =>   3
Atom  57C    basis set group =>   1
Atom  58C    basis set group =>   1
Atom  59C    basis set group =>   1
Atom  60C    basis set group =>   1
Atom  61C    basis set group =>   1
Atom  62C    basis set group =>   1
Atom  63C    basis set group =>   1
Atom  64O    basis set group =>   3
Atom  65C    basis set group =>   1
Atom  66C    basis set group =>   1
Atom  67C    basis set group =>   1
Atom  68C    basis set group =>   1
Atom  69C    basis set group =>   1
Atom  70N    basis set group =>   2
Atom  71C    basis set group =>   1
Atom  72N    basis set group =>   2
Atom  73C    basis set group =>   1
Atom  74C    basis set group =>   1
Atom  75C    basis set group =>   1
Atom  76O    basis set group =>   3
Atom  77C    basis set group =>   1
Atom  78C    basis set group =>   1
Atom  79C    basis set group =>   1
Atom  80C    basis set group =>   1
Atom  81C    basis set group =>   1
Atom  82C    basis set group =>   1
Atom  83C    basis set group =>   1
Atom  84C    basis set group =>   1
Atom  85H    basis set group =>   5
Atom  86H    basis set group =>   5
Atom  87H    basis set group =>   5
Atom  88H    basis set group =>   5
Atom  89H    basis set group =>   5
Atom  90H    basis set group =>   5
Atom  91H    basis set group =>   5
Atom  92H    basis set group =>   5
Atom  93H    basis set group =>   5
Atom  94H    basis set group =>   5
Atom  95H    basis set group =>   5
Atom  96H    basis set group =>   5
Atom  97H    basis set group =>   5
Atom  98H    basis set group =>   5
Atom  99H    basis set group =>   5
Atom 100H    basis set group =>   5
Atom 101H    basis set group =>   5
Atom 102H    basis set group =>   5
Atom 103H    basis set group =>   5
Atom 104H    basis set group =>   5
Atom 105H    basis set group =>   5
Atom 106H    basis set group =>   5
Atom 107H    basis set group =>   5
Atom 108H    basis set group =>   5
Atom 109H    basis set group =>   5
Atom 110H    basis set group =>   5
Atom 111H    basis set group =>   5
Atom 112H    basis set group =>   5


           ************************************************************
           *        Program running with 6 parallel MPI-processes     *
           *              working on a common directory               *
           ************************************************************
------------------------------------------------------------------------------
                           ORCA GTO INTEGRAL CALCULATION
                           -- RI-GTO INTEGRALS CHOSEN --
------------------------------------------------------------------------------

                         BASIS SET STATISTICS AND STARTUP INFO

Gaussian basis set:
 # of primitive gaussian shells          ... 1172
 # of primitive gaussian functions       ... 2260
 # of contracted shells                  ...  598
 # of contracted basis functions         ... 1338
 Highest angular momentum                ...    2
 Maximum contraction depth               ...    5
Auxiliary gaussian basis set:
 # of primitive gaussian shells          ... 2270
 # of primitive gaussian functions       ... 6412
 # of contracted shells                  ... 1419
 # of contracted aux-basis functions     ... 4477
 Highest angular momentum                ...    4
 Maximum contraction depth               ...    7
Ratio of auxiliary to basis functions    ...  3.35
Integral package used                  ... LIBINT
 One Electron integrals                  ... done
 Ordering auxiliary basis shells         ... done
 Integral threshhold             Thresh  ...  2.500e-11
 Primitive cut-off               TCut    ...  2.500e-12
 Pre-screening matrix                    ... done
 Shell pair data                         ... 
 Ordering of the shell pairs             ... done (   0.010 sec) 52953 of 179101 pairs
 Determination of significant pairs      ... done (   0.000 sec)
 Creation of shell pair data             ... done (   0.008 sec)
 Storage of shell pair data              ... done (   0.010 sec)
 Shell pair data done in (   0.027 sec)
 Computing two index integrals           ... done
 Cholesky decomposition of the V-matrix  ... done


Timings:
 Total evaluation time                   ...   2.975 sec (  0.050 min)
 One electron matrix time                ...   0.732 sec (  0.012 min) = 24.6%
 Schwartz matrix evaluation time         ...   0.822 sec (  0.014 min) = 27.6%
 Two index repulsion integral time       ...   0.511 sec (  0.009 min) = 17.2%
 Cholesky decomposition of V             ...   0.866 sec (  0.014 min) = 29.1%
 Three index repulsion integral time     ...   0.000 sec (  0.000 min) =  0.0%



           ************************************************************
           *        Program running with 6 parallel MPI-processes     *
           *              working on a common directory               *
           ************************************************************
-------------------------------------------------------------------------------
                                 ORCA SCF
-------------------------------------------------------------------------------

------------
SCF SETTINGS
------------
Hamiltonian:
 Density Functional     Method          .... DFT(GTOs)
 Exchange Functional    Exchange        .... WB88
 Correlation Functional Correlation     .... LYP
 LDA part of GGA corr.  LDAOpt          .... VWN-5
 Gradients option       PostSCFGGA      .... off
 Hybrid DFT is turned on
   Fraction HF Exchange ScalHFX         ....  0.190000
   Scaling of DF-GGA-X  ScalDFX         ....  0.350000
   Scaling of DF-GGA-C  ScalDFC         ....  0.810000
   Scaling of DF-LDA-C  ScalLDAC        ....  1.000000
   Perturbative correction              ....  0.000000
   Density functional embedding theory  .... OFF
 Long-range corrected/Screened/Range-Separated Hybrid DFT is turned on
   Amount of maximum screened exact exchange              ....  0.460000
   Range separation parameter mu (erf(mu*r12)/r12)        ....  0.330000
 RI-approximation to the Coulomb term is turned on
   Number of auxiliary basis functions  .... 4477
   RIJ-COSX (HFX calculated with COS-X)).... on


General Settings:
 Integral files         IntName         .... xtbopt
 Hartree-Fock type      HFTyp           .... RHF
 Total Charge           Charge          ....    0
 Multiplicity           Mult            ....    1
 Number of Electrons    NEL             ....  582
 Basis Dimension        Dim             .... 1338
 Nuclear Repulsion      ENuc            ....  13044.1417351363 Eh

Convergence Acceleration:
 DIIS                   CNVDIIS         .... on
   Start iteration      DIISMaxIt       ....    12
   Startup error        DIISStart       ....  0.200000
   # of expansion vecs  DIISMaxEq       ....     5
   Bias factor          DIISBfac        ....   1.050
   Max. coefficient     DIISMaxC        ....  10.000
 Newton-Raphson         CNVNR           .... off
 SOSCF                  CNVSOSCF        .... on
   Start iteration      SOSCFMaxIt      ....   150
   Startup grad/error   SOSCFStart      ....  0.003300
 Level Shifting         CNVShift        .... on
   Level shift para.    LevelShift      ....    0.2500
   Turn off err/grad.   ShiftErr        ....    0.0010
 Zerner damping         CNVZerner       .... off
 Static damping         CNVDamp         .... on
   Fraction old density DampFac         ....    0.7000
   Max. Damping (<1)    DampMax         ....    0.9800
   Min. Damping (>=0)   DampMin         ....    0.0000
   Turn off err/grad.   DampErr         ....    0.1000
 Fernandez-Rico         CNVRico         .... off

SCF Procedure:
 Maximum # iterations   MaxIter         ....   125
 SCF integral mode      SCFMode         .... Direct
   Integral package                     .... LIBINT
 Reset frequency        DirectResetFreq ....    20
 Integral Threshold     Thresh          ....  2.500e-11 Eh
 Primitive CutOff       TCut            ....  2.500e-12 Eh

Convergence Tolerance:
 Convergence Check Mode ConvCheckMode   .... Total+1el-Energy
 Convergence forced     ConvForced      .... 1
 Energy Change          TolE            ....  1.000e-08 Eh
 1-El. energy change                    ....  1.000e-05 Eh
 Orbital Gradient       TolG            ....  1.000e-05
 Orbital Rotation angle TolX            ....  1.000e-05
 DIIS Error             TolErr          ....  5.000e-07


Diagonalization of the overlap matrix:
Smallest eigenvalue                        ... 1.922e-04
Time for diagonalization                   ...    0.258 sec
Threshold for overlap eigenvalues          ... 1.000e-08
Number of eigenvalues below threshold      ... 0
Time for construction of square roots      ...    0.201 sec
Total time needed                          ...    0.463 sec

-------------------
DFT GRID GENERATION
-------------------

General Integration Accuracy     IntAcc      ...  4.670
Radial Grid Type                 RadialGrid  ... Gauss-Chebyshev
Angular Grid (max. acc.)         AngularGrid ... Lebedev-302
Angular grid pruning method      GridPruning ... 3 (G Style)
Weight generation scheme         WeightScheme... Becke
Basis function cutoff            BFCut       ...    1.0000e-11
Integration weight cutoff        WCut        ...    1.0000e-14
Grids for H and He will be reduced by one unit

# of grid points (after initial pruning)     ... 624320 (   0.0 sec)
# of grid points (after weights+screening)   ... 532139 (   7.1 sec)
nearest neighbour list constructed           ...    0.0 sec
Grid point re-assignment to atoms done       ...    0.1 sec
Grid point division into batches done        ...    1.6 sec
Reduced shell lists constructed in    3.0 sec

Total number of grid points                  ...   532139
Total number of batches                      ...     8373
Average number of points per batch           ...       63
Average number of grid points per atom       ...     4709
Average number of shells per batch           ...   105.57 (17.65%)
Average number of basis functions per batch  ...   221.99 (16.59%)
Average number of large shells per batch     ...    63.70 (60.34%)
Average number of large basis fcns per batch ...   136.38 (61.43%)
Maximum spatial batch extension              ...  19.99, 17.13, 15.93 au
Average spatial batch extension              ...   0.31,  0.30,  0.30 au

Time for grid setup =   10.269 sec

------------------------------
INITIAL GUESS: MODEL POTENTIAL
------------------------------
Loading Hartree-Fock densities                     ... done
Calculating cut-offs                               ... done
Setting up the integral package                    ... done
Initializing the effective Hamiltonian             ... done
Starting the Coulomb interaction                   ... done (   1.6 sec)
Reading the grid                                   ... done
Mapping shells                                     ... done
Starting the XC term evaluation                    ... done (   1.7 sec)
  promolecular density results
     # of electrons  =    581.986288144
     EX              =   -518.443298478
     EC              =    -19.943666230
     EX+EC           =   -538.386964708
Transforming the Hamiltonian                       ... done (   0.1 sec)
Diagonalizing the Hamiltonian                      ... done (   0.3 sec)
Back transforming the eigenvectors                 ... done (   0.1 sec)
Now organizing SCF variables                       ... done
                      ------------------
                      INITIAL GUESS DONE (  14.2 sec)
                      ------------------
--------------------
COSX GRID GENERATION
--------------------

General Integration Accuracy     IntAcc      ...  3.340
Radial Grid Type                 RadialGrid  ... Gauss-Chebyshev
Angular Grid (max. acc.)         AngularGrid ... Lebedev-50
Angular grid pruning method      GridPruning ... 3 (G Style)
Weight generation scheme         WeightScheme... Becke
Basis function cutoff            BFCut       ...    1.0000e-11
Integration weight cutoff        WCut        ...    1.0000e-14
Grids for H and He will be reduced by one unit

# of grid points (after initial pruning)     ...  58400 (   0.0 sec)
# of grid points (after weights+screening)   ...  52256 (   0.7 sec)
nearest neighbour list constructed           ...    0.0 sec
Grid point re-assignment to atoms done       ...    0.0 sec
Grid point division into batches done        ...    0.0 sec
Reduced shell lists constructed in    0.2 sec

Total number of grid points                  ...    52256
Total number of batches                      ...      871
Average number of points per batch           ...       59
Average number of grid points per atom       ...      462
Average number of shells per batch           ...   124.59 (20.83%)
Average number of basis functions per batch  ...   263.95 (19.73%)
Average number of large shells per batch     ...    74.46 (59.76%)
Average number of large basis fcns per batch ...   161.15 (61.05%)
Maximum spatial batch extension              ...  14.95, 15.48, 18.19 au
Average spatial batch extension              ...   0.71,  0.68,  0.72 au

Overlap Fitting                  UseSFitting ... on
Constructing numerical overlap ... done (      0.1 sec)
Inverting numerical overlap    ... done (      0.1 sec)
Obtaining analytic overlap     ... done (      0.0 sec)
Final contraction and storage  ... done (      0.1 sec)


General Integration Accuracy     IntAcc      ...  3.670
Radial Grid Type                 RadialGrid  ... Gauss-Chebyshev
Angular Grid (max. acc.)         AngularGrid ... Lebedev-50
Angular grid pruning method      GridPruning ... 3 (G Style)
Weight generation scheme         WeightScheme... Becke
Basis function cutoff            BFCut       ...    1.0000e-11
Integration weight cutoff        WCut        ...    1.0000e-14
Grids for H and He will be reduced by one unit

# of grid points (after initial pruning)     ...  72738 (   0.0 sec)
# of grid points (after weights+screening)   ...  64810 (   0.8 sec)
nearest neighbour list constructed           ...    0.0 sec
Grid point re-assignment to atoms done       ...    0.0 sec
Grid point division into batches done        ...    0.0 sec
Reduced shell lists constructed in    0.2 sec

Total number of grid points                  ...    64810
Total number of batches                      ...     1073
Average number of points per batch           ...       60
Average number of grid points per atom       ...      574
Average number of shells per batch           ...   123.00 (20.57%)
Average number of basis functions per batch  ...   260.46 (19.47%)
Average number of large shells per batch     ...    73.67 (59.89%)
Average number of large basis fcns per batch ...   159.40 (61.20%)
Maximum spatial batch extension              ...  16.33, 15.51, 17.65 au
Average spatial batch extension              ...   0.67,  0.62,  0.66 au

Overlap Fitting                  UseSFitting ... on
Constructing numerical overlap ... done (      0.1 sec)
Inverting numerical overlap    ... done (      0.1 sec)
Obtaining analytic overlap     ... done (      0.0 sec)
Final contraction and storage  ... done (      0.1 sec)


General Integration Accuracy     IntAcc      ...  4.010
Radial Grid Type                 RadialGrid  ... Gauss-Chebyshev
Angular Grid (max. acc.)         AngularGrid ... Lebedev-110
Angular grid pruning method      GridPruning ... 3 (G Style)
Weight generation scheme         WeightScheme... Becke
Basis function cutoff            BFCut       ...    1.0000e-11
Integration weight cutoff        WCut        ...    1.0000e-14
Grids for H and He will be reduced by one unit

# of grid points (after initial pruning)     ... 143444 (   0.0 sec)
# of grid points (after weights+screening)   ... 126189 (   1.7 sec)
nearest neighbour list constructed           ...    0.0 sec
Grid point re-assignment to atoms done       ...    0.0 sec
Grid point division into batches done        ...    0.1 sec
Reduced shell lists constructed in    0.5 sec

Total number of grid points                  ...   126189
Total number of batches                      ...     2037
Average number of points per batch           ...       61
Average number of grid points per atom       ...     1117
Average number of shells per batch           ...   116.38 (19.46%)
Average number of basis functions per batch  ...   246.02 (18.39%)
Average number of large shells per batch     ...    70.31 (60.42%)
Average number of large basis fcns per batch ...   151.70 (61.66%)
Maximum spatial batch extension              ...  17.10, 16.32, 14.70 au
Average spatial batch extension              ...   0.52,  0.51,  0.51 au

Overlap Fitting                  UseSFitting ... on
Constructing numerical overlap ... done (      0.2 sec)
Inverting numerical overlap    ... done (      0.1 sec)
Obtaining analytic overlap     ... done (      0.0 sec)
Final contraction and storage  ... done (      0.1 sec)

Time for X-Grid setup             =    5.215 sec
--------------
SCF ITERATIONS
--------------
ITER       Energy         Delta-E        Max-DP      RMS-DP      [F,P]     Damp
               ***  Starting incremental Fock matrix formation  ***
  0  -4399.4643811360   0.000000000000 0.07752214  0.00096679  0.2222395 0.7000
  1  -4400.1705775824  -0.706196446446 0.04752106  0.00067888  0.0963299 0.7000
                               ***Turning on DIIS***
  2  -4400.4646217628  -0.294044180417 0.10166603  0.00124799  0.0334050 0.0000
  3  -4400.9736858697  -0.509064106829 0.06431160  0.00047917  0.0598731 0.0000
  4  -4401.0553537885  -0.081667918872 0.01603201  0.00016841  0.0226748 0.0000
  5  -4401.0642839297  -0.008930141150 0.00863237  0.00007030  0.0057867 0.0000
  6  -4401.0660895781  -0.001805648377 0.00291214  0.00004421  0.0028445 0.0000
  7  -4401.0671291778  -0.001039599754 0.00238816  0.00003318  0.0014107 0.0000
  8  -4401.0678157289  -0.000686551026 0.00220795  0.00003292  0.0016503 0.0000
  9  -4401.0683592890  -0.000543560105 0.00487953  0.00006986  0.0009637 0.0000
               *** Restarting incremental Fock matrix formation ***
                                   *** Resetting DIIS ***
                      *** Initiating the SOSCF procedure ***
                           *** Shutting down DIIS ***
                      *** Re-Reading the Fockian *** 
                      *** Removing any level shift *** 
ITER      Energy       Delta-E        Grad      Rot      Max-DP    RMS-DP
 10  -4401.06909446  -0.0007351719  0.000842  0.000842  0.004235  0.000029
               *** Restarting incremental Fock matrix formation ***
 11  -4401.06919185  -0.0000973848  0.001791  0.018291  0.003266  0.000032
 12  -4401.06922542  -0.0000335713  0.000872  0.005503  0.002941  0.000024
 13  -4401.06940349  -0.0001780726  0.000251  0.007712  0.002730  0.000025
 14  -4401.06943003  -0.0000265386  0.000644  0.007617  0.001277  0.000013
 15  -4401.06944677  -0.0000167376  0.000250  0.001019  0.000960  0.000005
 16  -4401.06944976  -0.0000029986  0.000070  0.000631  0.000386  0.000003
 17  -4401.06945148  -0.0000017154  0.000039  0.000715  0.000153  0.000002
 18  -4401.06945169  -0.0000002135  0.000017  0.000270  0.000093  0.000001
 19  -4401.06945178  -0.0000000829  0.000012  0.000150  0.000041  0.000000
 20  -4401.06945183  -0.0000000522  0.000005  0.000035  0.000024  0.000000
 21  -4401.06945180   0.0000000261  0.000004  0.000063  0.000016  0.000000
                  ***Gradient check signals convergence***
              ***Rediagonalizing the Fockian in SOSCF/NRSCF***

               *****************************************************
               *                     SUCCESS                       *
               *           SCF CONVERGED AFTER  22 CYCLES          *
               *****************************************************

Setting up the final grid:

General Integration Accuracy     IntAcc      ...  5.010
Radial Grid Type                 RadialGrid  ... Gauss-Chebyshev
Angular Grid (max. acc.)         AngularGrid ... Lebedev-434
Angular grid pruning method      GridPruning ... 3 (G Style)
Weight generation scheme         WeightScheme... Becke
Basis function cutoff            BFCut       ...    1.0000e-11
Integration weight cutoff        WCut        ...    1.0000e-14
Grids for H and He will be reduced by one unit

# of grid points (after initial pruning)     ... 1099078 (   0.1 sec)
# of grid points (after weights+screening)   ... 933726 (  12.2 sec)
nearest neighbour list constructed           ...    0.0 sec
Grid point re-assignment to atoms done       ...    0.1 sec
Grid point division into batches done        ...    5.2 sec
Reduced shell lists constructed in    7.5 sec

Total number of grid points                  ...   933726
Total number of batches                      ...    14642
Average number of points per batch           ...       63
Average number of grid points per atom       ...     8263
Average number of shells per batch           ...   103.02 (17.23%)
Average number of basis functions per batch  ...   216.42 (16.17%)
Average number of large shells per batch     ...    62.21 (60.38%)
Average number of large basis fcns per batch ...   132.96 (61.44%)
Maximum spatial batch extension              ...  21.94, 18.18, 17.59 au
Average spatial batch extension              ...   0.25,  0.24,  0.25 au

Final grid set up in   19.9 sec
Final integration                            ... done (   3.1 sec)
Change in XC energy                          ...    -0.000020763
Integrated number of electrons               ...   581.999818499
Previous integrated no of electrons          ...   582.000064248
Old exchange energy                            =   -145.480129349 Eh
New exchange energy                            =   -145.481004584 Eh
Exchange energy change after final integration =     -0.000875236 Eh
Total energy after final integration           =  -4401.070347841 Eh
Final COS-X integration done in                =    72.556 sec

----------------
TOTAL SCF ENERGY
----------------

Total Energy       :        -4401.07034784 Eh         -119759.21261 eV

Components:
Nuclear Repulsion  :        13044.14173514 Eh          354949.14188 eV
Electronic Energy  :       -17445.21208298 Eh         -474708.35448 eV
One Electron Energy:       -31986.46573493 Eh         -870395.98272 eV
Two Electron Energy:        14541.25365195 Eh          395687.62824 eV

Virial components:
Potential Energy   :        -8768.24359362 Eh         -238596.03817 eV
Kinetic Energy     :         4367.17324578 Eh          118836.82557 eV
Virial Ratio       :            2.00776179


DFT components:
N(Alpha)           :      290.999909249374 electrons
N(Beta)            :      290.999909249374 electrons
N(Total)           :      581.999818498748 electrons
E(XC)              :     -401.836063220596 Eh       
DFET-embed. en.    :        0.000000000000 Eh       

---------------
SCF CONVERGENCE
---------------

  Last Energy change         ...   -3.9587e-08  Tolerance :   1.0000e-08
  Last MAX-Density change    ...    7.1054e-15  Tolerance :   1.0000e-07
  Last RMS-Density change    ...    3.2187e-17  Tolerance :   5.0000e-09
  Last Orbital Gradient      ...    2.1772e-06  Tolerance :   1.0000e-05
  Last Orbital Rotation      ...    1.1689e-05  Tolerance :   1.0000e-05

             **** THE GBW FILE WAS UPDATED (xtbopt.gbw) ****
             **** DENSITY FILE WAS UPDATED (xtbopt.scfp) ****
             **** ENERGY FILE WAS UPDATED (xtbopt.en.tmp) ****
             **** THE GBW FILE WAS UPDATED (xtbopt.gbw) ****
             **** DENSITY FILE WAS UPDATED (xtbopt.scfp) ****
----------------
ORBITAL ENERGIES
----------------

  NO   OCC          E(Eh)            E(eV) 
   0   2.0000     -88.992360     -2421.6052 
   1   2.0000     -88.991132     -2421.5718 
   2   2.0000     -19.233559      -523.3718 
   3   2.0000     -19.231103      -523.3049 
   4   2.0000     -19.230876      -523.2987 
   5   2.0000     -19.229959      -523.2738 
   6   2.0000     -19.229877      -523.2716 
   7   2.0000     -19.221524      -523.0442 
   8   2.0000     -19.218849      -522.9715 
   9   2.0000     -19.213197      -522.8177 
  10   2.0000     -14.638662      -398.3382 
  11   2.0000     -14.631536      -398.1443 
  12   2.0000     -14.507634      -394.7728 
  13   2.0000     -14.429847      -392.6561 
  14   2.0000     -14.420776      -392.4093 
  15   2.0000     -14.418646      -392.3513 
  16   2.0000     -14.418245      -392.3404 
  17   2.0000     -14.414542      -392.2396 
  18   2.0000     -10.385309      -282.5986 
  19   2.0000     -10.384257      -282.5700 
  20   2.0000     -10.381359      -282.4911 
  21   2.0000     -10.368427      -282.1392 
  22   2.0000     -10.363676      -282.0100 
  23   2.0000     -10.355943      -281.7995 
  24   2.0000     -10.355213      -281.7797 
  25   2.0000     -10.350344      -281.6472 
  26   2.0000     -10.346628      -281.5461 
  27   2.0000     -10.344429      -281.4862 
  28   2.0000     -10.341313      -281.4014 
  29   2.0000     -10.340694      -281.3846 
  30   2.0000     -10.337723      -281.3037 
  31   2.0000     -10.337581      -281.2999 
  32   2.0000     -10.328673      -281.0575 
  33   2.0000     -10.327892      -281.0362 
  34   2.0000     -10.323002      -280.9032 
  35   2.0000     -10.322834      -280.8986 
  36   2.0000     -10.321034      -280.8496 
  37   2.0000     -10.320534      -280.8360 
  38   2.0000     -10.319896      -280.8186 
  39   2.0000     -10.319796      -280.8159 
  40   2.0000     -10.318267      -280.7743 
  41   2.0000     -10.317699      -280.7589 
  42   2.0000     -10.317593      -280.7560 
  43   2.0000     -10.317363      -280.7497 
  44   2.0000     -10.316471      -280.7254 
  45   2.0000     -10.314085      -280.6605 
  46   2.0000     -10.313297      -280.6391 
  47   2.0000     -10.312635      -280.6211 
  48   2.0000     -10.312383      -280.6142 
  49   2.0000     -10.311795      -280.5982 
  50   2.0000     -10.309638      -280.5395 
  51   2.0000     -10.306619      -280.4574 
  52   2.0000     -10.306536      -280.4551 
  53   2.0000     -10.304017      -280.3866 
  54   2.0000     -10.303320      -280.3676 
  55   2.0000     -10.302774      -280.3527 
  56   2.0000     -10.302572      -280.3472 
  57   2.0000     -10.302341      -280.3410 
  58   2.0000     -10.302179      -280.3366 
  59   2.0000     -10.301968      -280.3308 
  60   2.0000     -10.300695      -280.2961 
  61   2.0000     -10.299322      -280.2588 
  62   2.0000     -10.297587      -280.2116 
  63   2.0000     -10.296944      -280.1941 
  64   2.0000     -10.296381      -280.1788 
  65   2.0000     -10.296022      -280.1690 
  66   2.0000     -10.295952      -280.1671 
  67   2.0000     -10.295783      -280.1625 
  68   2.0000     -10.295457      -280.1536 
  69   2.0000     -10.294676      -280.1324 
  70   2.0000     -10.294510      -280.1278 
  71   2.0000     -10.294287      -280.1218 
  72   2.0000     -10.293294      -280.0948 
  73   2.0000     -10.290610      -280.0217 
  74   2.0000     -10.290422      -280.0166 
  75   2.0000     -10.289997      -280.0050 
  76   2.0000     -10.289771      -279.9989 
  77   2.0000     -10.287461      -279.9360 
  78   2.0000     -10.285022      -279.8697 
  79   2.0000     -10.284512      -279.8558 
  80   2.0000     -10.284312      -279.8504 
  81   2.0000     -10.283880      -279.8386 
  82   2.0000     -10.277069      -279.6533 
  83   2.0000     -10.272650      -279.5330 
  84   2.0000     -10.272093      -279.5179 
  85   2.0000      -8.086651      -220.0490 
  86   2.0000      -8.084466      -219.9895 
  87   2.0000      -6.055970      -164.7913 
  88   2.0000      -6.053603      -164.7269 
  89   2.0000      -6.051747      -164.6764 
  90   2.0000      -6.049145      -164.6056 
  91   2.0000      -6.048861      -164.5979 
  92   2.0000      -6.047139      -164.5510 
  93   2.0000      -1.307505       -35.5790 
  94   2.0000      -1.298395       -35.3311 
  95   2.0000      -1.149221       -31.2719 
  96   2.0000      -1.147554       -31.2265 
  97   2.0000      -1.145016       -31.1575 
  98   2.0000      -1.129142       -30.7255 
  99   2.0000      -1.128296       -30.7025 
 100   2.0000      -1.123823       -30.5808 
 101   2.0000      -1.114092       -30.3160 
 102   2.0000      -1.024958       -27.8905 
 103   2.0000      -1.021323       -27.7916 
 104   2.0000      -1.019337       -27.7376 
 105   2.0000      -1.015528       -27.6339 
 106   2.0000      -1.007078       -27.4040 
 107   2.0000      -1.004738       -27.3403 
 108   2.0000      -1.004408       -27.3313 
 109   2.0000      -0.997840       -27.1526 
 110   2.0000      -0.997824       -27.1522 
 111   2.0000      -0.994265       -27.0553 
 112   2.0000      -0.984440       -26.7880 
 113   2.0000      -0.979539       -26.6546 
 114   2.0000      -0.977390       -26.5961 
 115   2.0000      -0.969069       -26.3697 
 116   2.0000      -0.948466       -25.8091 
 117   2.0000      -0.933970       -25.4146 
 118   2.0000      -0.925634       -25.1878 
 119   2.0000      -0.922574       -25.1045 
 120   2.0000      -0.917290       -24.9607 
 121   2.0000      -0.905664       -24.6444 
 122   2.0000      -0.901807       -24.5394 
 123   2.0000      -0.901143       -24.5213 
 124   2.0000      -0.898315       -24.4444 
 125   2.0000      -0.888493       -24.1771 
 126   2.0000      -0.885854       -24.1053 
 127   2.0000      -0.879599       -23.9351 
 128   2.0000      -0.873591       -23.7716 
 129   2.0000      -0.871981       -23.7278 
 130   2.0000      -0.869296       -23.6547 
 131   2.0000      -0.863979       -23.5101 
 132   2.0000      -0.858695       -23.3663 
 133   2.0000      -0.854768       -23.2594 
 134   2.0000      -0.838814       -22.8253 
 135   2.0000      -0.833833       -22.6898 
 136   2.0000      -0.826709       -22.4959 
 137   2.0000      -0.821998       -22.3677 
 138   2.0000      -0.809127       -22.0175 
 139   2.0000      -0.799544       -21.7567 
 140   2.0000      -0.788040       -21.4437 
 141   2.0000      -0.771411       -20.9912 
 142   2.0000      -0.769507       -20.9394 
 143   2.0000      -0.766335       -20.8530 
 144   2.0000      -0.761528       -20.7222 
 145   2.0000      -0.756847       -20.5949 
 146   2.0000      -0.755867       -20.5682 
 147   2.0000      -0.741921       -20.1887 
 148   2.0000      -0.730750       -19.8847 
 149   2.0000      -0.723129       -19.6773 
 150   2.0000      -0.720127       -19.5957 
 151   2.0000      -0.711566       -19.3627 
 152   2.0000      -0.709947       -19.3186 
 153   2.0000      -0.703578       -19.1453 
[...]
  54   33594.8    297.7   0.086930965   0.85188   0.05438  -0.36144   0.84752
  55   33679.6    296.9   0.079026733   0.77247  -0.48992   0.49723  -0.53405
  56   33886.4    295.1   0.081522023   0.79200  -0.80820   0.13500  -0.34727
  57   34048.9    293.7   0.035678414   0.34497  -0.02768  -0.08356   0.58070
  58   34193.7    292.5   0.088312957   0.85027   0.19298  -0.34925   0.83129
  59   34475.2    290.1   0.187025196   1.78595  -0.63861   0.60961  -1.00324
  60   34484.2    290.0   0.084088414   0.80277  -0.83500   0.32342   0.03069
  61   34604.5    289.0   0.035070460   0.33364   0.01584   0.50782  -0.27479
  62   34939.9    286.2   0.007275162   0.06855   0.01271   0.07078  -0.25175
  63   35136.1    284.6   0.048849005   0.45770   0.22098   0.24503   0.59061
  64   35181.6    284.2   0.007206880   0.06744  -0.15503   0.07894  -0.19281
  65   35510.9    281.6   0.007855163   0.07282   0.13164   0.15602  -0.17649
  66   35868.6    278.8   0.324622739   2.97947  -0.94092   0.43734  -1.37945
  67   36262.9    275.8   0.007771140   0.07055   0.25164   0.02591   0.08098
  68   36351.4    275.1   0.156103863   1.41373  -1.03575   0.53761   0.22785
  69   36834.9    271.5   0.058767006   0.52523  -0.32224   0.15254   0.63097
  70   36983.2    270.4   0.032120371   0.28592   0.24609  -0.06954   0.46961
  71   37330.5    267.9   0.140269552   1.23702  -0.81180  -0.10098  -0.75353
  72   37556.2    266.3   0.011767920   0.10316  -0.15724   0.25796   0.10904
  73   37638.0    265.7   0.011684882   0.10221  -0.20929  -0.02833  -0.24001
  74   37827.4    264.4   0.023917568   0.20815   0.20450  -0.37130   0.16873
  75   37887.4    263.9   0.019562341   0.16998  -0.00108  -0.17559  -0.37303
  76   38002.8    263.1   0.009875181   0.08555  -0.12746  -0.14226   0.22150
  77   38255.0    261.4   0.191516549   1.64814  -0.33081   0.78969  -0.95660
  78   38441.7    260.1   0.079358993   0.67962  -0.58514  -0.10994   0.57022
  79   38533.6    259.5   0.092079460   0.78668  -0.15736  -0.38071  -0.78548
  80   38638.7    258.8   0.063180070   0.53831  -0.44155   0.48796  -0.32439
  81   38824.5    257.6   0.045093552   0.38237  -0.27181   0.54218  -0.12054
  82   39025.4    256.2   0.173050314   1.45983   0.79581  -0.84360  -0.33891
  83   39167.9    255.3   0.026210611   0.22030  -0.17075   0.43011   0.07842
  84   39360.3    254.1   0.094636820   0.79155  -0.20369   0.34966  -0.79234
  85   39572.5    252.7   0.221211819   1.84031  -0.78750   0.68089   0.86979
  86   39611.4    252.5   0.164717704   1.36898  -0.54602   0.41332   0.94868
  87   39732.1    251.7   0.005175175   0.04288   0.01057   0.13473   0.15689
  88   39855.3    250.9   0.009453200   0.07809   0.01487  -0.27902  -0.00313
  89   39867.7    250.8   0.021551722   0.17797  -0.06063   0.20967   0.36101
  90   39960.7    250.2   0.014326978   0.11803  -0.16098   0.13982  -0.26939
  91   40033.9    249.8   0.060305894   0.49592   0.19276  -0.54982   0.39555
  92   40274.9    248.3   0.107535339   0.87901  -0.24287   0.66226  -0.61760

-----------------------------------------------------------------------------
         ABSORPTION SPECTRUM VIA TRANSITION VELOCITY DIPOLE MOMENTS
-----------------------------------------------------------------------------
State   Energy  Wavelength   fosc         P2         PX        PY        PZ  
        (cm-1)    (nm)                  (au**2)     (au)      (au)      (au) 
-----------------------------------------------------------------------------
   0    5778.4   1730.6   1.350547039   0.05334  -0.10091   0.20134  -0.05115
   1   13240.5    755.3   0.018141260   0.00164  -0.03426  -0.01512  -0.01547
   2   15487.3    645.7   1.111512209   0.11765   0.10361  -0.19359  -0.26351
   3   17293.6    578.3   0.469514900   0.05549  -0.11461   0.16938   0.11691
   4   18558.8    538.8   0.214793339   0.02724   0.00326   0.16384  -0.01975
   5   19183.5    521.3   0.035954643   0.00471   0.03127  -0.04885   0.03674
   6   20194.9    495.2   0.071164801   0.00982   0.03649  -0.02407   0.08895
   7   21865.2    457.3   0.023400096   0.00350  -0.02611  -0.02287   0.04788
   8   22755.1    439.5   0.019597957   0.00305   0.04357   0.02646   0.02120
   9   22819.3    438.2   0.065931609   0.01028   0.02654   0.06618   0.07211
  10   23085.3    433.2   0.009229956   0.00146  -0.02852   0.00848   0.02390
  11   23561.4    424.4   0.318165636   0.05123   0.07942  -0.03432  -0.20916
  12   24172.3    413.7   0.222669713   0.03679  -0.01236  -0.09365   0.16692
  13   24505.2    408.1   0.020713013   0.00347  -0.00395   0.00787   0.05824
  14   24667.7    405.4   0.016300694   0.00275  -0.03331   0.03005   0.02712
  15   25033.7    399.5   0.181888645   0.03112  -0.00560   0.04853  -0.16951
  16   25309.2    395.1   0.167308988   0.02894   0.01478   0.07785  -0.15053
  17   26279.9    380.5   0.002894985   0.00052   0.01813  -0.01060   0.00888
  18   26448.9    378.1   0.015224212   0.00275  -0.03953   0.03446   0.00136
  19   26495.8    377.4   0.012380732   0.00224   0.00828   0.02699  -0.03801
  20   26584.1    376.2   0.058342201   0.01060  -0.01326  -0.02802  -0.09818
  21   26794.7    373.2   0.115449658   0.02114  -0.00701  -0.01346  -0.14461
  22   27152.6    368.3   0.056654591   0.01051  -0.02421   0.06418  -0.07622
  23   27360.2    365.5   0.086560863   0.01619  -0.05364   0.05959   0.09878
  24   27788.6    359.9   0.012095590   0.00230   0.00506  -0.03806   0.02869
  25   27844.8    359.1   0.129190086   0.02459   0.09756  -0.04451   0.11440
  26   27948.4    357.8   0.047491972   0.00907   0.04778   0.06878   0.04537
  27   28127.2    355.5   0.010185834   0.00196  -0.00330   0.03404   0.02808
  28   28846.7    346.7   0.034425919   0.00679   0.06471  -0.03833   0.03362
  29   29189.7    342.6   0.031472607   0.00628  -0.02264   0.01477   0.07449
  30   29764.7    336.0   0.102791825   0.02091  -0.03443   0.05921   0.12735
  31   30005.5    333.3   0.032804152   0.00673   0.03009   0.02668  -0.07148
  32   30133.8    331.9   0.036327707   0.00748   0.03319  -0.02239   0.07667
  33   30434.9    328.6   0.026691153   0.00555   0.00879  -0.01153  -0.07309
  34   30583.8    327.0   0.001875062   0.00039   0.00161  -0.01939  -0.00368
  35   30630.4    326.5   0.016813201   0.00352   0.01826   0.02282  -0.05163
  36   31095.1    321.6   0.003291697   0.00070  -0.02162  -0.00356   0.01481
  37   31121.5    321.3   0.027641572   0.00588  -0.07150   0.02028  -0.01887
  38   31405.6    318.4   0.192055209   0.04122   0.07572  -0.16047   0.09868
  39   31579.8    316.7   0.002912288   0.00063   0.00912   0.02335  -0.00030
  40   31665.3    315.8   0.022067762   0.00478  -0.00657  -0.06341  -0.02667
  41   31732.3    315.1   0.006993924   0.00152  -0.00813   0.02081   0.03190
  42   31873.5    313.7   0.034596760   0.00754   0.00252  -0.04788   0.07237
  43   32000.1    312.5   0.009368961   0.00205   0.01475  -0.02073  -0.03744
  44   32117.8    311.4   0.031787084   0.00698   0.03783  -0.07393  -0.00899
  45   32306.2    309.5   0.082414518   0.01820  -0.07323   0.08467  -0.07527
  46   32530.4    307.4   0.038031599   0.00846  -0.02279   0.06579  -0.06007
  47   32657.6    306.2   0.258726965   0.05775  -0.08344   0.15039  -0.16783
  48   32785.8    305.0   0.081591147   0.01828  -0.00365   0.02571   0.13270
  49   33150.5    301.7   0.294385534   0.06670  -0.10702   0.17096  -0.16130
  50   33244.3    300.8   0.031398443   0.00713  -0.05554  -0.03252  -0.05469
  51   33306.9    300.2   0.004640740   0.00106   0.03123   0.00412   0.00800
  52   33336.7    300.0   0.054813320   0.01249  -0.10170  -0.01651   0.04328
  53   33437.4    299.1   0.238557339   0.05452  -0.12999   0.13816  -0.13613
  54   33594.8    297.7   0.085159518   0.01955   0.01049  -0.05755   0.12701
  55   33679.6    296.9   0.074046427   0.01704  -0.07043   0.07405  -0.08124
  56   33886.4    295.1   0.071884457   0.01665  -0.11826   0.01583  -0.04912
  57   34048.9    293.7   0.033101412   0.00770  -0.00435  -0.01185   0.08685
  58   34193.7    292.5   0.078996176   0.01846   0.02684  -0.04847   0.12406
  59   34475.2    290.1   0.166677465   0.03927  -0.09549   0.08944  -0.14884
  60   34484.2    290.0   0.080058388   0.01887  -0.12780   0.05006   0.00546
  61   34604.5    289.0   0.029635215   0.00701   0.00121   0.07528  -0.03661
  62   34939.9    286.2   0.006136201   0.00147   0.00203   0.00916  -0.03711
  63   35136.1    284.6   0.044954294   0.01080   0.03496   0.03788   0.09021
  64   35181.6    284.2   0.005034456   0.00121  -0.02101   0.00360  -0.02750
  65   35510.9    281.6   0.006287487   0.00153   0.02261   0.02215  -0.02289
  66   35868.6    278.8   0.296833986   0.07277  -0.14562   0.06496  -0.21759
  67   36262.9    275.8   0.008826417   0.00219   0.04313  -0.00444   0.01754
  68   36351.4    275.1   0.138172146   0.03433  -0.16095   0.08323   0.03867
  69   36834.9    271.5   0.053275748   0.01341  -0.05126   0.01983   0.10194
  70   36983.2    270.4   0.028560661   0.00722   0.04000  -0.00865   0.07446
  71   37330.5    267.9   0.121224736   0.03093  -0.12923  -0.01570  -0.11825
  72   37556.2    266.3   0.009882609   0.00254  -0.02451   0.04135   0.01504
  73   37638.0    265.7   0.010281500   0.00264  -0.03291  -0.00643  -0.03899
  74   37827.4    264.4   0.018320425   0.00474   0.03167  -0.05533   0.02592
  75   37887.4    263.9   0.017180160   0.00445  -0.00048  -0.02956  -0.05979
  76   38002.8    263.1   0.009242820   0.00240  -0.02138  -0.02332   0.03741
  77   38255.0    261.4   0.172010387   0.04497  -0.05269   0.13026  -0.15883
  78   38441.7    260.1   0.067116148   0.01763  -0.09339  -0.02124   0.09198
  79   38533.6    259.5   0.075044263   0.01976  -0.02558  -0.06215  -0.12348
  80   38638.7    258.8   0.056220476   0.01485  -0.07278   0.07975  -0.05648
  81   38824.5    257.6   0.034970754   0.00928  -0.04412   0.08333  -0.01972
  82   39025.4    256.2   0.151500968   0.04041   0.13127  -0.14256  -0.05339
  83   39167.9    255.3   0.022277191   0.00596  -0.02785   0.07086   0.01291
  84   39360.3    254.1   0.083577031   0.02248  -0.03497   0.06060  -0.13262
  85   39572.5    252.7   0.180928980   0.04893  -0.12882   0.10835   0.14352
  86   39611.4    252.5   0.129213906   0.03498  -0.08551   0.06326   0.15384
  87   39732.1    251.7   0.003622675   0.00098   0.00301   0.02206   0.02209
  88   39855.3    250.9   0.007029146   0.00191   0.00037  -0.04373   0.00145
  89   39867.7    250.8   0.018057060   0.00492  -0.00909   0.03077   0.06238
  90   39960.7    250.2   0.012585967   0.00344  -0.02671   0.02445  -0.04611
  91   40033.9    249.8   0.050624384   0.01385   0.03228  -0.09256   0.06514
  92   40274.9    248.3   0.090333725   0.02487  -0.03943   0.11068  -0.10517

-------------------------------------------------------------------
                             CD SPECTRUM
-------------------------------------------------------------------
State   Energy Wavelength       R         MX        MY        MZ   
        (cm-1)   (nm)       (1e40*cgs)   (au)      (au)      (au)  
-------------------------------------------------------------------
   0    5778.4   1730.6    -207.21596  -1.77678  -1.28009  -2.24016
   1   13240.5    755.3     52.99138   0.37258   0.41006  -0.25317
   2   15487.3    645.7    437.20444   7.16919   0.70378   2.85035
   3   17293.6    578.3    -200.80191  -4.17253  -0.66814  -2.50141
   4   18558.8    538.8    -152.85266   1.28144   0.31414   0.02739
   5   19183.5    521.3     17.36986  -0.77300   0.08423   0.56506
   6   20194.9    495.2    167.63769  -1.77403  -0.02040  -0.02960
   7   21865.2    457.3     27.82332  -0.97684   0.11092  -0.84170
   8   22755.1    439.5     -3.04560  -0.20825   0.22634   0.21707
   9   22819.3    438.2     75.77295  -1.10351   0.23936  -0.29063
  10   23085.3    433.2    -56.69395  -1.31269  -0.48522  -0.40529
  11   23561.4    424.4    -156.05754   3.45541  -0.27034   1.03551
  12   24172.3    413.7     43.95501  -4.18373  -0.24166  -0.58617
  13   24505.2    408.1    -78.53701  -0.82837   0.39016   0.52281
  14   24667.7    405.4     -4.02012  -0.87452   0.01022  -0.95690
  15   25033.7    399.5    -38.30363   2.87172  -0.26770  -0.20173
  16   25309.2    395.1     48.35067   4.78604   0.53412   0.95520
  17   26279.9    380.5     -3.73473   0.13622   0.32454   0.34058
  18   26448.9    378.1     43.69923   0.74593   0.18867  -0.28046
  19   26495.8    377.4    -72.16656   1.42071   0.29466  -0.50959
  20   26584.1    376.2    -101.38868   0.89129  -0.81449  -0.49850
  21   26794.7    373.2     37.81308   2.70555   0.05367  -0.08347
  22   27152.6    368.3    -22.26980   2.40921   0.59949  -0.44578
  23   27360.2    365.5     68.75941  -1.20964   0.50880  -1.32125
  24   27788.6    359.9    -41.26717  -1.73287  -0.70826   0.04577
  25   27844.8    359.1    201.57305  -2.25784   0.30009   1.08514
  26   27948.4    357.8    -214.83126   0.97001   0.74604   0.34826
  27   28127.2    355.5    -69.88497   0.89815   1.01618   0.31026
  28   28846.7    346.7     51.45573  -0.94051  -0.18766   0.70668
  29   29189.7    342.6    -15.74981  -0.74279   0.39855  -0.21303
  30   29764.7    336.0     31.33922  -1.56378   0.51459  -0.80112
  31   30005.5    333.3    -87.22799   1.55730  -0.06930  -0.07603
  32   30133.8    331.9     39.49317  -2.67463  -0.77803   0.65229
  33   30434.9    328.6     50.72893   1.34016  -0.36372   0.58974
  34   30583.8    327.0    -12.89625  -0.94534  -0.49347  -0.34264
  35   30630.4    326.5    -17.18167   1.29002   0.33887   0.47200
  36   31095.1    321.6    -24.32939  -0.89605  -0.33622  -0.40363
  37   31121.5    321.3     40.58170   0.62837   0.02638  -0.98904
  38   31405.6    318.4    -49.49141  -1.47909   0.15132   1.67893
  39   31579.8    316.7      3.97414  -0.32456   0.00945  -0.16431
  40   31665.3    315.8    -60.94062   0.00100  -0.44849  -0.21823
  41   31732.3    315.1     10.74120  -0.66488  -0.36258  -0.11833
  42   31873.5    313.7     -0.25626  -2.05778  -0.29110  -0.12257
  43   32000.1    312.5      1.66912   1.46096   0.14036   0.46016
  44   32117.8    311.4     -0.71409   0.16543   0.03013   0.85804
  45   32306.2    309.5      3.60580   3.62425   1.54844  -1.76149
  46   32530.4    307.4    -24.34669   2.22953   0.39428  -0.62554
  47   32657.6    306.2    -24.41143   6.16944   1.94326  -1.40548
  48   32785.8    305.0    -19.19903  -1.46904   0.76002  -0.10770
  49   33150.5    301.7    202.04511   5.62356   1.12920  -1.69074
  50   33244.3    300.8      4.10599   0.80511  -0.18413  -0.68968
  51   33306.9    300.2     45.27673  -0.94235  -0.50076   0.49783
  52   33336.7    300.0    -370.68241  -2.89486  -1.35956  -1.94412
  53   33437.4    299.1    160.03737   3.48479  -0.16128  -2.67695
  54   33594.8    297.7    -80.68342  -4.07573  -0.43128   0.48143
  55   33679.6    296.9    175.54472   3.54428   1.16533  -0.77193
  56   33886.4    295.1     56.63556   0.89339  -0.31906  -1.51137
  57   34048.9    293.7    -37.18775  -2.80082  -0.51682   0.06378
  58   34193.7    292.5     -0.74330  -2.25965   0.36377   0.68119
  59   34475.2    290.1    139.78793   3.26966  -0.23211  -1.63123
  60   34484.2    290.0    -58.40564  -0.57355  -0.51675  -2.08590
  61   34604.5    289.0    -103.59323   2.19669   0.97583   0.33072
  62   34939.9    286.2     11.73315   0.61556   0.25512   0.30053
  63   35136.1    284.6     43.61374  -0.87964   0.35731  -0.13239
  64   35181.6    284.2      4.79283   0.64571   0.12353  -0.36316
  65   35510.9    281.6     -8.31592   0.61862   0.10294   0.35253
  66   35868.6    278.8    -181.78872   3.27362  -0.88057  -3.07117
  67   36262.9    275.8     35.07478  -0.88083  -0.44110   1.04077
  68   36351.4    275.1    166.07275   0.36114   0.46391  -2.54498
  69   36834.9    271.5    -99.06991  -3.01598  -0.48980  -0.75580
  70   36983.2    270.4     98.61140  -2.55535  -0.34733   0.39682
  71   37330.5    267.9     21.49078   1.51349  -0.37136  -1.45977
  72   37556.2    266.3     -8.26446  -0.30647   0.30503  -0.84201
  73   37638.0    265.7      0.63779   0.61323   0.23066  -0.55069
  74   37827.4    264.4    -50.99656  -1.23334  -0.71941   1.19393
  75   37887.4    263.9     10.06453   0.95883   0.00569   0.10901
  76   38002.8    263.1     68.31013   0.83718   0.78823  -0.32032
  77   38255.0    261.4     62.97162   1.02715  -1.10596  -0.98894
  78   38441.7    260.1    -182.69726  -2.65969  -0.26283  -1.42074
  79   38533.6    259.5    186.94234   3.41358   0.28005   0.19006
  80   38638.7    258.8    -21.10167   0.95897  -0.33878  -2.09089
  81   38824.5    257.6    -15.14569   1.36668   0.63194  -0.77245
  82   39025.4    256.2     24.71055   0.22851  -0.80494   2.84946
  83   39167.9    255.3    -15.63207   0.54377   0.48119  -0.60954
  84   39360.3    254.1     38.35068   2.71101   0.05145  -0.46888
  85   39572.5    252.7     95.93193  -2.23623   0.94615  -3.23324
  86   39611.4    252.5    -101.33441  -3.37060   0.13850  -1.54717
  87   39732.1    251.7     -4.53626  -0.44250   0.44287  -0.22785
  88   39855.3    250.9    -28.94061  -0.25957  -0.45714   0.29359
  89   39867.7    250.8     36.17923  -0.72231   0.51887  -0.84781
  90   39960.7    250.2     14.28637   0.77179  -0.52647  -0.50947
  91   40033.9    249.8     13.52394  -1.74944  -0.07162   0.60792
  92   40274.9    248.3     -9.78389   2.85107   0.45001  -0.70583

sTD-DFT done

Total run time:        4.526 sec

           *** ORCA-CIS/TD-DFT FINISHED WITHOUT ERROR ***

-------------------------   --------------------
FINAL SINGLE POINT ENERGY     -4401.070347840741
-------------------------   --------------------


                            ***************************************
                            *     ORCA property calculations      *
                            ***************************************

                                    ---------------------
                                    Active property flags
                                    ---------------------
   (+) Dipole Moment


------------------------------------------------------------------------------
                       ORCA ELECTRIC PROPERTIES CALCULATION
------------------------------------------------------------------------------

Dipole Moment Calculation                       ... on
Quadrupole Moment Calculation                   ... off
Polarizability Calculation                      ... off
GBWName                                         ... xtbopt.gbw
Electron density file                           ... xtbopt.scfp
The origin for moment calculation is the CENTER OF MASS  = ( 1.130434, 22.243038  1.771191)

-------------
DIPOLE MOMENT
-------------
                                X             Y             Z
Electronic contribution:    -12.95331       3.46806     -22.54670
Nuclear contribution   :     13.55658      -2.65273      24.45218
                        -----------------------------------------
Total Dipole Moment    :      0.60327       0.81532       1.90548
                        -----------------------------------------
Magnitude (a.u.)       :      2.15860
Magnitude (Debye)      :      5.48672



--------------------
Rotational spectrum 
--------------------
 
Rotational constants in cm-1:     0.000678     0.000398     0.000278 
Rotational constants in MHz :    20.333205    11.933607     8.330024 

 Dipole components along the rotational axes: 
x,y,z [a.u.] :    -0.341232    -1.944400     0.873165 
x,y,z [Debye]:    -0.867343    -4.942272     2.219410 

 

Timings for individual modules:

Sum of individual times         ...      913.892 sec (=  15.232 min)
GTO integral calculation        ...        3.633 sec (=   0.061 min)   0.4 %
SCF iterations                  ...      905.015 sec (=  15.084 min)  99.0 %
CIS module                      ...        5.244 sec (=   0.087 min)   0.6 %
                             ****ORCA TERMINATED NORMALLY****
TOTAL RUN TIME: 0 days 0 hours 15 minutes 14 seconds 965 msec
