
                                 *****************
                                 * O   R   C   A *
                                 *****************

           --- An Ab Initio, DFT and Semiempirical electronic structure package ---

                  #######################################################
                  #                        -***-                        #
                  #          Department of theory and spectroscopy      #
                  #               Directorship: Frank Neese             #
                  #        Max Planck Institute fuer Kohlenforschung    #
                  #                Kaiser Wilhelm Platz 1               #
                  #                 D-45470 Muelheim/Ruhr               #
                  #                      Germany                        #
                  #                                                     #
                  #                  All rights reserved                #
                  #                        -***-                        #
                  #######################################################


                         Program Version 4.2.0 -  RELEASE  -


 With contributions from (in alphabetic order):
   Daniel Aravena         : Magnetic Suceptibility
   Michael Atanasov       : Ab Initio Ligand Field Theory (pilot matlab implementation)
   Alexander A. Auer      : GIAO ZORA, VPT2
   Ute Becker             : Parallelization
   Giovanni Bistoni       : ED, misc. LED, open-shell LED, HFLED
   Martin Brehm           : Molecular dynamics
   Dmytro Bykov           : SCF Hessian
   Vijay G. Chilkuri      : MRCI spin determinant printing, contributions to CSF-ICE
   Dipayan Datta          : RHF DLPNO-CCSD density
   Achintya Kumar Dutta   : EOM-CC, STEOM-CC
   Dmitry Ganyushin       : Spin-Orbit,Spin-Spin,Magnetic field MRCI
   Miquel Garcia          : C-PCM Hessian, Gaussian charge scheme
   Yang Guo               : DLPNO-NEVPT2, CIM, IAO-localization
   Andreas Hansen         : Spin unrestricted coupled pair/coupled cluster methods
   Benjamin Helmich-Paris : CASSCF linear response (MC-RPA)
   Lee Huntington         : MR-EOM, pCC
   Robert Izsak           : Overlap fitted RIJCOSX, COSX-SCS-MP3, EOM
   Christian Kollmar      : KDIIS, OOCD, Brueckner-CCSD(T), CCSD density
   Simone Kossmann        : Meta GGA functionals, TD-DFT gradient, OOMP2, MP2 Hessian
   Martin Krupicka        : AUTO-CI
   Lucas Lang             : DCDCAS
   Dagmar Lenk            : GEPOL surface, SMD
   Dimitrios Liakos       : Extrapolation schemes; Compound Job, initial MDCI parallelization
   Dimitrios Manganas     : Further ROCIS development; embedding schemes
   Dimitrios Pantazis     : SARC Basis sets
   Taras Petrenko         : DFT Hessian,TD-DFT gradient, ASA, ECA, R-Raman, ABS, FL, XAS/XES, NRVS
   Peter Pinski           : DLPNO-MP2, DLPNO-MP2 Gradient
   Christoph Reimann      : Effective Core Potentials
   Marius Retegan         : Local ZFS, SOC
   Christoph Riplinger    : Optimizer, TS searches, QM/MM, DLPNO-CCSD(T), (RO)-DLPNO pert. Triples
   Tobias Risthaus        : Range-separated hybrids, TD-DFT gradient, RPA, STAB
   Michael Roemelt        : Original ROCIS implementation
   Masaaki Saitow         : Open-shell DLPNO-CCSD energy and density
   Barbara Sandhoefer     : DKH picture change effects
   Avijit Sen             : IP-ROCIS
   Kantharuban Sivalingam : CASSCF convergence, NEVPT2, FIC-MRCI
   Bernardo de Souza      : ESD, SOC TD-DFT
   Georgi Stoychev        : AutoAux, RI-MP2 NMR
   Willem Van den Heuvel  : Paramagnetic NMR
   Boris Wezisla          : Elementary symmetry handling
   Frank Wennmohs         : Technical directorship


 We gratefully acknowledge several colleagues who have allowed us to
 interface, adapt or use parts of their codes:
   Stefan Grimme, W. Hujo, H. Kruse,             : VdW corrections, initial TS optimization,
                  C. Bannwarth                     DFT functionals, gCP, sTDA/sTD-DF
   Ed Valeev, F. Pavosevic, A. Kumar             : LibInt (2-el integral package), F12 methods
   Garnet Chan, S. Sharma, J. Yang, R. Olivares  : DMRG
   Ulf Ekstrom                                   : XCFun DFT Library
   Mihaly Kallay                                 : mrcc  (arbitrary order and MRCC methods)
   Andreas Klamt, Michael Diedenhofen            : otool_cosmo (COSMO solvation model)
   Jiri Pittner, Ondrej Demel                    : Mk-CCSD
   Frank Weinhold                                : gennbo (NPA and NBO analysis)
   Christopher J. Cramer and Donald G. Truhlar   : smd solvation model
   Lars Goerigk                                  : TD-DFT with DH, B97 family of functionals
   V. Asgeirsson, H. Jonsson                     : NEB implementation
   FAccTs GmbH                                   : IRC, NEB, NEB-TS, Multilevel, MM, QM/MM, CI optimization
   S Lehtola, MJT Oliveira, MAL Marques          : LibXC Library


 Your calculation uses the libint2 library for the computation of 2-el integrals
 For citations please refer to: http://libint.valeyev.net

 Your ORCA version has been built with support for libXC version: 4.2.3
 For citations please refer to: https://tddft.org/programs/libxc/

 This ORCA versions uses:
   CBLAS   interface :  Fast vector & matrix operations
   LAPACKE interface :  Fast linear algebra routines
   SCALAPACK package :  Parallel linear algebra routines


XCFun DFT library Copyright 2009-2010 Ulf Ekstrom and contributors.
See http://admol.org/xcfun for more information. This is free soft-
ware; see the source code for copying conditions. There is ABSOLUTELY
NO WARRANTY; not even for MERCHANTABILITY or FITNESS FOR A PARTICULAR
PURPOSE. For details see the documentation. Scientific users of this 
library should cite U. Ekstrom, L. Visscher, R. Bast, A. J. Thorvald-
sen and K. Ruud; J.Chem.Theor.Comp. 2010, DOI: 10.1021/ct100117s
XCFun Version 0.99 
----- Orbital basis set information -----
Your calculation utilizes the basis: def2-SVP
   F. Weigend and R. Ahlrichs, Phys. Chem. Chem. Phys. 7, 3297 (2005).

----- AuxJ basis set information -----
Your calculation utilizes the auxiliary basis: def2/J
   F. Weigend, Phys. Chem. Chem. Phys. 8, 1057 (2006).

================================================================================
                                        WARNINGS
                       Please study these warnings very carefully!
================================================================================

INFO   : Checking CIS options ...

WARNING: CIS/ROCIS methods need fully converged wavefunctions
  ===> : Setting SCFConvForced true
         You can overwrite this default with %scf ConvForced false 


INFO   : the flag for use of LIBINT has been found!

================================================================================
                                       INPUT FILE
================================================================================
NAME = xtbopt.inp
|  1> # ORCA input file
|  2> # SCF done       -217.920381614109          0.000797284079
|  3> ! CAM-B3LYP def2-SVP def2/J RIJCOSX Grid4 TightSCF
|  4> %maxcore 5000
|  5> %tddft
|  6>     Mode sTDDFT
|  7>     Ethresh 5.0
|  8>     maxcore 5000
|  9> end
| 10> 
| 11> %pal
| 12>   nprocs 6
| 13>   end
| 14> * xyz 0 1
| 15>    C        1.19822         0.43381        -3.20378
| 16>    C        0.97747         1.44382        -2.26629
| 17>    C        0.49783         2.75605        -2.83138
| 18>    O        0.70060         3.03434        -3.97975
| 19>    O       -0.17395         3.58726        -2.03294
| 20>    C        1.25501         1.21502        -0.90700
| 21>    C        1.06066         2.19766         0.09219
| 22>    N        0.90388         2.95797         0.93754
| 23>    C        1.77021        -0.01710        -0.48359
| 24>    C        1.97651        -0.99852        -1.42531
| 25>    C        1.68326        -0.79265        -2.78478
| 26>    C        2.00467        -2.01517        -3.51829
| 27>    C        1.67210        -2.26827        -4.82231
| 28>    C        1.00337        -1.35225        -5.66397
| 29>    N        0.44916        -0.66406        -6.39510
| 30>    C        1.88810        -3.49819        -5.48143
| 31>    N        2.01592        -4.47588        -6.06941
| 32>    C        2.61740        -2.94122        -2.58571
| 33>    C        2.53837        -2.35760        -1.23012
| 34>    O        2.90593        -2.82548        -0.17532
| 35>    C        3.31785        -4.06114        -2.95730
| 36>    C        3.84617        -5.08919        -2.16009
| 37>    C        3.56243        -5.49183        -0.85802
| 38>    C        4.28569        -6.61428        -0.48821
| 39>    C        5.15398        -7.07779        -1.50721
| 40>    S        5.03623        -6.15525        -2.92755
| 41>    C        5.86418        -8.19441        -1.01732
| 42>    C        5.43982        -8.45989         0.29865
| 43>    C        4.43020        -7.47844         0.67120
| 44>    C        3.75937        -7.40061         1.85546
| 45>    C        4.00940        -8.30449         2.91052
| 46>    N        4.22211        -9.03657         3.76681
| 47>    C        2.76205        -6.43313         2.10756
| 48>    N        1.93434        -5.67149         2.32653
| 49>    C        6.08492        -9.55589         0.86516
| 50>    C        7.01009       -10.11604        -0.00146
| 51>    S        7.07213        -9.28448        -1.54632
| 52>    C        7.86169       -11.22186         0.23899
| 53>    C        8.90419       -11.66355        -0.55666
| 54>    C        9.54631       -12.77059        -0.00757
| 55>    C        8.97493       -13.18786         1.21074
| 56>    S        7.66401       -12.20254         1.68693
| 57>    C        9.69236       -14.31306         1.68182
| 58>    C       10.72899       -14.59691         0.77409
| 59>    C       10.66726       -13.63923        -0.32012
| 60>    C       11.48846       -13.57315        -1.40715
| 61>    C       12.55361       -14.47866        -1.59661
| 62>    N       13.41848       -15.21590        -1.74803
| 63>    C       11.32375       -12.59413        -2.40976
| 64>    N       11.18788       -11.79746        -3.22294
| 65>    C       11.50261       -15.68920         1.15427
| 66>    C       11.05660       -16.25913         2.33587
| 67>    S        9.65893       -15.41111         2.99030
| 68>    C       11.59930       -17.39282         3.00522
| 69>    C       10.95854       -18.02115         4.04986
| 70>    C       11.44384       -19.13912         4.71864
| 71>    C       12.73650       -19.73166         4.37130
| 72>    C       13.53531       -19.27862         3.37921
| 73>    S       13.15114       -17.93778         2.38431
| 74>    C       12.89838       -20.83022         5.25865
| 75>    C       11.78265       -20.94515         6.09379
| 76>    C       11.91420       -22.03201         6.98890
| 77>    C       13.08929       -22.69003         6.80853
| 78>    S       14.08596       -22.03182         5.55699
| 79>    C       10.85202       -19.89166         5.76214
| 80>    C        9.58007       -19.64582         6.30690
| 81>    C        8.95257       -20.42784         7.23699
| 82>    C        7.65760       -20.14606         7.69785
| 83>    C        6.96807       -20.92389         8.59558
| 84>    C        5.62249       -20.70283         9.07781
| 85>    C        4.77877       -19.67299         8.73746
| 86>    C        3.47249       -19.52029         9.24502
| 87>    N        2.40341       -19.33144         9.62011
| 88>    C        5.07517       -18.62816         7.83996
| 89>    N        5.23421       -17.74894         7.11685
| 90>    C        5.29548       -21.78734         9.99952
| 91>    C        6.41637       -22.66110        10.08762
| 92>    C        7.49818       -22.15629         9.22473
| 93>    O        8.59508       -22.66166         9.07532
| 94>    C        6.40310       -23.77701        10.87276
| 95>    C        5.24373       -24.07895        11.62210
| 96>    C        4.11843       -23.20961        11.54161
| 97>    C        4.16295       -22.05949        10.71946
| 98>    C        2.96647       -23.51970        12.29225
| 99>    C        2.92573       -24.63512        13.08407
|100>    C        4.03435       -25.49080        13.16201
|101>    C        5.16894       -25.21831        12.44665
|102>    H        0.99362         0.65514        -4.23977
|103>    H       -0.24926         3.30986        -1.10787
|104>    H        2.00292        -0.19070         0.55625
|105>    H        3.53180        -4.16993        -4.01457
|106>    H        2.85694        -4.97938        -0.23109
|107>    H        5.91329        -9.93525         1.85652
|108>    H        9.17423       -11.18487        -1.48095
|109>    H       12.34274       -16.07036         0.60233
|110>    H       10.00360       -17.60914         4.34929
|111>    H       14.47892       -19.74032         3.13532
|112>    H       11.19952       -22.33079         7.73309
|113>    H       13.44726       -23.54617         7.34609
|114>    H        9.04872       -18.77765         5.93489
|115>    H        9.43887       -21.30656         7.62255
|116>    H        7.17826       -19.26077         7.30023
|117>    H        7.26675       -24.42383        10.92065
|118>    H        3.29326       -21.42317        10.68138
|119>    H        2.11511       -22.85789        12.22876
|120>    H        2.03823       -24.86421        13.65480
|121>    H        3.98515       -26.36688        13.79138
|122>    H        6.02601       -25.87368        12.50258
|123> *
|124> 
|125>                          ****END OF INPUT****
================================================================================

                       ****************************
                       * Single Point Calculation *
                       ****************************

---------------------------------
CARTESIAN COORDINATES (ANGSTROEM)
---------------------------------
  C      1.198220    0.433810   -3.203780
  C      0.977470    1.443820   -2.266290
  C      0.497830    2.756050   -2.831380
  O      0.700600    3.034340   -3.979750
  O     -0.173950    3.587260   -2.032940
  C      1.255010    1.215020   -0.907000
  C      1.060660    2.197660    0.092190
  N      0.903880    2.957970    0.937540
  C      1.770210   -0.017100   -0.483590
  C      1.976510   -0.998520   -1.425310
  C      1.683260   -0.792650   -2.784780
  C      2.004670   -2.015170   -3.518290
  C      1.672100   -2.268270   -4.822310
  C      1.003370   -1.352250   -5.663970
  N      0.449160   -0.664060   -6.395100
  C      1.888100   -3.498190   -5.481430
  N      2.015920   -4.475880   -6.069410
  C      2.617400   -2.941220   -2.585710
  C      2.538370   -2.357600   -1.230120
  O      2.905930   -2.825480   -0.175320
  C      3.317850   -4.061140   -2.957300
  C      3.846170   -5.089190   -2.160090
  C      3.562430   -5.491830   -0.858020
  C      4.285690   -6.614280   -0.488210
  C      5.153980   -7.077790   -1.507210
  S      5.036230   -6.155250   -2.927550
  C      5.864180   -8.194410   -1.017320
  C      5.439820   -8.459890    0.298650
  C      4.430200   -7.478440    0.671200
  C      3.759370   -7.400610    1.855460
  C      4.009400   -8.304490    2.910520
  N      4.222110   -9.036570    3.766810
  C      2.762050   -6.433130    2.107560
  N      1.934340   -5.671490    2.326530
  C      6.084920   -9.555890    0.865160
  C      7.010090  -10.116040   -0.001460
  S      7.072130   -9.284480   -1.546320
  C      7.861690  -11.221860    0.238990
  C      8.904190  -11.663550   -0.556660
  C      9.546310  -12.770590   -0.007570
  C      8.974930  -13.187860    1.210740
  S      7.664010  -12.202540    1.686930
  C      9.692360  -14.313060    1.681820
  C     10.728990  -14.596910    0.774090
  C     10.667260  -13.639230   -0.320120
  C     11.488460  -13.573150   -1.407150
  C     12.553610  -14.478660   -1.596610
  N     13.418480  -15.215900   -1.748030
  C     11.323750  -12.594130   -2.409760
  N     11.187880  -11.797460   -3.222940
  C     11.502610  -15.689200    1.154270
  C     11.056600  -16.259130    2.335870
  S      9.658930  -15.411110    2.990300
  C     11.599300  -17.392820    3.005220
  C     10.958540  -18.021150    4.049860
  C     11.443840  -19.139120    4.718640
  C     12.736500  -19.731660    4.371300
  C     13.535310  -19.278620    3.379210
  S     13.151140  -17.937780    2.384310
  C     12.898380  -20.830220    5.258650
  C     11.782650  -20.945150    6.093790
  C     11.914200  -22.032010    6.988900
  C     13.089290  -22.690030    6.808530
  S     14.085960  -22.031820    5.556990
  C     10.852020  -19.891660    5.762140
  C      9.580070  -19.645820    6.306900
  C      8.952570  -20.427840    7.236990
  C      7.657600  -20.146060    7.697850
  C      6.968070  -20.923890    8.595580
  C      5.622490  -20.702830    9.077810
  C      4.778770  -19.672990    8.737460
  C      3.472490  -19.520290    9.245020
  N      2.403410  -19.331440    9.620110
  C      5.075170  -18.628160    7.839960
  N      5.234210  -17.748940    7.116850
  C      5.295480  -21.787340    9.999520
  C      6.416370  -22.661100   10.087620
  C      7.498180  -22.156290    9.224730
  O      8.595080  -22.661660    9.075320
  C      6.403100  -23.777010   10.872760
  C      5.243730  -24.078950   11.622100
  C      4.118430  -23.209610   11.541610
  C      4.162950  -22.059490   10.719460
  C      2.966470  -23.519700   12.292250
  C      2.925730  -24.635120   13.084070
  C      4.034350  -25.490800   13.162010
  C      5.168940  -25.218310   12.446650
  H      0.993620    0.655140   -4.239770
  H     -0.249260    3.309860   -1.107870
  H      2.002920   -0.190700    0.556250
  H      3.531800   -4.169930   -4.014570
  H      2.856940   -4.979380   -0.231090
  H      5.913290   -9.935250    1.856520
  H      9.174230  -11.184870   -1.480950
  H     12.342740  -16.070360    0.602330
  H     10.003600  -17.609140    4.349290
  H     14.478920  -19.740320    3.135320
  H     11.199520  -22.330790    7.733090
  H     13.447260  -23.546170    7.346090
  H      9.048720  -18.777650    5.934890
  H      9.438870  -21.306560    7.622550
  H      7.178260  -19.260770    7.300230
  H      7.266750  -24.423830   10.920650
  H      3.293260  -21.423170   10.681380
  H      2.115110  -22.857890   12.228760
  H      2.038230  -24.864210   13.654800
  H      3.985150  -26.366880   13.791380
  H      6.026010  -25.873680   12.502580

----------------------------
CARTESIAN COORDINATES (A.U.)
----------------------------
  NO LB      ZA    FRAG     MASS         X           Y           Z
   0 C     6.0000    0    12.011    2.264308    0.819782   -6.054267
   1 C     6.0000    0    12.011    1.847151    2.728424   -4.282667
   2 C     6.0000    0    12.011    0.940762    5.208180   -5.350533
   3 O     8.0000    0    15.999    1.323942    5.734072   -7.520638
   4 O     8.0000    0    15.999   -0.328718    6.778939   -3.841700
   5 C     6.0000    0    12.011    2.371625    2.296055   -1.713982
   6 C     6.0000    0    12.011    2.004357    4.152976    0.174214
   7 N     7.0000    0    14.007    1.708086    5.589753    1.771694
   8 C     6.0000    0    12.011    3.345212   -0.032314   -0.913853
   9 C     6.0000    0    12.011    3.735063   -1.886929   -2.693446
  10 C     6.0000    0    12.011    3.180900   -1.497891   -5.262472
  11 C     6.0000    0    12.011    3.788277   -3.808119   -6.648605
  12 C     6.0000    0    12.011    3.159811   -4.286409   -9.112845
  13 C     6.0000    0    12.011    1.896095   -2.555382  -10.703352
  14 N     7.0000    0    14.007    0.848789   -1.254892  -12.084988
  15 C     6.0000    0    12.011    3.567992   -6.610621  -10.358402
  16 N     7.0000    0    14.007    3.809537   -8.458187  -11.469523
  17 C     6.0000    0    12.011    4.946169   -5.558100   -4.886284
  18 C     6.0000    0    12.011    4.796824   -4.455218   -2.324590
  19 O     8.0000    0    15.999    5.491412   -5.339383   -0.331307
  20 C     6.0000    0    12.011    6.269828   -7.674442   -5.588487
  21 C     6.0000    0    12.011    7.268208   -9.617175   -4.081979
  22 C     6.0000    0    12.011    6.732017  -10.378055   -1.621423
  23 C     6.0000    0    12.011    8.098780  -12.499178   -0.922583
  24 C     6.0000    0    12.011    9.739611  -13.375085   -2.848214
  25 S    16.0000    0    32.060    9.517095  -11.631737   -5.532268
  26 C     6.0000    0    12.011   11.081694  -15.485191   -1.922456
  27 C     6.0000    0    12.011   10.279770  -15.986875    0.564367
  28 C     6.0000    0    12.011    8.371865  -14.132204    1.268384
  29 C     6.0000    0    12.011    7.104180  -13.985126    3.506311
  30 C     6.0000    0    12.011    7.576668  -15.693212    5.500086
  31 N     7.0000    0    14.007    7.978632  -17.076642    7.118239
  32 C     6.0000    0    12.011    5.219518  -12.156854    3.982711
  33 N     7.0000    0    14.007    3.655373  -10.717563    4.396505
  34 C     6.0000    0    12.011   11.498832  -18.058015    1.634915
  35 C     6.0000    0    12.011   13.247150  -19.116545   -0.002759
  36 S    16.0000    0    32.060   13.364389  -17.545124   -2.922121
  37 C     6.0000    0    12.011   14.856441  -21.206242    0.451626
  38 C     6.0000    0    12.011   16.826481  -22.040915   -1.051935
  39 C     6.0000    0    12.011   18.039911  -24.132918   -0.014305
  40 C     6.0000    0    12.011   16.960160  -24.921444    2.287967
  41 S    16.0000    0    32.060   14.482880  -23.059459    3.187836
  42 C     6.0000    0    12.011   18.315906  -27.047764    3.178179
  43 C     6.0000    0    12.011   20.274853  -27.584162    1.462818
  44 C     6.0000    0    12.011   20.158200  -25.774409   -0.604939
  45 C     6.0000    0    12.011   21.710043  -25.649536   -2.659128
  46 C     6.0000    0    12.011   23.722885  -27.360702   -3.017156
  47 N     7.0000    0    14.007   25.357252  -28.753884   -3.303298
  48 C     6.0000    0    12.011   21.398786  -23.799457   -4.553786
  49 N     7.0000    0    14.007   21.142029  -22.293968   -6.090474
  50 C     6.0000    0    12.011   21.736783  -29.648291    2.181254
  51 C     6.0000    0    12.011   20.893946  -30.725303    4.414155
  52 S    16.0000    0    32.060   18.252732  -29.122777    5.650848
  53 C     6.0000    0    12.011   21.919500  -32.867666    5.679043
  54 C     6.0000    0    12.011   20.708639  -34.055038    7.653126
  55 C     6.0000    0    12.011   21.625724  -36.167695    8.916937
  56 C     6.0000    0    12.011   24.068497  -37.287434    8.260560
  57 C     6.0000    0    12.011   25.578029  -36.431312    6.385781
  58 S    16.0000    0    32.060   24.852053  -33.897492    4.505693
  59 C     6.0000    0    12.011   24.374406  -39.363411    9.937408
  60 C     6.0000    0    12.011   22.265982  -39.580597   11.515594
  61 C     6.0000    0    12.011   22.514575  -41.634465   13.207107
  62 C     6.0000    0    12.011   24.735173  -42.877943   12.866257
  63 S    16.0000    0    32.060   26.618607  -41.634106   10.501189
  64 C     6.0000    0    12.011   20.507346  -37.589790   10.888867
  65 C     6.0000    0    12.011   18.103709  -37.125219   11.918314
  66 C     6.0000    0    12.011   16.917905  -38.603023   13.675929
  67 C     6.0000    0    12.011   14.470767  -38.070536   14.546828
  68 C     6.0000    0    12.011   13.167744  -39.540422   16.243292
  69 C     6.0000    0    12.011   10.624966  -39.122679   17.154575
  70 C     6.0000    0    12.011    9.030567  -37.176563   16.511407
  71 C     6.0000    0    12.011    6.562055  -36.888002   17.470556
  72 N     7.0000    0    14.007    4.541787  -36.531127   18.179373
  73 C     6.0000    0    12.011    9.590681  -35.202121   14.815377
  74 N     7.0000    0    14.007    9.891223  -33.540636   13.448897
  75 C     6.0000    0    12.011   10.007007  -41.172106   18.896354
  76 C     6.0000    0    12.011   12.125182  -42.823273   19.062839
  77 C     6.0000    0    12.011   14.169507  -41.869320   17.432213
  78 O     8.0000    0    15.999   16.242347  -42.824331   17.149869
  79 C     6.0000    0    12.011   12.100105  -44.932037   20.546539
  80 C     6.0000    0    12.011    9.909214  -45.502621   21.962586
  81 C     6.0000    0    12.011    7.782705  -43.859807   21.810482
  82 C     6.0000    0    12.011    7.866835  -41.686395   20.256844
  83 C     6.0000    0    12.011    5.605816  -44.445792   23.228986
  84 C     6.0000    0    12.011    5.528828  -46.553630   24.725309
  85 C     6.0000    0    12.011    7.623817  -48.170631   24.872594
  86 C     6.0000    0    12.011    9.767881  -47.655699   23.520760
  87 H     1.0000    0     1.008    1.877670    1.238035   -8.012004
  88 H     1.0000    0     1.008   -0.471033    6.254729   -2.093571
  89 H     1.0000    0     1.008    3.784970   -0.360371    1.051160
  90 H     1.0000    0     1.008    6.674135   -7.880026   -7.586438
  91 H     1.0000    0     1.008    5.398834   -9.409665   -0.436697
  92 H     1.0000    0     1.008   11.174499  -18.774902    3.508314
  93 H     1.0000    0     1.008   17.336782  -21.136341   -2.798590
  94 H     1.0000    0     1.008   23.324398  -30.368579    1.138239
  95 H     1.0000    0     1.008   18.904064  -33.276452    8.218967
  96 H     1.0000    0     1.008   27.361194  -37.303799    5.924896
  97 H     1.0000    0     1.008   21.164026  -42.199077   14.613422
  98 H     1.0000    0     1.008   25.411639  -44.495813   13.882098
  99 H     1.0000    0     1.008   17.099603  -35.484616   11.215317
 100 H     1.0000    0     1.008   17.836879  -40.263563   14.404532
 101 H     1.0000    0     1.008   13.564946  -36.397580   13.795435
 102 H     1.0000    0     1.008   13.732167  -46.154350   20.637038
 103 H     1.0000    0     1.008    6.223359  -40.483924   20.184883
 104 H     1.0000    0     1.008    3.996979  -43.195152   23.109007
 105 H     1.0000    0     1.008    3.851696  -46.986547   25.803832
 106 H     1.0000    0     1.008    7.530842  -49.826182   26.061931
 107 H     1.0000    0     1.008   11.387509  -48.894169   23.626452

--------------------------------
INTERNAL COORDINATES (ANGSTROEM)
--------------------------------
 C      0   0   0     0.000000000000     0.00000000     0.00000000
 C      1   0   0     1.395613937556     0.00000000     0.00000000
 C      2   1   0     1.507092834101   115.37865124     0.00000000
 O      3   2   1     1.198880583670   120.49350890   337.58139893
 O      3   2   1     1.334055795722   118.57821742   156.49514863
 C      2   1   3     1.406075103151   120.02679101   182.56839166
 C      6   2   1     1.414826472823   122.86075661   179.64830817
 N      7   6   2     1.147722913860   177.47043981   161.75250481
 C      6   2   1     1.401009194295   120.52101769     0.84448457
 C      9   6   2     1.375711257786   118.40232363   359.01191742
 C      1   2   3     1.383845704260   119.56739107   177.80902661
 C     11   1   2     1.461470649243   131.79617636   179.91689739
 C     12  11   1     1.369354072291   125.39092867   348.53825296
 C     13  12  11     1.412332825116   124.23712647     2.29003558
 N     14  13  12     1.146867593535   176.29615404   192.72558726
 C     13  12  11     1.412019256526   124.63624371   185.74331316
 N     16  13  12     1.148014010759   176.29995208   163.55325388
 C     12  11   1     1.450073140155   107.71920308   173.78329430
 C     18  12  11     1.477999422666   108.36646096     6.45827579
 O     19  18  12     1.211038846611   129.05497286   178.15323950
 C     18  12  11     1.372199015085   124.24610631   195.27086052
 C     21  18  12     1.404119869883   129.48489594   186.50624815
 C     22  21  18     1.392125584170   131.76750211    18.83141310
 C     23  22  21     1.385553487311   112.18204504   176.82779424
 C     24  23  22     1.416732170948   113.14089310     0.82008185
 S     25  24  23     1.697736973061   112.42354181   358.24311553
 C     25  24  23     1.411104700758   108.52067967   178.43955630
 C     27  25  24     1.407955283700   108.78390932     0.94247449
 C     24  23  22     1.453233358343   138.29468869   180.26250689
 C     29  24  23     1.363283589500   127.60156489     1.95795364
 C     30  29  24     1.411618099523   121.70532959   180.62313596
 N     31  30  29     1.146481240405   179.50666883    52.34407747
 C     30  29  24     1.412168241677   122.79979257     1.51586902
 N     33  30  29     1.145926347808   178.34474529   137.43684693
 C     28  27  25     1.392229718868   112.89879220   179.69401223
 C     35  28  27     1.385906842396   111.90392010     0.82813454
 S     27  25  24     1.710916949299   138.77787427   181.53971457
 C     36  35  28     1.416289742567   127.64792168   178.90879502
 C     38  36  35     1.383819073651   127.19859007   189.43329029
 C     39  38  36     1.392607440774   111.98667716   179.08983744
 C     40  39  38     1.408853652229   112.91738800     0.82513280
 S     41  40  39     1.707666145621   112.43187305   359.17553818
 C     41  40  39     1.415166849280   108.52661600   179.86216498
 C     43  41  40     1.406821357636   108.61433614     0.85141239
 C     40  39  38     1.452154211714   138.29461387   181.53091958
 C     45  40  39     1.363953894859   127.39503644   359.49434402
 C     46  45  40     1.410811105074   122.03863119   179.76809216
 N     47  46  45     1.146495072340   179.85093885     0.36435774
 C     46  45  40     1.410970005564   121.98147824   359.79552214
 N     49  46  45     1.146475232266   179.86109311     4.47577279
 C     44  43  41     1.391446075455   113.06491303   179.64675411
 C     51  44  43     1.385613107978   112.14313559     0.91059683
 S     43  41  40     1.708493862383   139.11576432   181.67013616
 C     52  51  44     1.424010438375   127.27393619   179.30649746
 C     54  52  51     1.377187240756   122.85079771   191.20797112
 C     55  54  52     1.390194122884   124.70761381   179.12381088
 C     56  55  54     1.463802788220   121.30889637     1.67177608
 C     57  56  55     1.351882104993   124.07537844   358.42015066
 S     58  57  56     1.713261364912   123.77482342     0.18830183
 C     57  56  55     1.421418035097   105.38424082   179.53557561
 C     60  57  56     1.398399498498   110.21080659     0.97548435
 C     61  60  57     1.414140012234   111.52841972   179.95535237
 C     62  61  60     1.358808362279   111.63013963   359.87202903
 S     60  57  56     1.715574414591   136.77878748   180.65065162
 C     56  55  54     1.416142511896   129.48956714   182.69143321
 C     65  56  55     1.405367413063   124.81345076     2.04395400
 C     66  65  56     1.367617979737   125.37041608   174.37966876
 C     67  66  65     1.403117674645   122.14093877   182.50046407
 C     68  67  66     1.373459239548   124.35351517   177.72079100
 C     69  68  67     1.446374375084   126.75682185   181.75804506
 C     70  69  68     1.374144092335   127.09747591   359.68575271
 C     71  70  69     1.409716951022   124.12139429   179.80582340
 N     72  71  70     1.148603011053   176.24870478   176.80028491
 C     71  70  69     1.408910550354   125.75944331     0.10100195
 N     74  71  70     1.149438820512   175.63824462   174.45872776
 C     70  69  68     1.460358450621   107.77308705   179.17653062
 C     76  70  69     1.423942604075   108.57083309     0.07689184
 C     77  76  70     1.472998697997   109.36496293     0.17700614
 O     78  77  76     1.216927193796   126.26999400   179.54250655
 C     77  76  70     1.364505786210   121.99001094   180.39403732
 C     80  77  76     1.413087752441   119.19948609     0.04173719
 C     81  80  77     1.424264991390   119.19883396   359.87202370
 C     76  70  69     1.369307645126   131.65496697   180.41807933
 C     82  81  80     1.409477938564   118.77400736   179.96742821
 C     84  82  81     1.368502991009   120.78328598   359.94692332
 C     85  84  82     1.402605151281   120.38877245     0.02411809
 C     86  85  84     1.368680093302   120.31241522     0.00000000
 H      1   2   3     1.078945507892   117.81025161   358.74988335
 H      5   3   2     0.968698539795   115.61197080     4.49421239
 H      9   6   2     1.079610174878   120.78146322   178.79809244
 H     21  18  12     1.084172366139   116.53269938     8.68618433
 H     23  22  21     1.073947097161   122.81177871   357.09188843
 H     35  28  27     1.075251373447   125.37621038   180.14907142
 H     39  38  36     1.075345594728   122.77218573   359.70502564
 H     51  44  43     1.075053080596   124.92715821   180.07260408
 H     55  54  52     1.082275828336   116.53219421     0.00000000
 H     58  57  56     1.078447520374   122.64970268   180.73437390
 H     62  61  60     1.074176776373   126.18580611   179.73800324
 H     63  62  61     1.072422013062   127.49740403   179.99229495
 H     66  65  56     1.083717403893   116.79702272   356.07993566
 H     67  66  65     1.075775553729   120.22527130     0.87252386
 H     68  67  66     1.082407910217   116.89185811   358.57865420
 H     80  77  76     1.080074482154   120.49724263   179.92679907
 H     83  76  70     1.078292133376   122.08822587   359.57353033
 H     84  82  81     1.080202437416   118.55865572   179.98833341
 H     85  84  82     1.079755162525   120.21423388   180.03697671
 H     86  85  84     1.079834896315   119.42775644   180.02510520
 H     87  86  85     1.080373540355   120.65038246   180.00304091

---------------------------
INTERNAL COORDINATES (A.U.)
---------------------------
 C      0   0   0     0.000000000000     0.00000000     0.00000000
 C      1   0   0     2.637328130664     0.00000000     0.00000000
 C      2   1   0     2.847992714847   115.37865124     0.00000000
 O      3   2   1     2.265555970411   120.49350890   337.58139893
 O      3   2   1     2.521000101285   118.57821742   156.49514863
 C      2   1   3     2.657096868680   120.02679101   182.56839166
 C      6   2   1     2.673634560657   122.86075661   179.64830817
 N      7   6   2     2.168881984822   177.47043981   161.75250481
 C      6   2   1     2.647523688324   120.52101769     0.84448457
 C      9   6   2     2.599717516568   118.40232363   359.01191742
 C      1   2   3     2.615089392656   119.56739107   177.80902661
 C     11   1   2     2.761779279834   131.79617636   179.91689739
 C     12  11   1     2.587704177000   125.39092867   348.53825296
 C     13  12  11     2.668922249416   124.23712647     2.29003558
 N     14  13  12     2.167265663650   176.29615404   192.72558726
 C     13  12  11     2.668329690657   124.63624371   185.74331316
 N     16  13  12     2.169432078240   176.29995208   163.55325388
 C     12  11   1     2.740241109049   107.71920308   173.78329430
 C     18  12  11     2.793014134932   108.36646096     6.45827579
 O     19  18  12     2.288531757634   129.05497286   178.15323950
 C     18  12  11     2.593080339747   124.24610631   195.27086052
 C     21  18  12     2.653402013276   129.48489594   186.50624815
 C     22  21  18     2.630736098106   131.76750211    18.83141310
 C     23  22  21     2.618316634918   112.18204504   176.82779424
 C     24  23  22     2.677235808208   113.14089310     0.82008185
 S     25  24  23     3.208257926519   112.42354181   358.24311553
 C     25  24  23     2.666601430721   108.52067967   178.43955630
 C     27  25  24     2.660649895001   108.78390932     0.94247449
 C     24  23  22     2.746213055946   138.29468869   180.26250689
 C     29  24  23     2.576232627024   127.60156489     1.95795364
 C     30  29  24     2.667571613784   121.70532959   180.62313596
 N     31  30  29     2.166535562043   179.50666883    52.34407747
 C     30  29  24     2.668611231790   122.79979257     1.51586902
 N     33  30  29     2.165486967001   178.34474529   137.43684693
 C     28  27  25     2.630932884167   112.89879220   179.69401223
 C     35  28  27     2.618984379256   111.90392010     0.82813454
 S     27  25  24     3.233164472060   138.77787427   181.53971457
 C     36  35  28     2.676399739733   127.64792168   178.90879502
 C     38  36  35     2.615039068097   127.19859007   189.43329029
 C     39  38  36     2.631646675124   111.98667716   179.08983744
 C     40  39  38     2.662347565488   112.91738800     0.82513280
 S     41  40  39     3.227021343393   112.43187305   359.17553818
 C     41  40  39     2.674277778943   108.52661600   179.86216498
 C     43  41  40     2.658507085283   108.61433614     0.85141239
 C     40  39  38     2.744173764361   138.29461387   181.53091958
 C     45  40  39     2.577499320578   127.39503644   359.49434402
 C     46  45  40     2.666046615285   122.03863119   179.76809216
 N     47  46  45     2.166561700613   179.85093885     0.36435774
 C     46  45  40     2.666346893692   121.98147824   359.79552214
 N     49  46  45     2.166524208307   179.86109311     4.47577279
 C     44  43  41     2.629452012730   113.06491303   179.64675411
 C     51  44  43     2.618429301650   112.14313559     0.91059683
 S     43  41  40     3.228585501389   139.11576432   181.67013616
 C     52  51  44     2.690989740373   127.27393619   179.30649746
 C     54  52  51     2.602506720159   122.85079771   191.20797112
 C     55  54  52     2.627086165237   124.70761381   179.12381088
 C     56  55  54     2.766186383806   121.30889637     1.67177608
 C     57  56  55     2.554686943786   124.07537844   358.42015066
 S     58  57  56     3.237594775512   123.77482342     0.18830183
 C     57  56  55     2.686090808150   105.38424082   179.53557561
 C     60  57  56     2.642592077974   110.21080659     0.97548435
 C     61  60  57     2.672337338142   111.52841972   179.95535237
 C     62  61  60     2.567775673190   111.63013963   359.87202903
 S     60  57  56     3.241965805940   136.77878748   180.65065162
 C     56  55  54     2.676121514087   129.48956714   182.69143321
 C     65  56  55     2.655759528227   124.81345076     2.04395400
 C     66  65  56     2.584423437530   125.37041608   174.37966876
 C     67  66  65     2.651508138743   122.14093877   182.50046407
 C     68  67  66     2.595461818850   124.35351517   177.72079100
 C     69  68  67     2.733251456030   126.75682185   181.75804506
 C     70  69  68     2.596756003060   127.09747591   359.68575271
 C     71  70  69     2.663978963779   124.12139429   179.80582340
 N     72  71  70     2.170545127487   176.24870478   176.80028491
 C     71  70  69     2.662455087362   125.75944331     0.10100195
 N     74  71  70     2.172124578465   175.63824462   174.45872776
 C     70  69  68     2.759677529031   107.77308705   179.17653062
 C     76  70  69     2.690861552124   108.57083309     0.07689184
 C     77  76  70     2.783564134836   109.36496293     0.17700614
 O     78  77  76     2.299659121196   126.26999400   179.54250655
 C     77  76  70     2.578542244087   121.99001094   180.39403732
 C     80  77  76     2.670348855313   119.19948609     0.04173719
 C     81  80  77     2.691470775859   119.19883396   359.87202370
 C     76  70  69     2.587616442372   131.65496697   180.41807933
 C     82  81  80     2.663527295691   118.77400736   179.96742821
 C     84  82  81     2.586095866459   120.78328598   359.94692332
 C     85  84  82     2.650539609948   120.38877245     0.02411809
 C     86  85  84     2.586430541290   120.31241522     0.00000000
 H      1   2   3     2.038911523340   117.81025161   358.74988335
 H      5   3   2     1.830574946541   115.61197080     4.49421239
 H      9   6   2     2.040167561914   120.78146322   178.79809244
 H     21  18  12     2.048788853969   116.53269938     8.68618433
 H     23  22  21     2.029465895954   122.81177871   357.09188843
 H     35  28  27     2.031930620938   125.37621038   180.14907142
 H     39  38  36     2.032108673354   122.77218573   359.70502564
 H     51  44  43     2.031555901756   124.92715821   180.07260408
 H     55  54  52     2.045204916917   116.53219421     0.00000000
 H     58  57  56     2.037970463313   122.64970268   180.73437390
 H     62  61  60     2.029899926764   126.18580611   179.73800324
 H     63  62  61     2.026583904676   127.49740403   179.99229495
 H     66  65  56     2.047929099921   116.79702272   356.07993566
 H     67  66  65     2.032921178114   120.22527130     0.87252386
 H     68  67  66     2.045454515500   116.89185811   358.57865420
 H     80  77  76     2.041044975508   120.49724263   179.92679907
 H     83  76  70     2.037676824442   122.08822587   359.57353033
 H     84  82  81     2.041286775911   118.55865572   179.98833341
 H     85  84  82     2.040441548860   120.21423388   180.03697671
 H     86  85  84     2.040592223887   119.42775644   180.02510520
 H     87  86  85     2.041610113607   120.65038246   180.00304091

---------------------
BASIS SET INFORMATION
---------------------
There are 5 groups of distinct atoms

 Group   1 Type C   : 7s4p1d contracted to 3s2p1d pattern {511/31/1}
 Group   2 Type O   : 7s4p1d contracted to 3s2p1d pattern {511/31/1}
 Group   3 Type N   : 7s4p1d contracted to 3s2p1d pattern {511/31/1}
 Group   4 Type S   : 10s7p1d contracted to 4s3p1d pattern {5311/511/1}
 Group   5 Type H   : 4s1p contracted to 2s1p pattern {31/1}

Atom   0C    basis set group =>   1
Atom   1C    basis set group =>   1
Atom   2C    basis set group =>   1
Atom   3O    basis set group =>   2
Atom   4O    basis set group =>   2
Atom   5C    basis set group =>   1
Atom   6C    basis set group =>   1
Atom   7N    basis set group =>   3
Atom   8C    basis set group =>   1
Atom   9C    basis set group =>   1
Atom  10C    basis set group =>   1
Atom  11C    basis set group =>   1
Atom  12C    basis set group =>   1
Atom  13C    basis set group =>   1
Atom  14N    basis set group =>   3
Atom  15C    basis set group =>   1
Atom  16N    basis set group =>   3
Atom  17C    basis set group =>   1
Atom  18C    basis set group =>   1
Atom  19O    basis set group =>   2
Atom  20C    basis set group =>   1
Atom  21C    basis set group =>   1
Atom  22C    basis set group =>   1
Atom  23C    basis set group =>   1
Atom  24C    basis set group =>   1
Atom  25S    basis set group =>   4
Atom  26C    basis set group =>   1
Atom  27C    basis set group =>   1
Atom  28C    basis set group =>   1
Atom  29C    basis set group =>   1
Atom  30C    basis set group =>   1
Atom  31N    basis set group =>   3
Atom  32C    basis set group =>   1
Atom  33N    basis set group =>   3
Atom  34C    basis set group =>   1
Atom  35C    basis set group =>   1
Atom  36S    basis set group =>   4
Atom  37C    basis set group =>   1
Atom  38C    basis set group =>   1
Atom  39C    basis set group =>   1
Atom  40C    basis set group =>   1
Atom  41S    basis set group =>   4
Atom  42C    basis set group =>   1
Atom  43C    basis set group =>   1
Atom  44C    basis set group =>   1
Atom  45C    basis set group =>   1
Atom  46C    basis set group =>   1
Atom  47N    basis set group =>   3
Atom  48C    basis set group =>   1
Atom  49N    basis set group =>   3
Atom  50C    basis set group =>   1
Atom  51C    basis set group =>   1
Atom  52S    basis set group =>   4
Atom  53C    basis set group =>   1
Atom  54C    basis set group =>   1
Atom  55C    basis set group =>   1
Atom  56C    basis set group =>   1
Atom  57C    basis set group =>   1
Atom  58S    basis set group =>   4
Atom  59C    basis set group =>   1
Atom  60C    basis set group =>   1
Atom  61C    basis set group =>   1
Atom  62C    basis set group =>   1
Atom  63S    basis set group =>   4
Atom  64C    basis set group =>   1
Atom  65C    basis set group =>   1
Atom  66C    basis set group =>   1
Atom  67C    basis set group =>   1
Atom  68C    basis set group =>   1
Atom  69C    basis set group =>   1
Atom  70C    basis set group =>   1
Atom  71C    basis set group =>   1
Atom  72N    basis set group =>   3
Atom  73C    basis set group =>   1
Atom  74N    basis set group =>   3
Atom  75C    basis set group =>   1
Atom  76C    basis set group =>   1
Atom  77C    basis set group =>   1
Atom  78O    basis set group =>   2
Atom  79C    basis set group =>   1
Atom  80C    basis set group =>   1
Atom  81C    basis set group =>   1
Atom  82C    basis set group =>   1
Atom  83C    basis set group =>   1
Atom  84C    basis set group =>   1
Atom  85C    basis set group =>   1
Atom  86C    basis set group =>   1
Atom  87H    basis set group =>   5
Atom  88H    basis set group =>   5
Atom  89H    basis set group =>   5
Atom  90H    basis set group =>   5
Atom  91H    basis set group =>   5
Atom  92H    basis set group =>   5
Atom  93H    basis set group =>   5
Atom  94H    basis set group =>   5
Atom  95H    basis set group =>   5
Atom  96H    basis set group =>   5
Atom  97H    basis set group =>   5
Atom  98H    basis set group =>   5
Atom  99H    basis set group =>   5
Atom 100H    basis set group =>   5
Atom 101H    basis set group =>   5
Atom 102H    basis set group =>   5
Atom 103H    basis set group =>   5
Atom 104H    basis set group =>   5
Atom 105H    basis set group =>   5
Atom 106H    basis set group =>   5
Atom 107H    basis set group =>   5
---------------------------------
AUXILIARY/J BASIS SET INFORMATION
---------------------------------
There are 5 groups of distinct atoms

 Group   1 Type C   : 12s5p4d2f1g contracted to 6s4p3d1f1g pattern {711111/2111/211/2/1}
 Group   2 Type O   : 12s5p4d2f1g contracted to 6s4p3d1f1g pattern {711111/2111/211/2/1}
 Group   3 Type N   : 12s5p4d2f1g contracted to 6s4p3d1f1g pattern {711111/2111/211/2/1}
 Group   4 Type S   : 14s5p5d2f1g contracted to 8s4p3d1f1g pattern {71111111/2111/311/2/1}
 Group   5 Type H   : 5s2p1d contracted to 3s1p1d pattern {311/2/1}

Atom   0C    basis set group =>   1
Atom   1C    basis set group =>   1
Atom   2C    basis set group =>   1
Atom   3O    basis set group =>   2
Atom   4O    basis set group =>   2
Atom   5C    basis set group =>   1
Atom   6C    basis set group =>   1
Atom   7N    basis set group =>   3
Atom   8C    basis set group =>   1
Atom   9C    basis set group =>   1
Atom  10C    basis set group =>   1
Atom  11C    basis set group =>   1
Atom  12C    basis set group =>   1
Atom  13C    basis set group =>   1
Atom  14N    basis set group =>   3
Atom  15C    basis set group =>   1
Atom  16N    basis set group =>   3
Atom  17C    basis set group =>   1
Atom  18C    basis set group =>   1
Atom  19O    basis set group =>   2
Atom  20C    basis set group =>   1
Atom  21C    basis set group =>   1
Atom  22C    basis set group =>   1
Atom  23C    basis set group =>   1
Atom  24C    basis set group =>   1
Atom  25S    basis set group =>   4
Atom  26C    basis set group =>   1
Atom  27C    basis set group =>   1
Atom  28C    basis set group =>   1
Atom  29C    basis set group =>   1
Atom  30C    basis set group =>   1
Atom  31N    basis set group =>   3
Atom  32C    basis set group =>   1
Atom  33N    basis set group =>   3
Atom  34C    basis set group =>   1
Atom  35C    basis set group =>   1
Atom  36S    basis set group =>   4
Atom  37C    basis set group =>   1
Atom  38C    basis set group =>   1
Atom  39C    basis set group =>   1
Atom  40C    basis set group =>   1
Atom  41S    basis set group =>   4
Atom  42C    basis set group =>   1
Atom  43C    basis set group =>   1
Atom  44C    basis set group =>   1
Atom  45C    basis set group =>   1
Atom  46C    basis set group =>   1
Atom  47N    basis set group =>   3
Atom  48C    basis set group =>   1
Atom  49N    basis set group =>   3
Atom  50C    basis set group =>   1
Atom  51C    basis set group =>   1
Atom  52S    basis set group =>   4
Atom  53C    basis set group =>   1
Atom  54C    basis set group =>   1
Atom  55C    basis set group =>   1
Atom  56C    basis set group =>   1
Atom  57C    basis set group =>   1
Atom  58S    basis set group =>   4
Atom  59C    basis set group =>   1
Atom  60C    basis set group =>   1
Atom  61C    basis set group =>   1
Atom  62C    basis set group =>   1
Atom  63S    basis set group =>   4
Atom  64C    basis set group =>   1
Atom  65C    basis set group =>   1
Atom  66C    basis set group =>   1
Atom  67C    basis set group =>   1
Atom  68C    basis set group =>   1
Atom  69C    basis set group =>   1
Atom  70C    basis set group =>   1
Atom  71C    basis set group =>   1
Atom  72N    basis set group =>   3
Atom  73C    basis set group =>   1
Atom  74N    basis set group =>   3
Atom  75C    basis set group =>   1
Atom  76C    basis set group =>   1
Atom  77C    basis set group =>   1
Atom  78O    basis set group =>   2
Atom  79C    basis set group =>   1
Atom  80C    basis set group =>   1
Atom  81C    basis set group =>   1
Atom  82C    basis set group =>   1
Atom  83C    basis set group =>   1
Atom  84C    basis set group =>   1
Atom  85C    basis set group =>   1
Atom  86C    basis set group =>   1
Atom  87H    basis set group =>   5
Atom  88H    basis set group =>   5
Atom  89H    basis set group =>   5
Atom  90H    basis set group =>   5
Atom  91H    basis set group =>   5
Atom  92H    basis set group =>   5
Atom  93H    basis set group =>   5
Atom  94H    basis set group =>   5
Atom  95H    basis set group =>   5
Atom  96H    basis set group =>   5
Atom  97H    basis set group =>   5
Atom  98H    basis set group =>   5
Atom  99H    basis set group =>   5
Atom 100H    basis set group =>   5
Atom 101H    basis set group =>   5
Atom 102H    basis set group =>   5
Atom 103H    basis set group =>   5
Atom 104H    basis set group =>   5
Atom 105H    basis set group =>   5
Atom 106H    basis set group =>   5
Atom 107H    basis set group =>   5


           ************************************************************
           *        Program running with 6 parallel MPI-processes     *
           *              working on a common directory               *
           ************************************************************
------------------------------------------------------------------------------
                           ORCA GTO INTEGRAL CALCULATION
                           -- RI-GTO INTEGRALS CHOSEN --
------------------------------------------------------------------------------

                         BASIS SET STATISTICS AND STARTUP INFO

Gaussian basis set:
 # of primitive gaussian shells          ... 1185
 # of primitive gaussian functions       ... 2307
 # of contracted shells                  ...  597
 # of contracted basis functions         ... 1347
 Highest angular momentum                ...    2
 Maximum contraction depth               ...    5
Auxiliary gaussian basis set:
 # of primitive gaussian shells          ... 2274
 # of primitive gaussian functions       ... 6468
 # of contracted shells                  ... 1422
 # of contracted aux-basis functions     ... 4506
 Highest angular momentum                ...    4
 Maximum contraction depth               ...    7
Ratio of auxiliary to basis functions    ...  3.35
Integral package used                  ... LIBINT
 One Electron integrals                  ... done
 Ordering auxiliary basis shells         ... done
 Integral threshhold             Thresh  ...  2.500e-11
 Primitive cut-off               TCut    ...  2.500e-12
 Pre-screening matrix                    ... done
 Shell pair data                         ... 
 Ordering of the shell pairs             ... done (   0.009 sec) 45232 of 178503 pairs
 Determination of significant pairs      ... done (   0.000 sec)
 Creation of shell pair data             ... done (   0.005 sec)
 Storage of shell pair data              ... done (   0.400 sec)
 Shell pair data done in (   0.414 sec)
 Computing two index integrals           ... done
 Cholesky decomposition of the V-matrix  ... done


Timings:
 Total evaluation time                   ...   4.318 sec (  0.072 min)
 One electron matrix time                ...   0.823 sec (  0.014 min) = 19.0%
 Schwartz matrix evaluation time         ...   0.813 sec (  0.014 min) = 18.8%
 Two index repulsion integral time       ...   0.491 sec (  0.008 min) = 11.4%
 Cholesky decomposition of V             ...   1.761 sec (  0.029 min) = 40.8%
 Three index repulsion integral time     ...   0.000 sec (  0.000 min) =  0.0%



           ************************************************************
           *        Program running with 6 parallel MPI-processes     *
           *              working on a common directory               *
           ************************************************************
-------------------------------------------------------------------------------
                                 ORCA SCF
-------------------------------------------------------------------------------

------------
SCF SETTINGS
------------
Hamiltonian:
 Density Functional     Method          .... DFT(GTOs)
 Exchange Functional    Exchange        .... WB88
 Correlation Functional Correlation     .... LYP
 LDA part of GGA corr.  LDAOpt          .... VWN-5
 Gradients option       PostSCFGGA      .... off
 Hybrid DFT is turned on
   Fraction HF Exchange ScalHFX         ....  0.190000
   Scaling of DF-GGA-X  ScalDFX         ....  0.350000
   Scaling of DF-GGA-C  ScalDFC         ....  0.810000
   Scaling of DF-LDA-C  ScalLDAC        ....  1.000000
   Perturbative correction              ....  0.000000
   Density functional embedding theory  .... OFF
 Long-range corrected/Screened/Range-Separated Hybrid DFT is turned on
   Amount of maximum screened exact exchange              ....  0.460000
   Range separation parameter mu (erf(mu*r12)/r12)        ....  0.330000
 RI-approximation to the Coulomb term is turned on
   Number of auxiliary basis functions  .... 4506
   RIJ-COSX (HFX calculated with COS-X)).... on


General Settings:
 Integral files         IntName         .... xtbopt
 Hartree-Fock type      HFTyp           .... RHF
 Total Charge           Charge          ....    0
 Multiplicity           Mult            ....    1
 Number of Electrons    NEL             ....  620
 Basis Dimension        Dim             .... 1347
 Nuclear Repulsion      ENuc            ....  12790.1000217884 Eh

Convergence Acceleration:
 DIIS                   CNVDIIS         .... on
   Start iteration      DIISMaxIt       ....    12
   Startup error        DIISStart       ....  0.200000
   # of expansion vecs  DIISMaxEq       ....     5
   Bias factor          DIISBfac        ....   1.050
   Max. coefficient     DIISMaxC        ....  10.000
 Newton-Raphson         CNVNR           .... off
 SOSCF                  CNVSOSCF        .... on
   Start iteration      SOSCFMaxIt      ....   150
   Startup grad/error   SOSCFStart      ....  0.003300
 Level Shifting         CNVShift        .... on
   Level shift para.    LevelShift      ....    0.2500
   Turn off err/grad.   ShiftErr        ....    0.0010
 Zerner damping         CNVZerner       .... off
 Static damping         CNVDamp         .... on
   Fraction old density DampFac         ....    0.7000
   Max. Damping (<1)    DampMax         ....    0.9800
   Min. Damping (>=0)   DampMin         ....    0.0000
   Turn off err/grad.   DampErr         ....    0.1000
 Fernandez-Rico         CNVRico         .... off

SCF Procedure:
 Maximum # iterations   MaxIter         ....   125
 SCF integral mode      SCFMode         .... Direct
   Integral package                     .... LIBINT
 Reset frequency        DirectResetFreq ....    20
 Integral Threshold     Thresh          ....  2.500e-11 Eh
 Primitive CutOff       TCut            ....  2.500e-12 Eh

Convergence Tolerance:
 Convergence Check Mode ConvCheckMode   .... Total+1el-Energy
 Convergence forced     ConvForced      .... 1
 Energy Change          TolE            ....  1.000e-08 Eh
 1-El. energy change                    ....  1.000e-05 Eh
 Orbital Gradient       TolG            ....  1.000e-05
 Orbital Rotation angle TolX            ....  1.000e-05
 DIIS Error             TolErr          ....  5.000e-07


Diagonalization of the overlap matrix:
Smallest eigenvalue                        ... 1.968e-04
Time for diagonalization                   ...    0.563 sec
Threshold for overlap eigenvalues          ... 1.000e-08
Number of eigenvalues below threshold      ... 0
Time for construction of square roots      ...    0.506 sec
Total time needed                          ...    1.071 sec

-------------------
DFT GRID GENERATION
-------------------

General Integration Accuracy     IntAcc      ...  4.670
Radial Grid Type                 RadialGrid  ... Gauss-Chebyshev
Angular Grid (max. acc.)         AngularGrid ... Lebedev-302
Angular grid pruning method      GridPruning ... 3 (G Style)
Weight generation scheme         WeightScheme... Becke
Basis function cutoff            BFCut       ...    1.0000e-11
Integration weight cutoff        WCut        ...    1.0000e-14
Grids for H and He will be reduced by one unit

# of grid points (after initial pruning)     ... 615522 (   0.0 sec)
# of grid points (after weights+screening)   ... 533344 (   9.7 sec)
nearest neighbour list constructed           ...    0.0 sec
Grid point re-assignment to atoms done       ...    0.1 sec
Grid point division into batches done        ...    2.1 sec
Reduced shell lists constructed in    3.0 sec

Total number of grid points                  ...   533344
Total number of batches                      ...     8385
Average number of points per batch           ...       63
Average number of grid points per atom       ...     4938
Average number of shells per batch           ...    74.27 (12.44%)
Average number of basis functions per batch  ...   161.28 (11.97%)
Average number of large shells per batch     ...    48.03 (64.67%)
Average number of large basis fcns per batch ...   104.91 (65.05%)
Maximum spatial batch extension              ...  21.14, 20.41, 18.81 au
Average spatial batch extension              ...   0.41,  0.38,  0.37 au

Time for grid setup =   13.783 sec

------------------------------
INITIAL GUESS: MODEL POTENTIAL
------------------------------
Loading Hartree-Fock densities                     ... done
Calculating cut-offs                               ... done
Setting up the integral package                    ... done
Initializing the effective Hamiltonian             ... done
Starting the Coulomb interaction                   ... done (   1.5 sec)
Reading the grid                                   ... done
Mapping shells                                     ... done
Starting the XC term evaluation                    ... done (   2.2 sec)
  promolecular density results
     # of electrons  =    619.989946557
     EX              =   -594.866602642
     EC              =    -21.518711563
     EX+EC           =   -616.385314205
Transforming the Hamiltonian                       ... done (   0.3 sec)
Diagonalizing the Hamiltonian                      ... done (   0.6 sec)
Back transforming the eigenvectors                 ... done (   0.2 sec)
Now organizing SCF variables                       ... done
                      ------------------
                      INITIAL GUESS DONE (  18.7 sec)
                      ------------------
--------------------
COSX GRID GENERATION
--------------------

General Integration Accuracy     IntAcc      ...  3.340
Radial Grid Type                 RadialGrid  ... Gauss-Chebyshev
Angular Grid (max. acc.)         AngularGrid ... Lebedev-50
Angular grid pruning method      GridPruning ... 3 (G Style)
Weight generation scheme         WeightScheme... Becke
Basis function cutoff            BFCut       ...    1.0000e-11
Integration weight cutoff        WCut        ...    1.0000e-14
Grids for H and He will be reduced by one unit

# of grid points (after initial pruning)     ...  57810 (   0.0 sec)
# of grid points (after weights+screening)   ...  52277 (   0.8 sec)
nearest neighbour list constructed           ...    0.0 sec
Grid point re-assignment to atoms done       ...    0.0 sec
Grid point division into batches done        ...    0.0 sec
Reduced shell lists constructed in    0.1 sec

Total number of grid points                  ...    52277
Total number of batches                      ...      870
Average number of points per batch           ...       60
Average number of grid points per atom       ...      484
Average number of shells per batch           ...    89.95 (15.07%)
Average number of basis functions per batch  ...   197.71 (14.68%)
Average number of large shells per batch     ...    57.97 (64.45%)
Average number of large basis fcns per batch ...   128.55 (65.02%)
Maximum spatial batch extension              ...  29.08, 15.93, 16.79 au
Average spatial batch extension              ...   0.96,  0.74,  0.71 au

Overlap Fitting                  UseSFitting ... on
Constructing numerical overlap ... done (      0.2 sec)
Inverting numerical overlap    ... done (      0.2 sec)
Obtaining analytic overlap     ... done (      0.0 sec)
Final contraction and storage  ... done (      0.6 sec)


General Integration Accuracy     IntAcc      ...  3.670
Radial Grid Type                 RadialGrid  ... Gauss-Chebyshev
Angular Grid (max. acc.)         AngularGrid ... Lebedev-50
Angular grid pruning method      GridPruning ... 3 (G Style)
Weight generation scheme         WeightScheme... Becke
Basis function cutoff            BFCut       ...    1.0000e-11
Integration weight cutoff        WCut        ...    1.0000e-14
Grids for H and He will be reduced by one unit

# of grid points (after initial pruning)     ...  71658 (   0.0 sec)
# of grid points (after weights+screening)   ...  64518 (   1.2 sec)
nearest neighbour list constructed           ...    0.0 sec
Grid point re-assignment to atoms done       ...    0.0 sec
Grid point division into batches done        ...    0.0 sec
Reduced shell lists constructed in    0.1 sec

Total number of grid points                  ...    64518
Total number of batches                      ...     1074
Average number of points per batch           ...       60
Average number of grid points per atom       ...      597
Average number of shells per batch           ...    88.35 (14.80%)
Average number of basis functions per batch  ...   193.75 (14.38%)
Average number of large shells per batch     ...    57.25 (64.80%)
Average number of large basis fcns per batch ...   126.67 (65.38%)
Maximum spatial batch extension              ...  23.92, 16.46, 18.43 au
Average spatial batch extension              ...   0.90,  0.69,  0.66 au

Overlap Fitting                  UseSFitting ... on
Constructing numerical overlap ... done (      0.2 sec)
Inverting numerical overlap    ... done (      0.1 sec)
Obtaining analytic overlap     ... done (      0.0 sec)
Final contraction and storage  ... done (      0.7 sec)


General Integration Accuracy     IntAcc      ...  4.010
Radial Grid Type                 RadialGrid  ... Gauss-Chebyshev
Angular Grid (max. acc.)         AngularGrid ... Lebedev-110
Angular grid pruning method      GridPruning ... 3 (G Style)
Weight generation scheme         WeightScheme... Becke
Basis function cutoff            BFCut       ...    1.0000e-11
Integration weight cutoff        WCut        ...    1.0000e-14
Grids for H and He will be reduced by one unit

# of grid points (after initial pruning)     ... 142544 (   0.0 sec)
# of grid points (after weights+screening)   ... 127005 (   1.9 sec)
nearest neighbour list constructed           ...    0.0 sec
Grid point re-assignment to atoms done       ...    0.0 sec
Grid point division into batches done        ...    0.1 sec
Reduced shell lists constructed in    0.3 sec

Total number of grid points                  ...   127005
Total number of batches                      ...     2044
Average number of points per batch           ...       62
Average number of grid points per atom       ...     1176
Average number of shells per batch           ...    83.33 (13.96%)
Average number of basis functions per batch  ...   182.46 (13.55%)
Average number of large shells per batch     ...    54.18 (65.02%)
Average number of large basis fcns per batch ...   119.25 (65.36%)
Maximum spatial batch extension              ...  21.17, 19.86, 17.97 au
Average spatial batch extension              ...   0.73,  0.63,  0.57 au

Overlap Fitting                  UseSFitting ... on
Constructing numerical overlap ... done (      0.5 sec)
Inverting numerical overlap    ... done (      0.2 sec)
Obtaining analytic overlap     ... done (      0.0 sec)
Final contraction and storage  ... done (      0.6 sec)

Time for X-Grid setup             =    8.373 sec
--------------
SCF ITERATIONS
--------------
ITER       Energy         Delta-E        Max-DP      RMS-DP      [F,P]     Damp
               ***  Starting incremental Fock matrix formation  ***
  0  -5779.5870677265   0.000000000000 0.08293512  0.00101690  0.2438994 0.7000
  1  -5780.4262186816  -0.839150955055 0.04976898  0.00070605  0.1020326 0.7000
                               ***Turning on DIIS***
  2  -5780.7676690790  -0.341450397453 0.08538169  0.00125859  0.0415990 0.0000
  3  -5781.3329171708  -0.565248091778 0.06410945  0.00053684  0.0530942 0.0000
  4  -5781.4446534393  -0.111736268540 0.01540391  0.00018904  0.0186250 0.0000
  5  -5781.4558633583  -0.011209918990 0.00777206  0.00007662  0.0064450 0.0000
  6  -5781.4578114119  -0.001948053561 0.00360989  0.00004299  0.0019911 0.0000
                      *** Initiating the SOSCF procedure ***
                           *** Shutting down DIIS ***
                      *** Re-Reading the Fockian *** 
                      *** Removing any level shift *** 
ITER      Energy       Delta-E        Grad      Rot      Max-DP    RMS-DP
  7  -5781.45869873  -0.0008873174  0.003152  0.003152  0.003143  0.000055
               *** Restarting incremental Fock matrix formation ***
  8  -5781.45935666  -0.0006579269  0.000659  0.003833  0.002002  0.000027
  9  -5781.45941902  -0.0000623598  0.001160  0.007218  0.001305  0.000019
 10  -5781.45951937  -0.0001003502  0.000268  0.003090  0.001173  0.000009
 11  -5781.45952173  -0.0000023648  0.000203  0.000367  0.000478  0.000004
 12  -5781.45952919  -0.0000074585  0.000077  0.000370  0.000254  0.000003
 13  -5781.45952918   0.0000000091  0.000062  0.000214  0.000150  0.000001
 14  -5781.45952994  -0.0000007560  0.000012  0.000119  0.000066  0.000001
 15  -5781.45952992   0.0000000187  0.000012  0.000077  0.000034  0.000000
 16  -5781.45952998  -0.0000000617  0.000006  0.000073  0.000027  0.000000
 17  -5781.45952996   0.0000000196  0.000004  0.000022  0.000012  0.000000
                  ***Gradient check signals convergence***
              ***Rediagonalizing the Fockian in SOSCF/NRSCF***

               *****************************************************
               *                     SUCCESS                       *
               *           SCF CONVERGED AFTER  18 CYCLES          *
               *****************************************************

Setting up the final grid:

General Integration Accuracy     IntAcc      ...  5.010
Radial Grid Type                 RadialGrid  ... Gauss-Chebyshev
Angular Grid (max. acc.)         AngularGrid ... Lebedev-434
Angular grid pruning method      GridPruning ... 3 (G Style)
Weight generation scheme         WeightScheme... Becke
Basis function cutoff            BFCut       ...    1.0000e-11
Integration weight cutoff        WCut        ...    1.0000e-14
Grids for H and He will be reduced by one unit

# of grid points (after initial pruning)     ... 1077114 (   0.0 sec)
# of grid points (after weights+screening)   ... 930313 (  12.9 sec)
nearest neighbour list constructed           ...    0.0 sec
Grid point re-assignment to atoms done       ...    0.1 sec
Grid point division into batches done        ...    6.8 sec
Reduced shell lists constructed in    8.2 sec

Total number of grid points                  ...   930313
Total number of batches                      ...    14595
Average number of points per batch           ...       63
Average number of grid points per atom       ...     8614
Average number of shells per batch           ...    72.32 (12.11%)
Average number of basis functions per batch  ...   156.75 (11.64%)
Average number of large shells per batch     ...    46.71 (64.59%)
Average number of large basis fcns per batch ...   101.90 (65.01%)
Maximum spatial batch extension              ...  22.31, 20.49, 18.90 au
Average spatial batch extension              ...   0.33,  0.32,  0.31 au

Final grid set up in   21.7 sec
Final integration                            ... done (   3.0 sec)
Change in XC energy                          ...    -0.000024619
Integrated number of electrons               ...   620.000018805
Previous integrated no of electrons          ...   620.000145899
Old exchange energy                            =   -163.079257038 Eh
New exchange energy                            =   -163.076228029 Eh
Exchange energy change after final integration =      0.003029009 Eh
Total energy after final integration           =  -5781.456525599 Eh
Final COS-X integration done in                =    67.758 sec

----------------
TOTAL SCF ENERGY
----------------

Total Energy       :        -5781.45652560 Eh         -157321.43013 eV

Components:
Nuclear Repulsion  :        12790.10002179 Eh          348036.31542 eV
Electronic Energy  :       -18571.55654739 Eh         -505357.74555 eV
One Electron Energy:       -33376.09423897 Eh         -908209.69673 eV
Two Electron Energy:        14804.53769158 Eh          402851.95119 eV

Virial components:
Potential Energy   :       -11526.59832456 Eh         -313654.68631 eV
Kinetic Energy     :         5745.14179896 Eh          156333.25618 eV
Virial Ratio       :            2.00632095


DFT components:
N(Alpha)           :      310.000009402473 electrons
N(Beta)            :      310.000009402473 electrons
N(Total)           :      620.000018804946 electrons
E(XC)              :     -462.358739049148 Eh       
DFET-embed. en.    :        0.000000000000 Eh       

---------------
SCF CONVERGENCE
---------------

  Last Energy change         ...   -2.9060e-08  Tolerance :   1.0000e-08
  Last MAX-Density change    ...    8.4377e-15  Tolerance :   1.0000e-07
  Last RMS-Density change    ...    3.7830e-17  Tolerance :   5.0000e-09
  Last Orbital Gradient      ...    1.7683e-06  Tolerance :   1.0000e-05
  Last Orbital Rotation      ...    1.1084e-05  Tolerance :   1.0000e-05

             **** THE GBW FILE WAS UPDATED (xtbopt.gbw) ****
             **** DENSITY FILE WAS UPDATED (xtbopt.scfp) ****
             **** ENERGY FILE WAS UPDATED (xtbopt.en.tmp) ****
             **** THE GBW FILE WAS UPDATED (xtbopt.gbw) ****
             **** DENSITY FILE WAS UPDATED (xtbopt.scfp) ****
----------------
ORBITAL ENERGIES
----------------

  NO   OCC          E(Eh)            E(eV) 
   0   2.0000     -89.010829     -2422.1078 
   1   2.0000     -89.010409     -2422.0964 
   2   2.0000     -89.009570     -2422.0735 
   3   2.0000     -89.009107     -2422.0609 
   4   2.0000     -88.999143     -2421.7898 
   5   2.0000     -88.967105     -2420.9180 
   6   2.0000     -19.271414      -524.4018 
   7   2.0000     -19.237827      -523.4879 
   8   2.0000     -19.212498      -522.7986 
   9   2.0000     -19.207556      -522.6642 
  10   2.0000     -14.446521      -393.1098 
  11   2.0000     -14.446074      -393.0976 
  12   2.0000     -14.445592      -393.0845 
  13   2.0000     -14.444833      -393.0639 
  14   2.0000     -14.441921      -392.9846 
  15   2.0000     -14.431069      -392.6894 
  16   2.0000     -14.425922      -392.5493 
  17   2.0000     -14.408722      -392.0813 
  18   2.0000     -14.404521      -391.9670 
  19   2.0000     -10.420819      -283.5649 
  20   2.0000     -10.389783      -282.7204 
  21   2.0000     -10.382344      -282.5179 
  22   2.0000     -10.382123      -282.5119 
  23   2.0000     -10.368765      -282.1484 
  24   2.0000     -10.368131      -282.1312 
  25   2.0000     -10.361998      -281.9643 
  26   2.0000     -10.361113      -281.9402 
  27   2.0000     -10.358312      -281.8640 
  28   2.0000     -10.357954      -281.8543 
  29   2.0000     -10.357131      -281.8319 
  30   2.0000     -10.354725      -281.7664 
  31   2.0000     -10.353279      -281.7271 
  32   2.0000     -10.352660      -281.7102 
  33   2.0000     -10.350760      -281.6585 
  34   2.0000     -10.350031      -281.6387 
  35   2.0000     -10.348574      -281.5990 
  36   2.0000     -10.346963      -281.5552 
  37   2.0000     -10.346868      -281.5526 
  38   2.0000     -10.346438      -281.5409 
  39   2.0000     -10.345923      -281.5269 
  40   2.0000     -10.344424      -281.4861 
  41   2.0000     -10.344218      -281.4805 
  42   2.0000     -10.342479      -281.4332 
  43   2.0000     -10.341523      -281.4071 
  44   2.0000     -10.340797      -281.3874 
  45   2.0000     -10.339397      -281.3493 
  46   2.0000     -10.334786      -281.2238 
  47   2.0000     -10.332865      -281.1716 
  48   2.0000     -10.332241      -281.1546 
  49   2.0000     -10.330681      -281.1121 
  50   2.0000     -10.329383      -281.0768 
  51   2.0000     -10.329108      -281.0693 
  52   2.0000     -10.327109      -281.0149 
  53   2.0000     -10.324122      -280.9336 
  54   2.0000     -10.322994      -280.9030 
  55   2.0000     -10.322391      -280.8865 
  56   2.0000     -10.322311      -280.8843 
  57   2.0000     -10.322295      -280.8839 
  58   2.0000     -10.322032      -280.8768 
  59   2.0000     -10.321907      -280.8734 
  60   2.0000     -10.320876      -280.8453 
  61   2.0000     -10.320048      -280.8228 
  62   2.0000     -10.319693      -280.8131 
  63   2.0000     -10.317202      -280.7453 
  64   2.0000     -10.316084      -280.7149 
  65   2.0000     -10.312796      -280.6255 
  66   2.0000     -10.311729      -280.5964 
  67   2.0000     -10.308518      -280.5090 
  68   2.0000     -10.304680      -280.4046 
  69   2.0000     -10.304566      -280.4015 
  70   2.0000     -10.303234      -280.3652 
  71   2.0000     -10.300356      -280.2869 
  72   2.0000     -10.294561      -280.1293 
  73   2.0000     -10.292533      -280.0741 
  74   2.0000     -10.291119      -280.0356 
  75   2.0000     -10.290731      -280.0250 
  76   2.0000     -10.289259      -279.9850 
  77   2.0000     -10.288891      -279.9749 
  78   2.0000     -10.288250      -279.9575 
  79   2.0000     -10.284253      -279.8488 
  80   2.0000     -10.281314      -279.7688 
  81   2.0000     -10.281078      -279.7624 
  82   2.0000     -10.280741      -279.7532 
  83   2.0000     -10.280391      -279.7436 
  84   2.0000     -10.280283      -279.7407 
  85   2.0000     -10.279767      -279.7267 
  86   2.0000     -10.273847      -279.5656 
  87   2.0000      -8.105318      -220.5569 
  88   2.0000      -8.104697      -220.5400 
  89   2.0000      -8.104448      -220.5332 
  90   2.0000      -8.103216      -220.4997 
  91   2.0000      -8.094206      -220.2546 
  92   2.0000      -8.062630      -219.3953 
  93   2.0000      -6.074643      -165.2994 
  94   2.0000      -6.074003      -165.2820 
  95   2.0000      -6.073564      -165.2701 
  96   2.0000      -6.072543      -165.2423 
  97   2.0000      -6.070457      -165.1855 
  98   2.0000      -6.069797      -165.1676 
  99   2.0000      -6.069435      -165.1577 
 100   2.0000      -6.068345      -165.1281 
 101   2.0000      -6.067494      -165.1049 
 102   2.0000      -6.066979      -165.0909 
 103   2.0000      -6.066922      -165.0893 
 104   2.0000      -6.065513      -165.0510 
 105   2.0000      -6.063763      -165.0034 
 106   2.0000      -6.059146      -164.8777 
 107   2.0000      -6.056195      -164.7974 
 108   2.0000      -6.032032      -164.1399 
 109   2.0000      -6.027781      -164.0243 
 110   2.0000      -6.024707      -163.9406 
 111   2.0000      -1.197571       -32.5876 
 112   2.0000      -1.153614       -31.3914 
 113   2.0000      -1.120679       -30.4952 
 114   2.0000      -1.111602       -30.2482 
 115   2.0000      -1.066053       -29.0088 
 116   2.0000      -1.062499       -28.9121 
 117   2.0000      -1.039707       -28.2919 
 118   2.0000      -1.038614       -28.2621 
 119   2.0000      -1.036133       -28.1946 
 120   2.0000      -1.031235       -28.0613 
 121   2.0000      -1.028660       -27.9913 
 122   2.0000      -1.023619       -27.8541 
 123   2.0000      -1.022131       -27.8136 
 124   2.0000      -1.019786       -27.7498 
 125   2.0000      -1.016548       -27.6617 
 126   2.0000      -1.011881       -27.5347 
 127   2.0000      -1.009155       -27.4605 
 128   2.0000      -1.005949       -27.3733 
 129   2.0000      -0.991112       -26.9695 
 130   2.0000      -0.990815       -26.9614 
 131   2.0000      -0.985028       -26.8040 
 132   2.0000      -0.981837       -26.7172 
 133   2.0000      -0.976351       -26.5679 
 134   2.0000      -0.970977       -26.4216 
 135   2.0000      -0.963826       -26.2270 
 136   2.0000      -0.946077       -25.7441 
 137   2.0000      -0.939749       -25.5719 
 138   2.0000      -0.930629       -25.3237 
 139   2.0000      -0.922394       -25.0996 
 140   2.0000      -0.920372       -25.0446 
 141   2.0000      -0.911317       -24.7982 
 142   2.0000      -0.907365       -24.6907 
 143   2.0000      -0.902971       -24.5711 
 144   2.0000      -0.897491       -24.4220 
 145   2.0000      -0.889696       -24.2099 
 146   2.0000      -0.886741       -24.1294 
 147   2.0000      -0.883412       -24.0389 
 148   2.0000      -0.878546       -23.9065 
 149   2.0000      -0.874041       -23.7839 
 150   2.0000      -0.871318       -23.7098 
 151   2.0000      -0.861301       -23.4372 
 152   2.0000      -0.856550       -23.3079 
 153   2.0000      -0.842302       -22.9202 
 154   2.0000      -0.835622       -22.7384 
 155   2.0000      -0.821477       -22.3535 
 156   2.0000      -0.820867       -22.3369 
 157   2.0000      -0.808859       -22.0102 
 158   2.0000      -0.805086       -21.9075 
 159   2.0000      -0.798275       -21.7222 
 160   2.0000      -0.793114       -21.5817 
 161   2.0000      -0.787943       -21.4410 
 162   2.0000      -0.775360       -21.0986 
 163   2.0000      -0.762006       -20.7352 
 164   2.0000      -0.753257       -20.4972 
 165   2.0000      -0.749507       -20.3951 
 166   2.0000      -0.739925       -20.1344 
 167   2.0000      -0.737841       -20.0777 
 168   2.0000      -0.724886       -19.7251 
 169   2.0000      -0.718747       -19.5581 
 170   2.0000      -0.714379       -19.4392 
 171   2.0000      -0.712130       -19.3780 
 172   2.0000      -0.707504       -19.2522 
 173   2.0000      -0.702777       -19.1235 
 174   2.0000      -0.699596       -19.0370 
 175   2.0000      -0.697227       -18.9725 
 176   2.0000      -0.695059       -18.9135 
 177   2.0000      -0.686146       -18.6710 
 178   2.0000      -0.685795       -18.6614 
 179   2.0000      -0.674482       -18.3536 
 180   2.0000      -0.673873       -18.3370 
 181   2.0000      -0.667632       -18.1672 
 182   2.0000      -0.664975       -18.0949 
 183   2.0000      -0.656841       -17.8735 
 184   2.0000      -0.654899       -17.8207 
 185   2.0000      -0.649877       -17.6841 
 186   2.0000      -0.646880       -17.6025 
 187   2.0000      -0.640143       -17.4192 
 188   2.0000      -0.638174       -17.3656 
 189   2.0000      -0.635510       -17.2931 
 190   2.0000      -0.631805       -17.1923 
 191   2.0000      -0.626677       -17.0528 
 192   2.0000      -0.619828       -16.8664 
 193   2.0000      -0.611967       -16.6525 
 194   2.0000      -0.606924       -16.5153 
 195   2.0000      -0.605142       -16.4667 
 196   2.0000      -0.599677       -16.3180 
 197   2.0000      -0.596957       -16.2440 
 198   2.0000      -0.589682       -16.0461 
 199   2.0000      -0.585868       -15.9423 
 200   2.0000      -0.580043       -15.7838 
 201   2.0000      -0.577197       -15.7063 
 202   2.0000      -0.570291       -15.5184 
 203   2.0000      -0.568458       -15.4685 
 204   2.0000      -0.566272       -15.4091 
 205   2.0000      -0.564926       -15.3724 
[...]
   6   22426.6    445.9   0.060088644   0.88207  -0.83030   0.37855   0.22220
   7   23074.5    433.4   0.556254478   7.93626   2.10586  -1.81905  -0.43893
   8   23202.7    431.0   0.121466173   1.72343  -1.16836  -0.29108   0.52310
   9   23684.9    422.2   0.085307039   1.18574   1.08060  -0.07214  -0.11331
  10   23943.8    417.6   0.008533650   0.11733  -0.14364   0.04461  -0.30775
  11   24458.5    408.9   0.023813377   0.32053  -0.04743  -0.22887   0.51565
  12   24973.6    400.4   0.055867673   0.73647  -0.33516   0.59791  -0.51638
  13   25854.9    386.8   0.219452252   2.79430  -0.09851   1.25284  -1.10227
  14   26747.0    373.9   0.004866695   0.05990   0.09223   0.18874  -0.12559
  15   26974.7    370.7   0.048906898   0.59688  -0.70410   0.31546   0.04008
  16   27438.1    364.5   0.151098665   1.81294   0.61594  -1.13897   0.36919
  17   27467.4    364.1   0.015313799   0.18354   0.18793  -0.36553   0.12088
  18   27655.6    361.6   0.033681363   0.40094   0.40908   0.24718  -0.41533
  19   27841.2    359.2   0.043875526   0.51881   0.53223   0.38357  -0.29735
  20   28211.8    354.5   0.060361299   0.70438   0.54978  -0.44177  -0.45492
  21   28780.8    347.5   0.071625585   0.81929   0.23862  -0.68740   0.53837
  22   29125.4    343.3   0.054984218   0.62150  -0.29552   0.72045   0.12295
  23   29487.4    339.1   0.019609571   0.21893  -0.16134  -0.27933   0.33893
  24   29828.8    335.2   0.107512594   1.18659   0.90945  -0.19837  -0.56580
  25   30056.3    332.7   0.035915904   0.39339   0.35271   0.37955  -0.35346
  26   30291.9    330.1   0.263887409   2.86792  -0.88347   0.28277   1.41685
  27   30717.4    325.5   0.125593318   1.34604   0.97792  -0.59910   0.17550
  28   31050.8    322.1   0.126670136   1.34300  -0.73682   0.51627   0.73045
  29   31367.7    318.8   0.329637225   3.45963   1.00642   0.25070  -1.54399
  30   31701.0    315.4   0.208353403   2.16373   0.94598   0.54698  -0.98472
  31   31804.9    314.4   0.312082515   3.23036   0.52393   0.65937  -1.58779
  32   32549.5    307.2   0.128845520   1.30317  -0.68229   0.91396  -0.04827
  33   32673.5    306.1   0.085888929   0.86540  -0.42462  -0.65446   0.50673
  34   32838.3    304.5   0.026697501   0.26765  -0.12136   0.39732  -0.30831
  35   32854.2    304.4   0.210831191   2.11261   0.33165  -1.11487   0.87160
  36   33073.3    302.4   0.209327471   2.08365  -0.84481   0.32100   1.12557
  37   33332.6    300.0   0.125344149   1.23797   0.58909   0.43322  -0.83861
  38   33427.4    299.2   0.020641792   0.20329   0.13460   0.02437  -0.42963
  39   33619.5    297.4   0.548889525   5.37489   0.37286  -2.24201   0.45744
  40   33823.0    295.7   0.212527368   2.06861   0.24891  -1.00260  -1.00072
  41   34200.2    292.4   0.158311090   1.52391   0.43908   0.89521  -0.72781
  42   34264.0    291.9   0.227843214   2.18914  -0.19818  -0.97335   1.09657
  43   34426.6    290.5   0.159591874   1.52613  -0.04780  -0.41105   1.16399
  44   34503.6    289.8   0.084032942   0.80179   0.68356   0.03142  -0.57753
  45   34732.6    287.9   0.087492977   0.82930  -0.56488   0.50604  -0.50412
  46   34857.8    286.9   0.163553481   1.54467  -0.13186  -0.14417   1.22739
  47   34970.8    286.0   0.023473628   0.22098   0.01958   0.41785   0.21446
  48   35031.4    285.5   0.066635666   0.62622  -0.10865  -0.60750   0.49533
  49   35130.8    284.7   0.000050818   0.00048   0.00403   0.01055  -0.01867
  50   35661.9    280.4   0.045839510   0.42317   0.22078   0.57646   0.20524
  51   35723.1    279.9   0.019066806   0.17571   0.13352   0.28795   0.27380
  52   35882.1    278.7   0.092887974   0.85223  -0.07268  -0.57302  -0.72014
  53   36041.9    277.5   0.094192007   0.86036   0.09192  -0.76045   0.52309
  54   36354.2    275.1   0.159542053   1.44476   0.97404  -0.70391  -0.02296
  55   36682.7    272.6   0.021333613   0.19146   0.26324   0.15252   0.31448
  56   36772.6    271.9   0.166279531   1.48864   0.68961  -0.81088  -0.59628
  57   36874.3    271.2   0.077973793   0.69615  -0.37060   0.45268   0.59488
  58   37057.3    269.9   0.068650601   0.60988  -0.02866  -0.00512  -0.78041
  59   37282.3    268.2   0.011548551   0.10198   0.31785   0.01520  -0.02682
  60   37571.4    266.2   0.028573186   0.25037  -0.35418   0.35321   0.01284
  61   37717.0    265.1   0.000005326   0.00005   0.00408  -0.00409   0.00363
  62   37904.7    263.8   0.033133680   0.28777   0.05042   0.08490   0.52728
  63   38139.4    262.2   0.098611295   0.85119  -0.22879   0.30280  -0.84093
  64   38333.1    260.9   0.095530964   0.82044   0.23970   0.40547  -0.77368
  65   38382.9    260.5   0.010513290   0.09017  -0.20261   0.08025  -0.20659
  66   38734.6    258.2   0.049452789   0.42031  -0.03542  -0.32874   0.55766
  67   38756.7    258.0   0.072285536   0.61402  -0.46129   0.63267  -0.03087
  68   38877.2    257.2   0.001721131   0.01457  -0.09161  -0.01117   0.07783
  69   39212.2    255.0   0.120482292   1.01153   0.76241  -0.64516   0.11846
  70   39268.8    254.7   0.060828197   0.50996  -0.49808   0.07490   0.50622
  71   39319.0    254.3   0.036389714   0.30469  -0.50819   0.14706   0.15750
  72   39636.4    252.3   0.120046255   0.99708  -0.61286   0.64295  -0.45618
  73   39680.2    252.0   0.005984282   0.04965  -0.00683   0.21398  -0.06177
  74   39955.7    250.3   0.009788216   0.08065  -0.28342   0.01328   0.01213
  75   40036.1    249.8   0.098305252   0.80835  -0.14298   0.72842  -0.50726

-----------------------------------------------------------------------------
         ABSORPTION SPECTRUM VIA TRANSITION VELOCITY DIPOLE MOMENTS
-----------------------------------------------------------------------------
State   Energy  Wavelength   fosc         P2         PX        PY        PZ  
        (cm-1)    (nm)                  (au**2)     (au)      (au)      (au) 
-----------------------------------------------------------------------------
   0   10407.1    960.9   0.780365935   0.05551  -0.04610   0.19525  -0.12352
   1   12766.3    783.3   0.406622709   0.03548   0.08138  -0.15572   0.06788
   2   15551.3    643.0   0.986376115   0.10484   0.20510   0.12291  -0.21833
   3   16366.8    611.0   0.501235733   0.05607  -0.06881  -0.15803   0.16236
   4   18192.9    549.7   0.115063287   0.01431   0.10336  -0.05902  -0.01180
   5   19800.9    505.0   1.171724270   0.15857  -0.24293   0.29442  -0.11347
   6   22426.6    445.9   0.060511263   0.00927  -0.08506   0.03845   0.02371
   7   23074.5    433.4   0.579600304   0.09140   0.22710  -0.19327  -0.04976
   8   23202.7    431.0   0.110482881   0.01752  -0.11836  -0.03083   0.05060
   9   23684.9    422.2   0.091127929   0.01475   0.12040  -0.00485  -0.01520
  10   23943.8    417.6   0.010336080   0.00169  -0.02284   0.00932  -0.03291
  11   24458.5    408.9   0.030769936   0.00514  -0.00922  -0.02753   0.06558
  12   24973.6    400.4   0.057832172   0.00987  -0.03789   0.06921  -0.06038
  13   25854.9    386.8   0.232828953   0.04114  -0.01483   0.15275  -0.13262
  14   26747.0    373.9   0.003936804   0.00072   0.00847   0.02170  -0.01331
  15   26974.7    370.7   0.050489632   0.00931  -0.08728   0.04087   0.00447
  16   27438.1    364.5   0.144837968   0.02716   0.07704  -0.13871   0.04457
  17   27467.4    364.1   0.014660144   0.00275   0.02383  -0.04477   0.01340
  18   27655.6    361.6   0.034310038   0.00649   0.04730   0.03612  -0.05425
  19   27841.2    359.2   0.040692339   0.00774   0.06856   0.04409  -0.03314
  20   28211.8    354.5   0.063245234   0.01219   0.07185  -0.05964  -0.05895
  21   28780.8    347.5   0.070021173   0.01377   0.03314  -0.08866   0.06939
  22   29125.4    343.3   0.051629379   0.01028  -0.03614   0.09283   0.01881
  23   29487.4    339.1   0.017410570   0.00351  -0.02057  -0.03490   0.04322
  24   29828.8    335.2   0.099423080   0.02027   0.11896  -0.02851  -0.07283
  25   30056.3    332.7   0.029595863   0.00608   0.04750   0.04446  -0.04298
  26   30291.9    330.1   0.247271449   0.05119  -0.11706   0.03415   0.19059
  27   30717.4    325.5   0.121325275   0.02547   0.13399  -0.08344   0.02358
  28   31050.8    322.1   0.114417749   0.02428  -0.10003   0.06914   0.09744
  29   31367.7    318.8   0.293429878   0.06291   0.13454   0.03441  -0.20886
  30   31701.0    315.4   0.184183019   0.03991   0.13023   0.07247  -0.13302
  31   31804.9    314.4   0.279144760   0.06068   0.06914   0.09225  -0.21769
  32   32549.5    307.2   0.119269657   0.02653  -0.09625   0.13092  -0.01140
  33   32673.5    306.1   0.073819890   0.01648  -0.05880  -0.09126   0.06855
  34   32838.3    304.5   0.024243353   0.00544  -0.01720   0.05657  -0.04410
  35   32854.2    304.4   0.190805995   0.04284   0.04854  -0.15889   0.12346
  36   33073.3    302.4   0.191744024   0.04334  -0.12008   0.04237   0.16470
  37   33332.6    300.0   0.115366046   0.02628   0.08559   0.06340  -0.12222
  38   33427.4    299.2   0.017247684   0.00394   0.01582   0.00297  -0.06067
  39   33619.5    297.4   0.492744627   0.11322   0.05509  -0.32607   0.06214
  40   33823.0    295.7   0.195625794   0.04522   0.03438  -0.14742  -0.14935
  41   34200.2    292.4   0.141350705   0.03304   0.06375   0.13237  -0.10702
  42   34264.0    291.9   0.198479726   0.04648  -0.02849  -0.14110   0.16049
  43   34426.6    290.5   0.138596420   0.03261  -0.01028  -0.05810   0.17067
  44   34503.6    289.8   0.073925695   0.01743   0.10113   0.00334  -0.08482
  45   34732.6    287.9   0.080434195   0.01909  -0.08728   0.07529  -0.07621
  46   34857.8    286.9   0.145166667   0.03458  -0.01805  -0.02131   0.18386
  47   34970.8    286.0   0.023006461   0.00550  -0.00162   0.06703   0.03167
  48   35031.4    285.5   0.063155403   0.01512  -0.01516  -0.09474   0.07692
  49   35130.8    284.7   0.000042141   0.00001   0.00058   0.00182  -0.00254
  50   35661.9    280.4   0.039381783   0.00960   0.03224   0.08627   0.03342
  51   35723.1    279.9   0.016772433   0.00409   0.01985   0.04317   0.04286
  52   35882.1    278.7   0.078182118   0.01917  -0.01302  -0.08272  -0.11028
  53   36041.9    277.5   0.079673892   0.01963   0.00932  -0.11542   0.07886
  54   36354.2    275.1   0.140883975   0.03500   0.15207  -0.10893  -0.00337
  55   36682.7    272.6   0.020244471   0.00508   0.04042   0.03099   0.04981
  56   36772.6    271.9   0.152909870   0.03843   0.11025  -0.12973  -0.09718
  57   36874.3    271.2   0.066434235   0.01674  -0.05992   0.07098   0.09008
  58   37057.3    269.9   0.062163419   0.01574  -0.00584  -0.00128  -0.12533
  59   37282.3    268.2   0.009527731   0.00243   0.04903   0.00378  -0.00309
  60   37571.4    266.2   0.028423891   0.00730  -0.06114   0.05964   0.00207
  61   37717.0    265.1   0.000005396   0.00000   0.00072  -0.00071   0.00061
  62   37904.7    263.8   0.029111676   0.00754   0.00564   0.01484   0.08538
  63   38139.4    262.2   0.086290476   0.02249  -0.03874   0.05021  -0.13591
  64   38333.1    260.9   0.078877358   0.02066   0.04112   0.06055  -0.12372
  65   38382.9    260.5   0.009075087   0.00238  -0.03014   0.01308  -0.03607
  66   38734.6    258.2   0.043037843   0.01139  -0.00582  -0.05533   0.09109
  67   38756.7    258.0   0.061940231   0.01641  -0.07642   0.10271  -0.00417
  68   38877.2    257.2   0.001450761   0.00039  -0.01444  -0.00284   0.01300
  69   39212.2    255.0   0.095212685   0.02552   0.12156  -0.10191   0.01881
  70   39268.8    254.7   0.050995739   0.01369  -0.08141   0.01316   0.08298
  71   39319.0    254.3   0.027702332   0.00744  -0.07935   0.01884   0.02815
  72   39636.4    252.3   0.096763983   0.02621  -0.09996   0.10355  -0.07416
  73   39680.2    252.0   0.005429335   0.00147  -0.00314   0.03680  -0.01040
  74   39955.7    250.3   0.008930759   0.00244  -0.04892   0.00668  -0.00109
  75   40036.1    249.8   0.088518138   0.02422  -0.02746   0.12654  -0.08634

-------------------------------------------------------------------
                             CD SPECTRUM
-------------------------------------------------------------------
State   Energy Wavelength       R         MX        MY        MZ   
        (cm-1)   (nm)       (1e40*cgs)   (au)      (au)      (au)  
-------------------------------------------------------------------
   0   10407.1    960.9     23.85998  -2.97721  -2.52402  -2.82007
   1   12766.3    783.3     45.55079   2.08830   1.67855   1.17502
   2   15551.3    643.0     53.44229  -7.00623  -6.94490 -10.42648
   3   16366.8    611.0      4.82275   4.58469   4.36188   6.13823
   4   18192.9    549.7     51.55311  -1.23840  -1.40844  -2.48831
   5   19800.9    505.0     39.93649  -1.21558  -0.36566   1.74619
   6   22426.6    445.9    -29.29626   1.02481   1.22518   2.30150
   7   23074.5    433.4    -696.23054  -1.33748  -2.11144  -4.39554
   8   23202.7    431.0    283.81713   2.58369   2.85664   5.05860
   9   23684.9    422.2    205.67253  -1.31975  -1.64973  -3.83548
  10   23943.8    417.6      6.95785  -0.03320  -0.12840   0.09280
  11   24458.5    408.9    -37.61398   0.99850   0.81902   0.76481
  12   24973.6    400.4    -21.37070  -1.21219  -0.85723  -0.38135
  13   25854.9    386.8    -35.15175  -2.88990  -2.32896  -2.52413
  14   26747.0    373.9     -5.77555  -0.07988  -0.01257  -0.27263
  15   26974.7    370.7      7.95029   0.27631   0.35016   1.25658
  16   27438.1    364.5     66.52794   1.49615   1.40304   1.06788
  17   27467.4    364.1    -21.40177   0.78187   0.26995   0.35188
  18   27655.6    361.6     46.51662  -1.51651  -1.31024  -1.79835
  19   27841.2    359.2    115.55735  -1.57098  -1.79775  -3.48233
  20   28211.8    354.5    -155.42570  -0.58997  -0.85537  -1.33173
  21   28780.8    347.5     19.27887   0.89264   0.48235   0.06832
  22   29125.4    343.3    -17.68832  -0.08457   0.12875  -0.34738
  23   29487.4    339.1     -4.45883   1.05050   0.92802   1.32070
  24   29828.8    335.2    163.27776  -1.74108  -1.04879  -1.20662
  25   30056.3    332.7     29.71098  -1.49512  -1.77620  -3.04262
  26   30291.9    330.1    -180.08463   2.53789   1.59458   1.80346
  27   30717.4    325.5    212.91688  -1.22780  -1.04364  -1.86790
  28   31050.8    322.1    -34.42332   1.52787   1.05866   0.99288
  29   31367.7    318.8     -5.36815  -5.29452  -3.84541  -4.09028
  30   31701.0    315.4    -49.67766  -3.48619  -3.45969  -5.48482
  31   31804.9    314.4    119.06379  -4.29878  -3.08164  -2.38011
  32   32549.5    307.2     31.26144   0.52126   0.25636   0.23339
  33   32673.5    306.1     41.07060   1.38331   1.08089   2.21134
  34   32838.3    304.5     15.20765  -0.42169  -1.03087  -0.95323
  35   32854.2    304.4    -67.41227   2.66852   2.17559   2.09551
  36   33073.3    302.4    -197.87970   3.63727   2.87721   2.65525
  37   33332.6    300.0    -81.77331  -1.98222  -1.61440  -2.64008
  38   33427.4    299.2    -133.34858  -1.07611  -1.48456  -1.73807
  39   33619.5    297.4    566.06612   3.93979   2.30661   2.84417
  40   33823.0    295.7    -65.33552  -0.48946  -0.85381   0.45669
  41   34200.2    292.4     84.14570  -2.42311  -2.18530  -3.65932
  42   34264.0    291.9    -165.01151   2.86112   2.61028   3.47242
  43   34426.6    290.5    -181.75873   1.93265   1.70203   1.34286
  44   34503.6    289.8    -116.45231  -1.72740  -1.76465  -2.99595
  45   34732.6    287.9    -47.13633  -1.09170  -1.29380  -0.47211
  46   34857.8    286.9    -215.19589   2.64181   2.14563   1.27964
  47   34970.8    286.0    125.83257  -1.14775  -0.70168  -1.01718
  48   35031.4    285.5    114.98468   3.24310   2.65724   2.98562
  49   35130.8    284.7     -0.05132  -0.11208  -0.02170  -0.04809
  50   35661.9    280.4    109.98902  -1.34315  -0.16231  -0.37276
  51   35723.1    279.9     21.10485  -0.34101   0.12601  -0.29323
  52   35882.1    278.7    298.18214   1.22806   0.50072   1.23419
  53   36041.9    277.5      0.76924   1.65723   1.40928   1.75131
  54   36354.2    275.1    -62.62892  -0.90430  -1.51523  -3.48191
  55   36682.7    272.6    291.31253  -1.64766  -1.15418  -1.99075
  56   36772.6    271.9    -478.26462  -1.98183  -2.26798  -2.61043
  57   36874.3    271.2      4.35208   0.44886   0.30396   0.01730
  58   37057.3    269.9     25.91459  -0.58936  -0.55805   0.16618
  59   37282.3    268.2    132.19932  -1.88397  -1.74806  -2.40666
  60   37571.4    266.2    -43.40874   0.82268   1.26851   2.13968
  61   37717.0    265.1      0.01164   0.00229  -0.00357  -0.02023
  62   37904.7    263.8    -77.85125   0.83589   0.91083   0.39977
  63   38139.4    262.2    119.67642  -0.74988  -0.40544   0.66177
  64   38333.1    260.9    -70.54807  -2.97470  -2.45601  -2.59558
  65   38382.9    260.5     25.13032   0.37035   0.05148   0.17282
  66   38734.6    258.2    -34.35070   1.26010   1.02250   0.94412
  67   38756.7    258.0    -75.10723   0.50020   0.95169   1.70866
  68   38877.2    257.2     -2.41698   0.46424   0.51346   0.75192
  69   39212.2    255.0     47.76273  -1.75430  -2.61753  -4.67546
  70   39268.8    254.7    -241.16817   2.16109   2.60363   3.76218
  71   39319.0    254.3    -59.89111   1.28678   2.05561   3.84589
  72   39636.4    252.3    160.49501   0.51376   0.81331   1.94860
  73   39680.2    252.0     -8.83525   0.19296   0.10695  -0.25765
  74   39955.7    250.3     53.25269   0.93087   1.11535   1.90412
  75   40036.1    249.8     41.16832  -1.86529  -0.94120  -0.48148

sTD-DFT done

Total run time:        5.020 sec

           *** ORCA-CIS/TD-DFT FINISHED WITHOUT ERROR ***

-------------------------   --------------------
FINAL SINGLE POINT ENERGY     -5781.456525599354
-------------------------   --------------------


                            ***************************************
                            *     ORCA property calculations      *
                            ***************************************

                                    ---------------------
                                    Active property flags
                                    ---------------------
   (+) Dipole Moment


------------------------------------------------------------------------------
                       ORCA ELECTRIC PROPERTIES CALCULATION
------------------------------------------------------------------------------

Dipole Moment Calculation                       ... on
Quadrupole Moment Calculation                   ... off
Polarizability Calculation                      ... off
GBWName                                         ... xtbopt.gbw
Electron density file                           ... xtbopt.scfp
The origin for moment calculation is the CENTER OF MASS  = (12.285539, -23.316673  4.576601)

-------------
DIPOLE MOMENT
-------------
                                X             Y             Z
Electronic contribution:      5.25288      62.05336     -53.10224
Nuclear contribution   :     -1.22282     -66.51702      54.67924
                        -----------------------------------------
Total Dipole Moment    :      4.03006      -4.46366       1.57700
                        -----------------------------------------
Magnitude (a.u.)       :      6.21712
Magnitude (Debye)      :     15.80266



--------------------
Rotational spectrum 
--------------------
 
Rotational constants in cm-1:     0.000840     0.000143     0.000125 
Rotational constants in MHz :    25.175626     4.279455     3.746634 

 Dipole components along the rotational axes: 
x,y,z [a.u.] :     5.588649    -2.569629    -0.903638 
x,y,z [Debye]:    14.205217    -6.531477    -2.296866 

 

Timings for individual modules:

Sum of individual times         ...      736.405 sec (=  12.273 min)
GTO integral calculation        ...        5.074 sec (=   0.085 min)   0.7 %
SCF iterations                  ...      725.589 sec (=  12.093 min)  98.5 %
CIS module                      ...        5.742 sec (=   0.096 min)   0.8 %
                             ****ORCA TERMINATED NORMALLY****
TOTAL RUN TIME: 0 days 0 hours 12 minutes 17 seconds 463 msec
