
                                 *****************
                                 * O   R   C   A *
                                 *****************

           --- An Ab Initio, DFT and Semiempirical electronic structure package ---

                  #######################################################
                  #                        -***-                        #
                  #          Department of theory and spectroscopy      #
                  #               Directorship: Frank Neese             #
                  #        Max Planck Institute fuer Kohlenforschung    #
                  #                Kaiser Wilhelm Platz 1               #
                  #                 D-45470 Muelheim/Ruhr               #
                  #                      Germany                        #
                  #                                                     #
                  #                  All rights reserved                #
                  #                        -***-                        #
                  #######################################################


                         Program Version 4.2.0 -  RELEASE  -


 With contributions from (in alphabetic order):
   Daniel Aravena         : Magnetic Suceptibility
   Michael Atanasov       : Ab Initio Ligand Field Theory (pilot matlab implementation)
   Alexander A. Auer      : GIAO ZORA, VPT2
   Ute Becker             : Parallelization
   Giovanni Bistoni       : ED, misc. LED, open-shell LED, HFLED
   Martin Brehm           : Molecular dynamics
   Dmytro Bykov           : SCF Hessian
   Vijay G. Chilkuri      : MRCI spin determinant printing, contributions to CSF-ICE
   Dipayan Datta          : RHF DLPNO-CCSD density
   Achintya Kumar Dutta   : EOM-CC, STEOM-CC
   Dmitry Ganyushin       : Spin-Orbit,Spin-Spin,Magnetic field MRCI
   Miquel Garcia          : C-PCM Hessian, Gaussian charge scheme
   Yang Guo               : DLPNO-NEVPT2, CIM, IAO-localization
   Andreas Hansen         : Spin unrestricted coupled pair/coupled cluster methods
   Benjamin Helmich-Paris : CASSCF linear response (MC-RPA)
   Lee Huntington         : MR-EOM, pCC
   Robert Izsak           : Overlap fitted RIJCOSX, COSX-SCS-MP3, EOM
   Christian Kollmar      : KDIIS, OOCD, Brueckner-CCSD(T), CCSD density
   Simone Kossmann        : Meta GGA functionals, TD-DFT gradient, OOMP2, MP2 Hessian
   Martin Krupicka        : AUTO-CI
   Lucas Lang             : DCDCAS
   Dagmar Lenk            : GEPOL surface, SMD
   Dimitrios Liakos       : Extrapolation schemes; Compound Job, initial MDCI parallelization
   Dimitrios Manganas     : Further ROCIS development; embedding schemes
   Dimitrios Pantazis     : SARC Basis sets
   Taras Petrenko         : DFT Hessian,TD-DFT gradient, ASA, ECA, R-Raman, ABS, FL, XAS/XES, NRVS
   Peter Pinski           : DLPNO-MP2, DLPNO-MP2 Gradient
   Christoph Reimann      : Effective Core Potentials
   Marius Retegan         : Local ZFS, SOC
   Christoph Riplinger    : Optimizer, TS searches, QM/MM, DLPNO-CCSD(T), (RO)-DLPNO pert. Triples
   Tobias Risthaus        : Range-separated hybrids, TD-DFT gradient, RPA, STAB
   Michael Roemelt        : Original ROCIS implementation
   Masaaki Saitow         : Open-shell DLPNO-CCSD energy and density
   Barbara Sandhoefer     : DKH picture change effects
   Avijit Sen             : IP-ROCIS
   Kantharuban Sivalingam : CASSCF convergence, NEVPT2, FIC-MRCI
   Bernardo de Souza      : ESD, SOC TD-DFT
   Georgi Stoychev        : AutoAux, RI-MP2 NMR
   Willem Van den Heuvel  : Paramagnetic NMR
   Boris Wezisla          : Elementary symmetry handling
   Frank Wennmohs         : Technical directorship


 We gratefully acknowledge several colleagues who have allowed us to
 interface, adapt or use parts of their codes:
   Stefan Grimme, W. Hujo, H. Kruse,             : VdW corrections, initial TS optimization,
                  C. Bannwarth                     DFT functionals, gCP, sTDA/sTD-DF
   Ed Valeev, F. Pavosevic, A. Kumar             : LibInt (2-el integral package), F12 methods
   Garnet Chan, S. Sharma, J. Yang, R. Olivares  : DMRG
   Ulf Ekstrom                                   : XCFun DFT Library
   Mihaly Kallay                                 : mrcc  (arbitrary order and MRCC methods)
   Andreas Klamt, Michael Diedenhofen            : otool_cosmo (COSMO solvation model)
   Jiri Pittner, Ondrej Demel                    : Mk-CCSD
   Frank Weinhold                                : gennbo (NPA and NBO analysis)
   Christopher J. Cramer and Donald G. Truhlar   : smd solvation model
   Lars Goerigk                                  : TD-DFT with DH, B97 family of functionals
   V. Asgeirsson, H. Jonsson                     : NEB implementation
   FAccTs GmbH                                   : IRC, NEB, NEB-TS, Multilevel, MM, QM/MM, CI optimization
   S Lehtola, MJT Oliveira, MAL Marques          : LibXC Library


 Your calculation uses the libint2 library for the computation of 2-el integrals
 For citations please refer to: http://libint.valeyev.net

 Your ORCA version has been built with support for libXC version: 4.2.3
 For citations please refer to: https://tddft.org/programs/libxc/

 This ORCA versions uses:
   CBLAS   interface :  Fast vector & matrix operations
   LAPACKE interface :  Fast linear algebra routines
   SCALAPACK package :  Parallel linear algebra routines


XCFun DFT library Copyright 2009-2010 Ulf Ekstrom and contributors.
See http://admol.org/xcfun for more information. This is free soft-
ware; see the source code for copying conditions. There is ABSOLUTELY
NO WARRANTY; not even for MERCHANTABILITY or FITNESS FOR A PARTICULAR
PURPOSE. For details see the documentation. Scientific users of this 
library should cite U. Ekstrom, L. Visscher, R. Bast, A. J. Thorvald-
sen and K. Ruud; J.Chem.Theor.Comp. 2010, DOI: 10.1021/ct100117s
XCFun Version 0.99 
----- Orbital basis set information -----
Your calculation utilizes the basis: def2-SVP
   F. Weigend and R. Ahlrichs, Phys. Chem. Chem. Phys. 7, 3297 (2005).

----- AuxJ basis set information -----
Your calculation utilizes the auxiliary basis: def2/J
   F. Weigend, Phys. Chem. Chem. Phys. 8, 1057 (2006).

================================================================================
                                        WARNINGS
                       Please study these warnings very carefully!
================================================================================

INFO   : Checking CIS options ...

WARNING: CIS/ROCIS methods need fully converged wavefunctions
  ===> : Setting SCFConvForced true
         You can overwrite this default with %scf ConvForced false 


INFO   : the flag for use of LIBINT has been found!

================================================================================
                                       INPUT FILE
================================================================================
NAME = xtbopt.inp
|  1> # ORCA input file
|  2> # SCF done       -220.157147301183          0.000451538918
|  3> ! CAM-B3LYP def2-SVP def2/J RIJCOSX Grid4 TightSCF
|  4> %maxcore 5000
|  5> %tddft
|  6>     Mode sTDDFT
|  7>     Ethresh 5.0
|  8>     maxcore 5000
|  9> end
| 10> 
| 11> %pal
| 12>   nprocs 6
| 13>   end
| 14> * xyz 0 1
| 15>    C        0.40302         3.61932         4.47423
| 16>    C        1.27949         4.44742         3.82225
| 17>    C        2.66372         4.49798         4.09022
| 18>    N        3.79421         4.58635         4.26812
| 19>    C        0.93582         5.32520         2.77216
| 20>    N        0.73385         6.04461         1.90020
| 21>    C        0.75937         2.62921         5.48155
| 22>    C       -0.38956         1.85840         5.78339
| 23>    C       -0.37658         0.83288         6.69746
| 24>    C        0.82988         0.55625         7.34841
| 25>    C        1.97239         1.33655         7.04621
| 26>    C        1.95872         2.37179         6.11967
| 27>    S        3.35293         0.83238         7.97181
| 28>    C        2.39230        -0.40410         8.73936
| 29>    C        1.10298        -0.43900         8.32576
| 30>   Br        3.18092        -1.52872        10.01534
| 31>    C       -1.53557         2.34122         4.99029
| 32>    O       -2.66591         1.90690         5.03380
| 33>    C       -1.02210         3.50188         4.21856
| 34>    C       -1.77103         4.43508         3.55710
| 35>    C       -3.12852         4.37201         3.17981
| 36>    C       -3.97792         3.28784         2.99563
| 37>    C       -5.24740         3.68269         2.59942
| 38>    C       -5.38341         5.08592         2.47967
| 39>    S       -3.93135         5.90407         2.81148
| 40>    C       -6.72199         5.38639         2.13883
| 41>    C       -7.43425         4.17028         2.03324
| 42>    C       -6.52603         3.06409         2.29623
| 43>    C       -6.81674         1.73293         2.25065
| 44>    C       -5.84951         0.72945         2.47778
| 45>    N       -5.07847        -0.10370         2.63503
| 46>    C       -8.11331         1.26677         1.94453
| 47>    N       -9.16808         0.89109         1.69764
| 48>    C       -8.77547         4.35844         1.73432
| 49>    C       -9.08633         5.70909         1.61880
| 50>    S       -7.70234         6.76134         1.86630
| 51>    C      -10.34220         6.28598         1.37177
| 52>    C      -10.59863         7.66062         1.31197
| 53>    C      -11.98250         7.97974         1.10078
| 54>    N      -12.38835         9.25135         1.07315
| 55>    C      -11.46687        10.17663         1.23229
| 56>    C      -11.93235        11.58930         1.25382
| 57>    O      -13.10497        11.88789         1.23601
| 58>    C      -10.85790        12.59688         1.32549
| 59>    C       -9.56300        12.29338         1.46065
| 60>    C       -9.05244        10.91448         1.54732
| 61>    O       -7.87893        10.66167         1.71753
| 62>    C      -10.08362         9.85475         1.40565
| 63>    N       -9.67073         8.60629         1.44945
| 64>    C      -12.78660         6.83514         0.98905
| 65>    S      -11.81542         5.39988         1.15338
| 66>    C      -14.18184         6.78751         0.81724
| 67>    C      -15.03123         7.86704         0.59260
| 68>    C      -16.35733         7.46326         0.50964
| 69>    C      -16.52559         6.07180         0.68585
| 70>    S      -15.04514         5.25848         0.91978
| 71>    C      -17.90419         5.77004         0.65286
| 72>    C      -18.61777         6.97155         0.45435
| 73>    C      -17.67080         8.06728         0.33387
| 74>    C      -17.97098         9.37398         0.09015
| 75>    C      -16.99153        10.36928        -0.12251
| 76>    N      -16.21984        11.18473        -0.35027
| 77>    C      -19.31173         9.80373        -0.01773
| 78>    N      -20.40610        10.13609        -0.09987
| 79>    C      -19.99313         6.78671         0.45830
| 80>    C      -20.34487         5.45935         0.66357
| 81>    S      -18.93165         4.42234         0.81036
| 82>    C      -21.63270         4.88274         0.72524
| 83>    C      -22.82579         5.48941         0.97312
| 84>    C      -23.19169         6.78883         1.49849
| 85>    C      -22.48299         7.54107         2.39929
| 86>    C      -22.96737         8.73234         2.98002
| 87>    N      -23.31717         9.70204         3.48349
| 88>    C      -21.23537         7.16298         2.93185
| 89>    N      -20.23258         6.88125         3.41504
| 90>    C      -24.58270         7.02657         1.12764
| 91>    C      -25.13225         5.82189         0.61926
| 92>    C      -24.08209         4.78757         0.57953
| 93>    O      -24.18610         3.62777         0.25544
| 94>    C      -26.44562         5.71909         0.22892
| 95>    C      -27.24782         6.86046         0.33167
| 96>    C      -26.68247         8.06416         0.81934
| 97>    C      -25.35690         8.16653         1.22358
| 98>    S      -27.84611         9.35213         0.84617
| 99>    C      -29.06268         8.27187         0.21859
|100>    C      -28.62085         7.01099        -0.00412
|101>   Br      -30.79874         8.91053        -0.08584
|102>    H       -1.26891         0.26241         6.90192
|103>    H        2.85314         2.94072         5.92845
|104>    H        0.37321        -1.13656         8.69413
|105>    H       -1.28821         5.37481         3.31449
|106>    H       -3.66984         2.27071         3.14717
|107>    H       -9.50886         3.58161         1.61181
|108>    H      -11.19381        13.62403         1.28047
|109>    H       -8.80778        13.06491         1.52713
|110>    H      -14.66296         8.87485         0.51630
|111>    H      -20.71680         7.56237         0.28607
|112>    H      -21.69911         3.82535         0.48706
|113>    H      -26.84243         4.78812        -0.14423
|114>    H      -24.96515         9.10473         1.58022
|115>    H      -29.23643         6.21875        -0.38921
|116> *
|117> 
|118>                          ****END OF INPUT****
================================================================================

                       ****************************
                       * Single Point Calculation *
                       ****************************

---------------------------------
CARTESIAN COORDINATES (ANGSTROEM)
---------------------------------
  C      0.403020    3.619320    4.474230
  C      1.279490    4.447420    3.822250
  C      2.663720    4.497980    4.090220
  N      3.794210    4.586350    4.268120
  C      0.935820    5.325200    2.772160
  N      0.733850    6.044610    1.900200
  C      0.759370    2.629210    5.481550
  C     -0.389560    1.858400    5.783390
  C     -0.376580    0.832880    6.697460
  C      0.829880    0.556250    7.348410
  C      1.972390    1.336550    7.046210
  C      1.958720    2.371790    6.119670
  S      3.352930    0.832380    7.971810
  C      2.392300   -0.404100    8.739360
  C      1.102980   -0.439000    8.325760
  Br     3.180920   -1.528720   10.015340
  C     -1.535570    2.341220    4.990290
  O     -2.665910    1.906900    5.033800
  C     -1.022100    3.501880    4.218560
  C     -1.771030    4.435080    3.557100
  C     -3.128520    4.372010    3.179810
  C     -3.977920    3.287840    2.995630
  C     -5.247400    3.682690    2.599420
  C     -5.383410    5.085920    2.479670
  S     -3.931350    5.904070    2.811480
  C     -6.721990    5.386390    2.138830
  C     -7.434250    4.170280    2.033240
  C     -6.526030    3.064090    2.296230
  C     -6.816740    1.732930    2.250650
  C     -5.849510    0.729450    2.477780
  N     -5.078470   -0.103700    2.635030
  C     -8.113310    1.266770    1.944530
  N     -9.168080    0.891090    1.697640
  C     -8.775470    4.358440    1.734320
  C     -9.086330    5.709090    1.618800
  S     -7.702340    6.761340    1.866300
  C    -10.342200    6.285980    1.371770
  C    -10.598630    7.660620    1.311970
  C    -11.982500    7.979740    1.100780
  N    -12.388350    9.251350    1.073150
  C    -11.466870   10.176630    1.232290
  C    -11.932350   11.589300    1.253820
  O    -13.104970   11.887890    1.236010
  C    -10.857900   12.596880    1.325490
  C     -9.563000   12.293380    1.460650
  C     -9.052440   10.914480    1.547320
  O     -7.878930   10.661670    1.717530
  C    -10.083620    9.854750    1.405650
  N     -9.670730    8.606290    1.449450
  C    -12.786600    6.835140    0.989050
  S    -11.815420    5.399880    1.153380
  C    -14.181840    6.787510    0.817240
  C    -15.031230    7.867040    0.592600
  C    -16.357330    7.463260    0.509640
  C    -16.525590    6.071800    0.685850
  S    -15.045140    5.258480    0.919780
  C    -17.904190    5.770040    0.652860
  C    -18.617770    6.971550    0.454350
  C    -17.670800    8.067280    0.333870
  C    -17.970980    9.373980    0.090150
  C    -16.991530   10.369280   -0.122510
  N    -16.219840   11.184730   -0.350270
  C    -19.311730    9.803730   -0.017730
  N    -20.406100   10.136090   -0.099870
  C    -19.993130    6.786710    0.458300
  C    -20.344870    5.459350    0.663570
  S    -18.931650    4.422340    0.810360
  C    -21.632700    4.882740    0.725240
  C    -22.825790    5.489410    0.973120
  C    -23.191690    6.788830    1.498490
  C    -22.482990    7.541070    2.399290
  C    -22.967370    8.732340    2.980020
  N    -23.317170    9.702040    3.483490
  C    -21.235370    7.162980    2.931850
  N    -20.232580    6.881250    3.415040
  C    -24.582700    7.026570    1.127640
  C    -25.132250    5.821890    0.619260
  C    -24.082090    4.787570    0.579530
  O    -24.186100    3.627770    0.255440
  C    -26.445620    5.719090    0.228920
  C    -27.247820    6.860460    0.331670
  C    -26.682470    8.064160    0.819340
  C    -25.356900    8.166530    1.223580
  S    -27.846110    9.352130    0.846170
  C    -29.062680    8.271870    0.218590
  C    -28.620850    7.010990   -0.004120
  Br   -30.798740    8.910530   -0.085840
  H     -1.268910    0.262410    6.901920
  H      2.853140    2.940720    5.928450
  H      0.373210   -1.136560    8.694130
  H     -1.288210    5.374810    3.314490
  H     -3.669840    2.270710    3.147170
  H     -9.508860    3.581610    1.611810
  H    -11.193810   13.624030    1.280470
  H     -8.807780   13.064910    1.527130
  H    -14.662960    8.874850    0.516300
  H    -20.716800    7.562370    0.286070
  H    -21.699110    3.825350    0.487060
  H    -26.842430    4.788120   -0.144230
  H    -24.965150    9.104730    1.580220
  H    -29.236430    6.218750   -0.389210

----------------------------
CARTESIAN COORDINATES (A.U.)
----------------------------
  NO LB      ZA    FRAG     MASS         X           Y           Z
   0 C     6.0000    0    12.011    0.761597    6.839524    8.455069
   1 C     6.0000    0    12.011    2.417886    8.404406    7.223006
   2 C     6.0000    0    12.011    5.033701    8.499950    7.729396
   3 N     7.0000    0    14.007    7.170018    8.666945    8.065578
   4 C     6.0000    0    12.011    1.768444   10.063170    5.238623
   5 N     7.0000    0    14.007    1.386776   11.422657    3.590858
   6 C     6.0000    0    12.011    1.435001    4.968487   10.358628
   7 C     6.0000    0    12.011   -0.736162    3.511867   10.929023
   8 C     6.0000    0    12.011   -0.711633    1.573915   12.656365
   9 C     6.0000    0    12.011    1.568246    1.051160   13.886482
  10 C     6.0000    0    12.011    3.727277    2.525713   13.315407
  11 C     6.0000    0    12.011    3.701444    4.482034   11.564500
  12 S    16.0000    0    32.060    6.336119    1.572970   15.064538
  13 C     6.0000    0    12.011    4.520792   -0.763638   16.514997
  14 C     6.0000    0    12.011    2.084330   -0.829590   15.733406
  15 Br   35.0000    0    79.900    6.011068   -2.888862   18.926250
  16 C     6.0000    0    12.011   -2.901807    4.424265    9.430281
  17 O     8.0000    0    15.999   -5.037840    3.603519    9.512503
  18 C     6.0000    0    12.011   -1.931489    6.617594    7.971923
  19 C     6.0000    0    12.011   -3.346762    8.381087    6.721945
  20 C     6.0000    0    12.011   -5.912046    8.261902    6.008970
  21 C     6.0000    0    12.011   -7.517179    6.213117    5.660920
  22 C     6.0000    0    12.011   -9.916149    6.959276    4.912192
  23 C     6.0000    0    12.011  -10.173171    9.610996    4.685897
  24 S    16.0000    0    32.060   -7.429175   11.157075    5.312927
  25 C     6.0000    0    12.011  -12.702720   10.178802    4.041803
  26 C     6.0000    0    12.011  -14.048697    7.880687    3.842267
  27 C     6.0000    0    12.011  -12.332409    5.790291    4.339246
  28 C     6.0000    0    12.011  -12.881772    3.274763    4.253112
  29 C     6.0000    0    12.011  -11.053972    1.378461    4.682326
  30 N     7.0000    0    14.007   -9.596917   -0.195965    4.979485
  31 C     6.0000    0    12.011  -15.331934    2.393848    3.674629
  32 N     7.0000    0    14.007  -17.325160    1.683916    3.208075
  33 C     6.0000    0    12.011  -16.583235    8.236258    3.277390
  34 C     6.0000    0    12.011  -17.170675   10.788617    3.059089
  35 S    16.0000    0    32.060  -14.555313   12.777081    3.526796
  36 C     6.0000    0    12.011  -19.543926   11.878781    2.592270
  37 C     6.0000    0    12.011  -20.028508   14.476474    2.479264
  38 C     6.0000    0    12.011  -22.643643   15.079523    2.080173
  39 N     7.0000    0    14.007  -23.410589   17.482518    2.027960
  40 C     6.0000    0    12.011  -21.669244   19.231044    2.328691
  41 C     6.0000    0    12.011  -22.548874   21.900603    2.369376
  42 O     8.0000    0    15.999  -24.764804   22.464856    2.335720
  43 C     6.0000    0    12.011  -20.518457   23.804653    2.504813
  44 C     6.0000    0    12.011  -18.071451   23.231121    2.760228
  45 C     6.0000    0    12.011  -17.106632   20.625378    2.924011
  46 O     8.0000    0    15.999  -14.889020   20.147636    3.245661
  47 C     6.0000    0    12.011  -19.055280   18.622779    2.656294
  48 N     7.0000    0    14.007  -18.275031   16.263531    2.739064
  49 C     6.0000    0    12.011  -24.163172   12.916543    1.869034
  50 S    16.0000    0    32.060  -22.327908   10.204294    2.179572
  51 C     6.0000    0    12.011  -26.799794   12.826535    1.544360
  52 C     6.0000    0    12.011  -28.404908   14.866551    1.119852
  53 C     6.0000    0    12.011  -30.910874   14.103517    0.963080
  54 C     6.0000    0    12.011  -31.228839   11.474039    1.296069
  55 S    16.0000    0    32.060  -28.431194    9.937087    1.738132
  56 C     6.0000    0    12.011  -33.834016   10.903795    1.233727
  57 C     6.0000    0    12.011  -35.182487   13.174320    0.858597
  58 C     6.0000    0    12.011  -33.392973   15.244950    0.630923
  59 C     6.0000    0    12.011  -33.960231   17.714255    0.170359
  60 C     6.0000    0    12.011  -32.109338   19.595099   -0.231510
  61 N     7.0000    0    14.007  -30.651056   21.136077   -0.661914
  62 C     6.0000    0    12.011  -36.493881   18.526365   -0.033505
  63 N     7.0000    0    14.007  -38.561940   19.154434   -0.188727
  64 C     6.0000    0    12.011  -37.781540   12.825023    0.866061
  65 C     6.0000    0    12.011  -38.446233   10.316676    1.253966
  66 S    16.0000    0    32.060  -35.775634    8.357011    1.531358
  67 C     6.0000    0    12.011  -40.879879    9.227041    1.370505
  68 C     6.0000    0    12.011  -43.134492   10.373482    1.838930
  69 C     6.0000    0    12.011  -43.825943   12.829029    2.831736
  70 C     6.0000    0    12.011  -42.486694   14.250557    4.534001
  71 C     6.0000    0    12.011  -43.402039   16.501731    5.631422
  72 N     7.0000    0    14.007  -44.063066   18.334199    6.582842
  73 C     6.0000    0    12.011  -40.129034   13.536071    5.540394
  74 N     7.0000    0    14.007  -38.234035   13.003678    6.453490
  75 C     6.0000    0    12.011  -46.454571   13.278293    2.130931
  76 C     6.0000    0    12.011  -47.493070   11.001778    1.170232
  77 C     6.0000    0    12.011  -45.508555    9.047196    1.095153
  78 O     8.0000    0    15.999  -45.705105    6.855492    0.482712
  79 C     6.0000    0    12.011  -49.974979   10.807514    0.432596
  80 C     6.0000    0    12.011  -51.490918   12.964391    0.626765
  81 C     6.0000    0    12.011  -50.422561   15.239054    1.548328
  82 C     6.0000    0    12.011  -47.917597   15.432505    2.312231
  83 S    16.0000    0    32.060  -52.621522   17.672964    1.599030
  84 C     6.0000    0    12.011  -54.920506   15.631569    0.413075
  85 C     6.0000    0    12.011  -54.085568   13.248851   -0.007786
  86 Br   35.0000    0    79.900  -58.201184   16.838461   -0.162214
  87 H     1.0000    0     1.008   -2.397892    0.495883   13.042739
  88 H     1.0000    0     1.008    5.391653    5.557155   11.203147
  89 H     1.0000    0     1.008    0.705265   -2.147787   16.429525
  90 H     1.0000    0     1.008   -2.434364   10.156919    6.263478
  91 H     1.0000    0     1.008   -6.934993    4.291020    5.947289
  92 H     1.0000    0     1.008  -17.969141    6.768262    3.045879
  93 H     1.0000    0     1.008  -21.153235   25.745686    2.419738
  94 H     1.0000    0     1.008  -16.644292   24.689102    2.885857
  95 H     1.0000    0     1.008  -27.708979   16.771036    0.975666
  96 H     1.0000    0     1.008  -39.149078   14.290808    0.540594
  97 H     1.0000    0     1.008  -41.005375    7.228864    0.920410
  98 H     1.0000    0     1.008  -50.724841    9.048235   -0.272555
  99 H     1.0000    0     1.008  -47.177296   17.205446    2.986183
 100 H     1.0000    0     1.008  -55.248846   11.751734   -0.735500

--------------------------------
INTERNAL COORDINATES (ANGSTROEM)
--------------------------------
 C      0   0   0     0.000000000000     0.00000000     0.00000000
 C      1   0   0     1.370776127345     0.00000000     0.00000000
 C      2   1   0     1.410835542294   123.96242759     0.00000000
 N      3   2   1     1.147808915717   176.89874437   184.84928121
 C      2   1   3     1.411132809271   125.02947164   177.79776541
 N      5   2   1     1.148327858497   176.01799262   196.38526460
 C      1   2   3     1.456707491915   125.66841213   356.77169947
 C      7   1   2     1.416084597261   108.59586723   187.70441428
 C      8   7   1     1.373820845562   122.71617710   179.68335029
 C      9   8   7     1.398501265999   117.74267800     0.15001055
 C     10   9   8     1.416164549090   119.18711608     0.19892946
 C      7   1   2     1.382715666108   131.13625749     7.78221086
 S     11  10   9     1.736897648251   111.56674674   179.60394134
 C     13  11  10     1.743796372803    90.14475811     0.10112410
 C     14  13  11     1.354484784854   114.09467429   359.96441818
 Br    14  13  11     1.874784416726   119.55084959   180.08183860
 C      8   7   1     1.474944637097   109.73090872   359.19787992
 O     17   8   7     1.211691172742   126.02767531   181.27462713
 C      1   2   3     1.452627384053   126.32866316   181.59015082
 C     19   1   2     1.367218971672   124.56720202   341.28248608
 C     20  19   1     1.410356220641   128.76613688   175.12006124
 C     21  20  19     1.389542090510   131.20208473   338.55523239
 C     22  21  20     1.387252088483   112.03453514   180.89298480
 C     23  22  21     1.414882756804   113.23000544   359.81532413
 S     24  23  22     1.699395640279   112.25987912     1.71919412
 C     24  23  22     1.413594900564   108.79848956   182.88659020
 C     26  24  23     1.413289456481   108.20039706   359.60444916
 C     23  22  21     1.452406559129   138.07398100   181.97330690
 C     28  23  22     1.363296294318   127.63145898   355.47119240
 C     29  28  23     1.412123939391   122.84924576   358.54250053
 N     30  29  28     1.146023196362   178.21168080   221.50453060
 C     29  28  23     1.411420690262   121.71077660   179.79226950
 N     32  29  28     1.146573105999   179.80986916   325.68417663
 C     27  26  24     1.386949328707   112.75067735   178.41842055
 C     34  27  26     1.390767497643   111.45684910   359.71683459
 S     26  24  23     1.710510516162   138.76336907   177.59730903
 C     35  34  27     1.403935664445   127.85136498   182.37494930
 C     37  35  34     1.399631206604   125.09823198   177.67484771
 C     38  37  35     1.435804641099   113.65072001   182.50976878
 N     39  38  37     1.335091619141   120.51245812   177.39734964
 C     40  39  38     1.315520432529   117.03126408     0.70564077
 C     41  40  39     1.487538806284   116.77685563   182.32087911
 O     42  41  40     1.210169760240   122.50089818     5.83774581
 C     42  41  40     1.474719243721   114.93337668   184.67975769
 C     44  42  41     1.336841982285   123.74662832   355.26121770
 C     45  44  42     1.472938699505   123.65797219     0.32989156
 O     46  45  44     1.212439714089   122.61278180   182.69738547
 C     41  40  39     1.430748400838   122.25139258     1.04279747
 N     48  41  40     1.315693339536   121.39341800   358.17106919
 C     39  38  37     1.403271022611   112.50190760   359.56675210
 S     37  35  34     1.732987181286   124.92605036     0.04123011
 C     50  39  38     1.406585209150   127.28226471   178.07270983
 C     52  50  39     1.391873385980   126.78241359     6.78295676
 C     53  52  50     1.388690699904   111.52281649   181.81632790
 C     54  53  52     1.412629577526   113.12238844     0.65150301
 S     55  54  53     1.705269735203   112.55074879   358.75214405
 C     55  54  53     1.411625091056   108.90340837   177.05305063
 C     57  55  54     1.411463395416   108.36380052     0.03337976
 C     58  57  55     1.453234958360   108.90864154     1.00719419
 C     59  58  57     1.362707731247   126.46201003   177.62719486
 C     60  59  58     1.412504395781   123.35702820   185.33627447
 N     61  60  59     1.145573557743   176.98279609   118.01264624
 C     60  59  58     1.412067179493   120.97426138     2.75624799
 N     63  60  59     1.146671638308   179.08197432     7.92462256
 C     58  57  55     1.387730722331   112.78474874   182.32295454
 C     65  58  57     1.388431262288   112.26159437     0.28102427
 S     57  55  54     1.701991654386   139.17101738   181.66672911
 C     66  65  58     1.412369778033   128.88451169   180.33030648
 C     68  66  65     1.361233533013   128.69626371   339.63996731
 C     69  68  66     1.448581645369   133.41042003   345.82400759
 C     70  69  68     1.370970950677   126.86404317   329.57485455
 C     71  70  69     1.411026410171   123.79364819   187.21466935
 N     72  71  70     1.147240241144   177.30116654   174.14221052
 C     71  70  69     1.408235728172   123.99634835     2.00442048
 N     74  71  70     1.148230008796   177.12820180   212.87140818
 C     70  69  68     1.459095216290   107.14459332   161.77082255
 C     76  70  69     1.418347393730   108.78922414    10.68073966
 C     77  76  70     1.474527843379   109.23823375   356.90599332
 O     78  77  76     1.208713550929   128.24399994   176.94177465
 C     77  76  70     1.373999240356   122.39376594   177.67687729
 C     80  77  76     1.398859492372   117.79107510     0.70854753
 C     81  80  77     1.416452025802   119.32588371     0.38212434
 C     76  70  69     1.381339540157   130.62679026   189.59442419
 S     82  81  80     1.735985201377   111.60886439   179.34883508
 C     84  82  81     1.743806436764    90.14136613     0.26211380
 C     85  84  82     1.354485831377   114.09651299   359.82703956
 Br    85  84  82     1.874691586395   119.56833526   179.93022839
 H      9   8   7     1.078653207199   120.86990977   180.22287606
 H     12   7   1     1.077141387980   122.68281674     0.63589016
 H     15  14  13     1.074639783090   123.94979292   180.00600675
 H     20  19   1     1.084005183290   117.12970391   352.38013074
 H     22  21  20     1.073513434895   123.03271980     0.89878666
 H     34  27  26     1.075329921977   125.87901573   180.34747515
 H     44  42  41     1.081618902849   114.86844710   176.45352980
 H     45  44  42     1.081681736788   121.37034007   181.11955338
 H     53  52  50     1.075697670816   121.94959437     0.85890128
 H     65  58  57     1.074713858383   124.80391052   182.52655374
 H     68  66  65     1.085916024654   116.34138495   155.62773416
 H     80  77  76     1.078612182158   120.96503649   180.69417426
 H     83  76  70     1.077441131617   122.53488867     2.85642679
 H     86  85  84     1.074652158654   123.94017011   180.03489272

---------------------------
INTERNAL COORDINATES (A.U.)
---------------------------
 C      0   0   0     0.000000000000     0.00000000     0.00000000
 C      1   0   0     2.590391471600     0.00000000     0.00000000
 C      2   1   0     2.666092794938   123.96242759     0.00000000
 N      3   2   1     2.169044504779   176.89874437   184.84928121
 C      2   1   3     2.666654548112   125.02947164   177.79776541
 N      5   2   1     2.170025164511   176.01799262   196.38526460
 C      1   2   3     2.752778216950   125.66841213   356.77169947
 C      7   1   2     2.676012071288   108.59586723   187.70441428
 C      8   7   1     2.596145155184   122.71617710   179.68335029
 C      9   8   7     2.642784390680   117.74267800     0.15001055
 C     10   9   8     2.676163158349   119.18711608     0.19892946
 C      7   1   2     2.612953930026   131.13625749     7.78221086
 S     11  10   9     3.282260877846   111.56674674   179.60394134
 C     13  11  10     3.295297577922    90.14475811     0.10112410
 C     14  13  11     2.559605295937   114.09467429   359.96441818
 Br    14  13  11     3.542829107756   119.55084959   180.08183860
 C      8   7   1     2.787241426808   109.73090872   359.19787992
 O     17   8   7     2.289764475372   126.02767531   181.27462713
 C      1   2   3     2.745067930494   126.32866316   181.59015082
 C     19   1   2     2.583669421562   124.56720202   341.28248608
 C     20  19   1     2.665187008283   128.76613688   175.12006124
 C     21  20  19     2.625854002621   131.20208473   338.55523239
 C     22  21  20     2.621526525943   112.03453514   180.89298480
 C     23  22  21     2.673740921966   113.23000544   359.81532413
 S     24  23  22     3.211392353307   112.25987912     1.71919412
 C     24  23  22     2.671307226373   108.79848956   182.88659020
 C     26  24  23     2.670730020707   108.20039706   359.60444916
 C     23  22  21     2.744650631864   138.07398100   181.97330690
 C     28  23  22     2.576256635650   127.63145898   355.47119240
 C     29  28  23     2.668527512602   122.84924576   358.54250053
 N     30  29  28     2.165669984245   178.21168080   221.50453060
 C     29  28  23     2.667198564346   121.71077660   179.79226950
 N     32  29  28     2.166709162857   179.80986916   325.68417663
 C     27  26  24     2.620954392882   112.75067735   178.41842055
 C     34  27  26     2.628169686504   111.45684910   359.71683459
 S     26  24  23     3.232396424738   138.76336907   177.59730903
 C     35  34  27     2.653053915445   127.85136498   182.37494930
 C     37  35  34     2.644919668971   125.09823198   177.67484771
 C     38  37  35     2.713277553489   113.65072001   182.50976878
 N     39  38  37     2.522957523870   120.51245812   177.39734964
 C     40  39  38     2.485973341057   117.03126408     0.70564077
 C     41  40  39     2.811040957456   116.77685563   182.32087911
 O     42  41  40     2.286889422407   122.50089818     5.83774581
 C     42  41  40     2.786815495055   114.93337668   184.67975769
 C     44  42  41     2.526265230847   123.74662832   355.26121770
 C     45  44  42     2.783450754119   123.65797219     0.32989156
 O     46  45  44     2.291179013518   122.61278180   182.69738547
 C     41  40  39     2.703722644129   122.25139258     1.04279747
 N     48  41  40     2.486300087948   121.39341800   358.17106919
 C     39  38  37     2.651797924403   112.50190760   359.56675210
 S     37  35  34     3.274871166226   124.92605036     0.04123011
 C     50  39  38     2.658060829318   127.28226471   178.07270983
 C     52  50  39     2.630259512596   126.78241359     6.78295676
 C     53  52  50     2.624245107542   111.52281649   181.81632790
 C     54  53  52     2.669483030200   113.12238844     0.65150301
 S     55  54  53     3.222492783998   112.55074879   358.75214405
 C     55  54  53     2.667584825868   108.90340837   177.05305063
 C     57  55  54     2.667279265391   108.36380052     0.03337976
 C     58  57  55     2.746216079541   108.90864154     1.00719419
 C     59  58  57     2.575144412634   126.46201003   177.62719486
 C     60  59  58     2.669246470986   123.35702820   185.33627447
 N     61  60  59     2.164820290396   176.98279609   118.01264624
 C     60  59  58     2.668420251940   120.97426138     2.75624799
 N     63  60  59     2.166895361937   179.08197432     7.92462256
 C     58  57  55     2.622431012833   112.78474874   182.32295454
 C     65  58  57     2.623754841500   112.26159437     0.28102427
 S     57  55  54     3.216298109009   139.17101738   181.66672911
 C     66  65  58     2.668992080309   128.88451169   180.33030648
 C     68  66  65     2.572358581705   128.69626371   339.63996731
 C     69  68  66     2.737422592372   133.41042003   345.82400759
 C     70  69  68     2.590759634341   126.86404317   329.57485455
 C     71  70  69     2.666453482953   123.79364819   187.21466935
 N     72  71  70     2.167969865576   177.30116654   174.14221052
 C     71  70  69     2.661179858248   123.99634835     2.00442048
 N     74  71  70     2.169840255375   177.12820180   212.87140818
 C     70  69  68     2.757290362102   107.14459332   161.77082255
 C     76  70  69     2.680288136910   108.78922414    10.68073966
 C     77  76  70     2.786453800828   109.23823375   356.90599332
 O     78  77  76     2.284137585616   128.24399994   176.94177465
 C     77  76  70     2.596482272489   122.39376594   177.67687729
 C     80  77  76     2.643461340420   117.79107510     0.70854753
 C     81  80  77     2.676706410605   119.32588371     0.38212434
 C     76  70  69     2.610353428853   130.62679026   189.59442419
 S     82  81  80     3.280536603143   111.60886439   179.34883508
 C     84  82  81     3.295316596053    90.14136613     0.26211380
 C     85  84  82     2.559607273578   114.09651299   359.82703956
 Br    85  84  82     3.542653683853   119.56833526   179.93022839
 H      9   8   7     2.038359155081   120.86990977   180.22287606
 H     12   7   1     2.035502230794   122.68281674     0.63589016
 H     15  14  13     2.030774882657   123.94979292   180.00600675
 H     20  19   1     2.048472924170   117.12970391   352.38013074
 H     22  21  20     2.028646393037   123.03271980     0.89878666
 H     34  27  26     2.032079056148   125.87901573   180.34747515
 H     44  42  41     2.043963507657   114.86844710   176.45352980
 H     45  44  42     2.044082246593   121.37034007   181.11955338
 H     53  52  50     2.032774000740   121.94959437     0.85890128
 H     65  58  57     2.030914864673   124.80391052   182.52655374
 H     68  66  65     2.052083891032   116.34138495   155.62773416
 H     80  77  76     2.038281628990   120.96503649   180.69417426
 H     83  76  70     2.036068664178   122.53488867     2.85642679
 H     86  85  84     2.030798269084   123.94017011   180.03489272

---------------------
BASIS SET INFORMATION
---------------------
There are 6 groups of distinct atoms

 Group   1 Type C   : 7s4p1d contracted to 3s2p1d pattern {511/31/1}
 Group   2 Type N   : 7s4p1d contracted to 3s2p1d pattern {511/31/1}
 Group   3 Type S   : 10s7p1d contracted to 4s3p1d pattern {5311/511/1}
 Group   4 Type Br  : 14s10p6d contracted to 5s4p3d pattern {63311/5311/411}
 Group   5 Type O   : 7s4p1d contracted to 3s2p1d pattern {511/31/1}
 Group   6 Type H   : 4s1p contracted to 2s1p pattern {31/1}

Atom   0C    basis set group =>   1
Atom   1C    basis set group =>   1
Atom   2C    basis set group =>   1
Atom   3N    basis set group =>   2
Atom   4C    basis set group =>   1
Atom   5N    basis set group =>   2
Atom   6C    basis set group =>   1
Atom   7C    basis set group =>   1
Atom   8C    basis set group =>   1
Atom   9C    basis set group =>   1
Atom  10C    basis set group =>   1
Atom  11C    basis set group =>   1
Atom  12S    basis set group =>   3
Atom  13C    basis set group =>   1
Atom  14C    basis set group =>   1
Atom  15Br   basis set group =>   4
Atom  16C    basis set group =>   1
Atom  17O    basis set group =>   5
Atom  18C    basis set group =>   1
Atom  19C    basis set group =>   1
Atom  20C    basis set group =>   1
Atom  21C    basis set group =>   1
Atom  22C    basis set group =>   1
Atom  23C    basis set group =>   1
Atom  24S    basis set group =>   3
Atom  25C    basis set group =>   1
Atom  26C    basis set group =>   1
Atom  27C    basis set group =>   1
Atom  28C    basis set group =>   1
Atom  29C    basis set group =>   1
Atom  30N    basis set group =>   2
Atom  31C    basis set group =>   1
Atom  32N    basis set group =>   2
Atom  33C    basis set group =>   1
Atom  34C    basis set group =>   1
Atom  35S    basis set group =>   3
Atom  36C    basis set group =>   1
Atom  37C    basis set group =>   1
Atom  38C    basis set group =>   1
Atom  39N    basis set group =>   2
Atom  40C    basis set group =>   1
Atom  41C    basis set group =>   1
Atom  42O    basis set group =>   5
Atom  43C    basis set group =>   1
Atom  44C    basis set group =>   1
Atom  45C    basis set group =>   1
Atom  46O    basis set group =>   5
Atom  47C    basis set group =>   1
Atom  48N    basis set group =>   2
Atom  49C    basis set group =>   1
Atom  50S    basis set group =>   3
Atom  51C    basis set group =>   1
Atom  52C    basis set group =>   1
Atom  53C    basis set group =>   1
Atom  54C    basis set group =>   1
Atom  55S    basis set group =>   3
Atom  56C    basis set group =>   1
Atom  57C    basis set group =>   1
Atom  58C    basis set group =>   1
Atom  59C    basis set group =>   1
Atom  60C    basis set group =>   1
Atom  61N    basis set group =>   2
Atom  62C    basis set group =>   1
Atom  63N    basis set group =>   2
Atom  64C    basis set group =>   1
Atom  65C    basis set group =>   1
Atom  66S    basis set group =>   3
Atom  67C    basis set group =>   1
Atom  68C    basis set group =>   1
Atom  69C    basis set group =>   1
Atom  70C    basis set group =>   1
Atom  71C    basis set group =>   1
Atom  72N    basis set group =>   2
Atom  73C    basis set group =>   1
Atom  74N    basis set group =>   2
Atom  75C    basis set group =>   1
Atom  76C    basis set group =>   1
Atom  77C    basis set group =>   1
Atom  78O    basis set group =>   5
Atom  79C    basis set group =>   1
Atom  80C    basis set group =>   1
Atom  81C    basis set group =>   1
Atom  82C    basis set group =>   1
Atom  83S    basis set group =>   3
Atom  84C    basis set group =>   1
Atom  85C    basis set group =>   1
Atom  86Br   basis set group =>   4
Atom  87H    basis set group =>   6
Atom  88H    basis set group =>   6
Atom  89H    basis set group =>   6
Atom  90H    basis set group =>   6
Atom  91H    basis set group =>   6
Atom  92H    basis set group =>   6
Atom  93H    basis set group =>   6
Atom  94H    basis set group =>   6
Atom  95H    basis set group =>   6
Atom  96H    basis set group =>   6
Atom  97H    basis set group =>   6
Atom  98H    basis set group =>   6
Atom  99H    basis set group =>   6
Atom 100H    basis set group =>   6
---------------------------------
AUXILIARY/J BASIS SET INFORMATION
---------------------------------
There are 6 groups of distinct atoms

 Group   1 Type C   : 12s5p4d2f1g contracted to 6s4p3d1f1g pattern {711111/2111/211/2/1}
 Group   2 Type N   : 12s5p4d2f1g contracted to 6s4p3d1f1g pattern {711111/2111/211/2/1}
 Group   3 Type S   : 14s5p5d2f1g contracted to 8s4p3d1f1g pattern {71111111/2111/311/2/1}
 Group   4 Type Br  : 19s5p5d3f1g contracted to 8s4p3d2f1g pattern {121111111/2111/311/21/1}
 Group   5 Type O   : 12s5p4d2f1g contracted to 6s4p3d1f1g pattern {711111/2111/211/2/1}
 Group   6 Type H   : 5s2p1d contracted to 3s1p1d pattern {311/2/1}

Atom   0C    basis set group =>   1
Atom   1C    basis set group =>   1
Atom   2C    basis set group =>   1
Atom   3N    basis set group =>   2
Atom   4C    basis set group =>   1
Atom   5N    basis set group =>   2
Atom   6C    basis set group =>   1
Atom   7C    basis set group =>   1
Atom   8C    basis set group =>   1
Atom   9C    basis set group =>   1
Atom  10C    basis set group =>   1
Atom  11C    basis set group =>   1
Atom  12S    basis set group =>   3
Atom  13C    basis set group =>   1
Atom  14C    basis set group =>   1
Atom  15Br   basis set group =>   4
Atom  16C    basis set group =>   1
Atom  17O    basis set group =>   5
Atom  18C    basis set group =>   1
Atom  19C    basis set group =>   1
Atom  20C    basis set group =>   1
Atom  21C    basis set group =>   1
Atom  22C    basis set group =>   1
Atom  23C    basis set group =>   1
Atom  24S    basis set group =>   3
Atom  25C    basis set group =>   1
Atom  26C    basis set group =>   1
Atom  27C    basis set group =>   1
Atom  28C    basis set group =>   1
Atom  29C    basis set group =>   1
Atom  30N    basis set group =>   2
Atom  31C    basis set group =>   1
Atom  32N    basis set group =>   2
Atom  33C    basis set group =>   1
Atom  34C    basis set group =>   1
Atom  35S    basis set group =>   3
Atom  36C    basis set group =>   1
Atom  37C    basis set group =>   1
Atom  38C    basis set group =>   1
Atom  39N    basis set group =>   2
Atom  40C    basis set group =>   1
Atom  41C    basis set group =>   1
Atom  42O    basis set group =>   5
Atom  43C    basis set group =>   1
Atom  44C    basis set group =>   1
Atom  45C    basis set group =>   1
Atom  46O    basis set group =>   5
Atom  47C    basis set group =>   1
Atom  48N    basis set group =>   2
Atom  49C    basis set group =>   1
Atom  50S    basis set group =>   3
Atom  51C    basis set group =>   1
Atom  52C    basis set group =>   1
Atom  53C    basis set group =>   1
Atom  54C    basis set group =>   1
Atom  55S    basis set group =>   3
Atom  56C    basis set group =>   1
Atom  57C    basis set group =>   1
Atom  58C    basis set group =>   1
Atom  59C    basis set group =>   1
Atom  60C    basis set group =>   1
Atom  61N    basis set group =>   2
Atom  62C    basis set group =>   1
Atom  63N    basis set group =>   2
Atom  64C    basis set group =>   1
Atom  65C    basis set group =>   1
Atom  66S    basis set group =>   3
Atom  67C    basis set group =>   1
Atom  68C    basis set group =>   1
Atom  69C    basis set group =>   1
Atom  70C    basis set group =>   1
Atom  71C    basis set group =>   1
Atom  72N    basis set group =>   2
Atom  73C    basis set group =>   1
Atom  74N    basis set group =>   2
Atom  75C    basis set group =>   1
Atom  76C    basis set group =>   1
Atom  77C    basis set group =>   1
Atom  78O    basis set group =>   5
Atom  79C    basis set group =>   1
Atom  80C    basis set group =>   1
Atom  81C    basis set group =>   1
Atom  82C    basis set group =>   1
Atom  83S    basis set group =>   3
Atom  84C    basis set group =>   1
Atom  85C    basis set group =>   1
Atom  86Br   basis set group =>   4
Atom  87H    basis set group =>   6
Atom  88H    basis set group =>   6
Atom  89H    basis set group =>   6
Atom  90H    basis set group =>   6
Atom  91H    basis set group =>   6
Atom  92H    basis set group =>   6
Atom  93H    basis set group =>   6
Atom  94H    basis set group =>   6
Atom  95H    basis set group =>   6
Atom  96H    basis set group =>   6
Atom  97H    basis set group =>   6
Atom  98H    basis set group =>   6
Atom  99H    basis set group =>   6
Atom 100H    basis set group =>   6


           ************************************************************
           *        Program running with 6 parallel MPI-processes     *
           *              working on a common directory               *
           ************************************************************
------------------------------------------------------------------------------
                           ORCA GTO INTEGRAL CALCULATION
                           -- RI-GTO INTEGRALS CHOSEN --
------------------------------------------------------------------------------

                         BASIS SET STATISTICS AND STARTUP INFO

Gaussian basis set:
 # of primitive gaussian shells          ... 1192
 # of primitive gaussian functions       ... 2370
 # of contracted shells                  ...  590
 # of contracted basis functions         ... 1352
 Highest angular momentum                ...    2
 Maximum contraction depth               ...    6
Auxiliary gaussian basis set:
 # of primitive gaussian shells          ... 2239
 # of primitive gaussian functions       ... 6401
 # of contracted shells                  ... 1395
 # of contracted aux-basis functions     ... 4449
 Highest angular momentum                ...    4
 Maximum contraction depth               ...   12
Ratio of auxiliary to basis functions    ...  3.29
Integral package used                  ... LIBINT
 One Electron integrals                  ... done
 Ordering auxiliary basis shells         ... done
 Integral threshhold             Thresh  ...  2.500e-11
 Primitive cut-off               TCut    ...  2.500e-12
 Pre-screening matrix                    ... done
 Shell pair data                         ... 
 Ordering of the shell pairs             ... done (   0.011 sec) 46371 of 174345 pairs
 Determination of significant pairs      ... done (   0.000 sec)
 Creation of shell pair data             ... done (   0.007 sec)
 Storage of shell pair data              ... done (   0.010 sec)
 Shell pair data done in (   0.028 sec)
 Computing two index integrals           ... done
 Cholesky decomposition of the V-matrix  ... done


Timings:
 Total evaluation time                   ...   3.298 sec (  0.055 min)
 One electron matrix time                ...   0.682 sec (  0.011 min) = 20.7%
 Schwartz matrix evaluation time         ...   1.082 sec (  0.018 min) = 32.8%
 Two index repulsion integral time       ...   0.503 sec (  0.008 min) = 15.2%
 Cholesky decomposition of V             ...   0.973 sec (  0.016 min) = 29.5%
 Three index repulsion integral time     ...   0.000 sec (  0.000 min) =  0.0%



           ************************************************************
           *        Program running with 6 parallel MPI-processes     *
           *              working on a common directory               *
           ************************************************************
-------------------------------------------------------------------------------
                                 ORCA SCF
-------------------------------------------------------------------------------

------------
SCF SETTINGS
------------
Hamiltonian:
 Density Functional     Method          .... DFT(GTOs)
 Exchange Functional    Exchange        .... WB88
 Correlation Functional Correlation     .... LYP
 LDA part of GGA corr.  LDAOpt          .... VWN-5
 Gradients option       PostSCFGGA      .... off
 Hybrid DFT is turned on
   Fraction HF Exchange ScalHFX         ....  0.190000
   Scaling of DF-GGA-X  ScalDFX         ....  0.350000
   Scaling of DF-GGA-C  ScalDFC         ....  0.810000
   Scaling of DF-LDA-C  ScalLDAC        ....  1.000000
   Perturbative correction              ....  0.000000
   Density functional embedding theory  .... OFF
 Long-range corrected/Screened/Range-Separated Hybrid DFT is turned on
   Amount of maximum screened exact exchange              ....  0.460000
   Range separation parameter mu (erf(mu*r12)/r12)        ....  0.330000
 RI-approximation to the Coulomb term is turned on
   Number of auxiliary basis functions  .... 4449
   RIJ-COSX (HFX calculated with COS-X)).... on


General Settings:
 Integral files         IntName         .... xtbopt
 Hartree-Fock type      HFTyp           .... RHF
 Total Charge           Charge          ....    0
 Multiplicity           Mult            ....    1
 Number of Electrons    NEL             ....  682
 Basis Dimension        Dim             .... 1352
 Nuclear Repulsion      ENuc            ....  14938.4386017846 Eh

Convergence Acceleration:
 DIIS                   CNVDIIS         .... on
   Start iteration      DIISMaxIt       ....    12
   Startup error        DIISStart       ....  0.200000
   # of expansion vecs  DIISMaxEq       ....     5
   Bias factor          DIISBfac        ....   1.050
   Max. coefficient     DIISMaxC        ....  10.000
 Newton-Raphson         CNVNR           .... off
 SOSCF                  CNVSOSCF        .... on
   Start iteration      SOSCFMaxIt      ....   150
   Startup grad/error   SOSCFStart      ....  0.003300
 Level Shifting         CNVShift        .... on
   Level shift para.    LevelShift      ....    0.2500
   Turn off err/grad.   ShiftErr        ....    0.0010
 Zerner damping         CNVZerner       .... off
 Static damping         CNVDamp         .... on
   Fraction old density DampFac         ....    0.7000
   Max. Damping (<1)    DampMax         ....    0.9800
   Min. Damping (>=0)   DampMin         ....    0.0000
   Turn off err/grad.   DampErr         ....    0.1000
 Fernandez-Rico         CNVRico         .... off

SCF Procedure:
 Maximum # iterations   MaxIter         ....   125
 SCF integral mode      SCFMode         .... Direct
   Integral package                     .... LIBINT
 Reset frequency        DirectResetFreq ....    20
 Integral Threshold     Thresh          ....  2.500e-11 Eh
 Primitive CutOff       TCut            ....  2.500e-12 Eh

Convergence Tolerance:
 Convergence Check Mode ConvCheckMode   .... Total+1el-Energy
 Convergence forced     ConvForced      .... 1
 Energy Change          TolE            ....  1.000e-08 Eh
 1-El. energy change                    ....  1.000e-05 Eh
 Orbital Gradient       TolG            ....  1.000e-05
 Orbital Rotation angle TolX            ....  1.000e-05
 DIIS Error             TolErr          ....  5.000e-07


Diagonalization of the overlap matrix:
Smallest eigenvalue                        ... 1.839e-04
Time for diagonalization                   ...    0.309 sec
Threshold for overlap eigenvalues          ... 1.000e-08
Number of eigenvalues below threshold      ... 0
Time for construction of square roots      ...    0.209 sec
Total time needed                          ...    0.523 sec

-------------------
DFT GRID GENERATION
-------------------

General Integration Accuracy     IntAcc      ...  4.670
Radial Grid Type                 RadialGrid  ... Gauss-Chebyshev
Angular Grid (max. acc.)         AngularGrid ... Lebedev-302
Angular grid pruning method      GridPruning ... 3 (G Style)
Weight generation scheme         WeightScheme... Becke
Basis function cutoff            BFCut       ...    1.0000e-11
Integration weight cutoff        WCut        ...    1.0000e-14
Grids for H and He will be reduced by one unit

# of grid points (after initial pruning)     ... 599206 (   0.0 sec)
# of grid points (after weights+screening)   ... 518579 (   8.1 sec)
nearest neighbour list constructed           ...    0.0 sec
Grid point re-assignment to atoms done       ...    0.1 sec
Grid point division into batches done        ...    2.1 sec
Reduced shell lists constructed in    3.1 sec

Total number of grid points                  ...   518579
Total number of batches                      ...     8155
Average number of points per batch           ...       63
Average number of grid points per atom       ...     5134
Average number of shells per batch           ...    72.42 (12.28%)
Average number of basis functions per batch  ...   158.90 (11.75%)
Average number of large shells per batch     ...    47.32 (65.34%)
Average number of large basis fcns per batch ...   104.80 (65.95%)
Maximum spatial batch extension              ...  15.91, 18.50, 18.40 au
Average spatial batch extension              ...   0.36,  0.39,  0.40 au

Time for grid setup =   11.628 sec

------------------------------
INITIAL GUESS: MODEL POTENTIAL
------------------------------
Loading Hartree-Fock densities                     ... done
Calculating cut-offs                               ... done
Setting up the integral package                    ... done
Initializing the effective Hamiltonian             ... done
Starting the Coulomb interaction                   ... done (   1.7 sec)
Reading the grid                                   ... done
Mapping shells                                     ... done
Starting the XC term evaluation                    ... done (   1.5 sec)
  promolecular density results
     # of electrons  =    681.993561933
     EX              =   -782.405591171
     EC              =    -24.860419159
     EX+EC           =   -807.266010330
Transforming the Hamiltonian                       ... done (   0.1 sec)
Diagonalizing the Hamiltonian                      ... done (   0.3 sec)
Back transforming the eigenvectors                 ... done (   0.1 sec)
Now organizing SCF variables                       ... done
                      ------------------
                      INITIAL GUESS DONE (  15.4 sec)
                      ------------------
--------------------
COSX GRID GENERATION
--------------------

General Integration Accuracy     IntAcc      ...  3.340
Radial Grid Type                 RadialGrid  ... Gauss-Chebyshev
Angular Grid (max. acc.)         AngularGrid ... Lebedev-50
Angular grid pruning method      GridPruning ... 3 (G Style)
Weight generation scheme         WeightScheme... Becke
Basis function cutoff            BFCut       ...    1.0000e-11
Integration weight cutoff        WCut        ...    1.0000e-14
Grids for H and He will be reduced by one unit

# of grid points (after initial pruning)     ...  56606 (   0.0 sec)
# of grid points (after weights+screening)   ...  51274 (   0.8 sec)
nearest neighbour list constructed           ...    0.0 sec
Grid point re-assignment to atoms done       ...    0.0 sec
Grid point division into batches done        ...    0.0 sec
Reduced shell lists constructed in    0.1 sec

Total number of grid points                  ...    51274
Total number of batches                      ...      856
Average number of points per batch           ...       59
Average number of grid points per atom       ...      508
Average number of shells per batch           ...    86.64 (14.68%)
Average number of basis functions per batch  ...   191.78 (14.18%)
Average number of large shells per batch     ...    56.28 (64.96%)
Average number of large basis fcns per batch ...   126.28 (65.85%)
Maximum spatial batch extension              ...  17.17, 23.00, 24.69 au
Average spatial batch extension              ...   0.67,  0.89,  0.90 au

Overlap Fitting                  UseSFitting ... on
Constructing numerical overlap ... done (      0.1 sec)
Inverting numerical overlap    ... done (      0.1 sec)
Obtaining analytic overlap     ... done (      0.0 sec)
Final contraction and storage  ... done (      0.1 sec)


General Integration Accuracy     IntAcc      ...  3.670
Radial Grid Type                 RadialGrid  ... Gauss-Chebyshev
Angular Grid (max. acc.)         AngularGrid ... Lebedev-50
Angular grid pruning method      GridPruning ... 3 (G Style)
Weight generation scheme         WeightScheme... Becke
Basis function cutoff            BFCut       ...    1.0000e-11
Integration weight cutoff        WCut        ...    1.0000e-14
Grids for H and He will be reduced by one unit

# of grid points (after initial pruning)     ...  69770 (   0.0 sec)
# of grid points (after weights+screening)   ...  62945 (   0.9 sec)
nearest neighbour list constructed           ...    0.0 sec
Grid point re-assignment to atoms done       ...    0.0 sec
Grid point division into batches done        ...    0.0 sec
Reduced shell lists constructed in    0.2 sec

Total number of grid points                  ...    62945
Total number of batches                      ...     1038
Average number of points per batch           ...       60
Average number of grid points per atom       ...      623
Average number of shells per batch           ...    86.47 (14.66%)
Average number of basis functions per batch  ...   191.11 (14.14%)
Average number of large shells per batch     ...    56.23 (65.03%)
Average number of large basis fcns per batch ...   126.22 (66.05%)
Maximum spatial batch extension              ...  18.14, 20.95, 20.66 au
Average spatial batch extension              ...   0.63,  0.85,  0.83 au

Overlap Fitting                  UseSFitting ... on
Constructing numerical overlap ... done (      0.1 sec)
Inverting numerical overlap    ... done (      0.1 sec)
Obtaining analytic overlap     ... done (      0.0 sec)
Final contraction and storage  ... done (      0.1 sec)


General Integration Accuracy     IntAcc      ...  4.010
Radial Grid Type                 RadialGrid  ... Gauss-Chebyshev
Angular Grid (max. acc.)         AngularGrid ... Lebedev-110
Angular grid pruning method      GridPruning ... 3 (G Style)
Weight generation scheme         WeightScheme... Becke
Basis function cutoff            BFCut       ...    1.0000e-11
Integration weight cutoff        WCut        ...    1.0000e-14
Grids for H and He will be reduced by one unit

# of grid points (after initial pruning)     ... 140260 (   0.0 sec)
# of grid points (after weights+screening)   ... 124988 (   1.9 sec)
nearest neighbour list constructed           ...    0.0 sec
Grid point re-assignment to atoms done       ...    0.0 sec
Grid point division into batches done        ...    0.1 sec
Reduced shell lists constructed in    0.4 sec

Total number of grid points                  ...   124988
Total number of batches                      ...     2010
Average number of points per batch           ...       62
Average number of grid points per atom       ...     1238
Average number of shells per batch           ...    80.53 (13.65%)
Average number of basis functions per batch  ...   177.76 (13.15%)
Average number of large shells per batch     ...    52.88 (65.67%)
Average number of large basis fcns per batch ...   118.07 (66.42%)
Maximum spatial batch extension              ...  16.42, 20.36, 17.57 au
Average spatial batch extension              ...   0.55,  0.66,  0.67 au

Overlap Fitting                  UseSFitting ... on
Constructing numerical overlap ... done (      0.2 sec)
Inverting numerical overlap    ... done (      0.1 sec)
Obtaining analytic overlap     ... done (      0.0 sec)
Final contraction and storage  ... done (      0.1 sec)

Time for X-Grid setup             =    5.589 sec
--------------
SCF ITERATIONS
--------------
ITER       Energy         Delta-E        Max-DP      RMS-DP      [F,P]     Damp
               ***  Starting incremental Fock matrix formation  ***
  0 -11223.8882710174   0.000000000000 0.15467761  0.00109715  0.2267806 0.7000
  1 -11224.7134303118  -0.825159294394 0.10723712  0.00077189  0.1006021 0.7000
                               ***Turning on DIIS***
  2 -11225.0470472008  -0.333616889073 0.13145706  0.00131661  0.0339405 0.0000
  3 -11225.5850152193  -0.537968018458 0.08009204  0.00059264  0.0608977 0.0000
  4 -11225.7026366783  -0.117621458987 0.01505431  0.00020724  0.0174739 0.0000
  5 -11225.7132244286  -0.010587750341 0.01110331  0.00008863  0.0072836 0.0000
  6 -11225.7152364281  -0.002011999488 0.00416739  0.00004290  0.0018613 0.0000
                      *** Initiating the SOSCF procedure ***
                           *** Shutting down DIIS ***
                      *** Re-Reading the Fockian *** 
                      *** Removing any level shift *** 
ITER      Energy       Delta-E        Grad      Rot      Max-DP    RMS-DP
  7 -11225.71598497  -0.0007485408  0.002460  0.002460  0.002788  0.000049
               *** Restarting incremental Fock matrix formation ***
  8 -11225.71649271  -0.0005077374  0.000649  0.004186  0.002231  0.000022
  9 -11225.71652788  -0.0000351730  0.000862  0.003230  0.001131  0.000014
 10 -11225.71657910  -0.0000512192  0.000229  0.000772  0.000757  0.000006
 11 -11225.71657910  -0.0000000015  0.000214  0.000231  0.000336  0.000003
 12 -11225.71658364  -0.0000045398  0.000050  0.000175  0.000170  0.000002
 13 -11225.71658369  -0.0000000504  0.000039  0.000096  0.000112  0.000001
 14 -11225.71658404  -0.0000003536  0.000008  0.000046  0.000056  0.000001
 15 -11225.71658397   0.0000000756  0.000010  0.000024  0.000026  0.000000
 16 -11225.71658405  -0.0000000776  0.000003  0.000021  0.000015  0.000000
 17 -11225.71658406  -0.0000000173  0.000004  0.000007  0.000009  0.000000
                  ***Gradient check signals convergence***
              ***Rediagonalizing the Fockian in SOSCF/NRSCF***

               *****************************************************
               *                     SUCCESS                       *
               *           SCF CONVERGED AFTER  18 CYCLES          *
               *****************************************************

Setting up the final grid:

General Integration Accuracy     IntAcc      ...  5.010
Radial Grid Type                 RadialGrid  ... Gauss-Chebyshev
Angular Grid (max. acc.)         AngularGrid ... Lebedev-434
Angular grid pruning method      GridPruning ... 3 (G Style)
Weight generation scheme         WeightScheme... Becke
Basis function cutoff            BFCut       ...    1.0000e-11
Integration weight cutoff        WCut        ...    1.0000e-14
Grids for H and He will be reduced by one unit

# of grid points (after initial pruning)     ... 1041756 (   0.1 sec)
# of grid points (after weights+screening)   ... 898360 (  13.8 sec)
nearest neighbour list constructed           ...    0.0 sec
Grid point re-assignment to atoms done       ...    0.1 sec
Grid point division into batches done        ...    6.6 sec
Reduced shell lists constructed in    8.3 sec

Total number of grid points                  ...   898360
Total number of batches                      ...    14090
Average number of points per batch           ...       63
Average number of grid points per atom       ...     8895
Average number of shells per batch           ...    70.61 (11.97%)
Average number of basis functions per batch  ...   154.57 (11.43%)
Average number of large shells per batch     ...    46.19 (65.41%)
Average number of large basis fcns per batch ...   102.05 (66.02%)
Maximum spatial batch extension              ...  22.19, 18.86, 20.13 au
Average spatial batch extension              ...   0.31,  0.32,  0.33 au

Final grid set up in   22.8 sec
Final integration                            ... done (   3.7 sec)
Change in XC energy                          ...    -0.000267413
Integrated number of electrons               ...   681.999980604
Previous integrated no of electrons          ...   682.000120988
Old exchange energy                            =   -203.937754629 Eh
New exchange energy                            =   -203.933528640 Eh
Exchange energy change after final integration =      0.004225990 Eh
Total energy after final integration           = -11225.712625494 Eh
Final COS-X integration done in                =    77.750 sec

----------------
TOTAL SCF ENERGY
----------------

Total Energy       :       -11225.71262549 Eh         -305467.17019 eV

Components:
Nuclear Repulsion  :        14938.43860178 Eh          406495.58019 eV
Electronic Energy  :       -26164.15122728 Eh         -711962.75038 eV
One Electron Energy:       -45251.49975405 Eh        -1231355.90923 eV
Two Electron Energy:        19087.34852677 Eh          519393.15885 eV

Virial components:
Potential Energy   :       -22409.34012993 Eh         -609789.14602 eV
Kinetic Energy     :        11183.62750443 Eh          304321.97583 eV
Virial Ratio       :            2.00376310


DFT components:
N(Alpha)           :      340.999990301806 electrons
N(Beta)            :      340.999990301806 electrons
N(Total)           :      681.999980603611 electrons
E(XC)              :     -612.850518765078 Eh       
DFET-embed. en.    :        0.000000000000 Eh       

---------------
SCF CONVERGENCE
---------------

  Last Energy change         ...   -7.6907e-09  Tolerance :   1.0000e-08
  Last MAX-Density change    ...    8.8818e-15  Tolerance :   1.0000e-07
  Last RMS-Density change    ...    4.1360e-17  Tolerance :   5.0000e-09
  Last Orbital Gradient      ...    9.7520e-07  Tolerance :   1.0000e-05
  Last Orbital Rotation      ...    8.7782e-06  Tolerance :   1.0000e-05

             **** THE GBW FILE WAS UPDATED (xtbopt.gbw) ****
             **** DENSITY FILE WAS UPDATED (xtbopt.scfp) ****
             **** ENERGY FILE WAS UPDATED (xtbopt.en.tmp) ****
             **** THE GBW FILE WAS UPDATED (xtbopt.gbw) ****
             **** DENSITY FILE WAS UPDATED (xtbopt.scfp) ****
----------------
ORBITAL ENERGIES
----------------

  NO   OCC          E(Eh)            E(eV) 
   0   2.0000    -482.887227    -13140.0295 
   1   2.0000    -482.886592    -13140.0122 
   2   2.0000     -89.013724     -2422.1866 
   3   2.0000     -89.003354     -2421.9044 
   4   2.0000     -89.000589     -2421.8291 
   5   2.0000     -88.998193     -2421.7639 
   6   2.0000     -88.996691     -2421.7231 
   7   2.0000     -88.977991     -2421.2142 
   8   2.0000     -88.976821     -2421.1824 
   9   2.0000     -62.564962     -1702.4792 
  10   2.0000     -62.564305     -1702.4613 
  11   2.0000     -56.398913     -1534.6925 
  12   2.0000     -56.398257     -1534.6746 
  13   2.0000     -56.396191     -1534.6184 
  14   2.0000     -56.396161     -1534.6176 
  15   2.0000     -56.395537     -1534.6006 
  16   2.0000     -56.395507     -1534.5998 
  17   2.0000     -19.237707      -523.4846 
  18   2.0000     -19.234894      -523.4081 
  19   2.0000     -19.220421      -523.0143 
  20   2.0000     -19.219743      -522.9958 
  21   2.0000     -14.465525      -393.6269 
  22   2.0000     -14.462396      -393.5418 
  23   2.0000     -14.437233      -392.8571 
  24   2.0000     -14.436862      -392.8470 
  25   2.0000     -14.432847      -392.7377 
  26   2.0000     -14.431432      -392.6992 
  27   2.0000     -14.421397      -392.4262 
  28   2.0000     -14.417447      -392.3187 
  29   2.0000     -14.417444      -392.3186 
  30   2.0000     -14.416336      -392.2885 
  31   2.0000     -10.387375      -282.6549 
  32   2.0000     -10.383619      -282.5526 
  33   2.0000     -10.372337      -282.2456 
  34   2.0000     -10.372280      -282.2441 
  35   2.0000     -10.371273      -282.2167 
  36   2.0000     -10.370955      -282.2080 
  37   2.0000     -10.360921      -281.9350 
  38   2.0000     -10.360248      -281.9167 
  39   2.0000     -10.358513      -281.8695 
  40   2.0000     -10.358120      -281.8588 
  41   2.0000     -10.356042      -281.8022 
  42   2.0000     -10.353659      -281.7374 
  43   2.0000     -10.351302      -281.6732 
  44   2.0000     -10.348737      -281.6034 
  45   2.0000     -10.348651      -281.6011 
  46   2.0000     -10.348097      -281.5860 
  47   2.0000     -10.347974      -281.5827 
  48   2.0000     -10.347452      -281.5685 
  49   2.0000     -10.347324      -281.5650 
  50   2.0000     -10.346986      -281.5558 
  51   2.0000     -10.344621      -281.4915 
  52   2.0000     -10.344160      -281.4789 
  53   2.0000     -10.344054      -281.4760 
  54   2.0000     -10.343373      -281.4575 
  55   2.0000     -10.343237      -281.4538 
  56   2.0000     -10.337567      -281.2995 
  57   2.0000     -10.336820      -281.2792 
  58   2.0000     -10.336349      -281.2664 
  59   2.0000     -10.332979      -281.1747 
  60   2.0000     -10.332356      -281.1577 
  61   2.0000     -10.330151      -281.0977 
  62   2.0000     -10.330067      -281.0954 
  63   2.0000     -10.329553      -281.0814 
  64   2.0000     -10.328928      -281.0644 
  65   2.0000     -10.328762      -281.0599 
  66   2.0000     -10.327200      -281.0174 
  67   2.0000     -10.322820      -280.8982 
  68   2.0000     -10.320440      -280.8335 
  69   2.0000     -10.319786      -280.8157 
  70   2.0000     -10.319223      -280.8003 
  71   2.0000     -10.317481      -280.7529 
  72   2.0000     -10.316744      -280.7329 
  73   2.0000     -10.316705      -280.7318 
  74   2.0000     -10.316505      -280.7264 
  75   2.0000     -10.316049      -280.7140 
  76   2.0000     -10.315244      -280.6921 
  77   2.0000     -10.313201      -280.6365 
  78   2.0000     -10.312323      -280.6126 
  79   2.0000     -10.311408      -280.5877 
  80   2.0000     -10.310951      -280.5752 
  81   2.0000     -10.310325      -280.5582 
  82   2.0000     -10.310255      -280.5563 
  83   2.0000     -10.309983      -280.5489 
  84   2.0000     -10.309226      -280.5283 
  85   2.0000     -10.308718      -280.5145 
  86   2.0000     -10.307340      -280.4770 
  87   2.0000     -10.305048      -280.4146 
  88   2.0000     -10.304806      -280.4080 
  89   2.0000     -10.303602      -280.3753 
  90   2.0000     -10.302511      -280.3456 
  91   2.0000     -10.298753      -280.2433 
  92   2.0000     -10.297817      -280.2179 
  93   2.0000     -10.296733      -280.1883 
  94   2.0000     -10.294237      -280.1204 
  95   2.0000      -8.794413      -239.3081 
  96   2.0000      -8.793735      -239.2897 
  97   2.0000      -8.108118      -220.6331 
  98   2.0000      -8.098199      -220.3632 
  99   2.0000      -8.095273      -220.2836 
 100   2.0000      -8.092967      -220.2208 
 101   2.0000      -8.089881      -220.1368 
 102   2.0000      -8.073934      -219.7029 
 103   2.0000      -8.072866      -219.6739 
 104   2.0000      -6.630721      -180.4311 
 105   2.0000      -6.630051      -180.4129 
 106   2.0000      -6.616146      -180.0345 
 107   2.0000      -6.615942      -180.0289 
 108   2.0000      -6.615473      -180.0162 
 109   2.0000      -6.615252      -180.0102 
 110   2.0000      -6.077222      -165.3696 
 111   2.0000      -6.073081      -165.2569 
 112   2.0000      -6.070755      -165.1936 
 113   2.0000      -6.067498      -165.1050 
 114   2.0000      -6.064457      -165.0223 
 115   2.0000      -6.063323      -164.9914 
 116   2.0000      -6.062075      -164.9574 
 117   2.0000      -6.060410      -164.9121 
 118   2.0000      -6.060275      -164.9085 
 119   2.0000      -6.059301      -164.8820 
 120   2.0000      -6.057930      -164.8446 
 121   2.0000      -6.057745      -164.8396 
 122   2.0000      -6.055507      -164.7787 
 123   2.0000      -6.054807      -164.7597 
 124   2.0000      -6.052156      -164.6875 
 125   2.0000      -6.043646      -164.4560 
 126   2.0000      -6.042552      -164.4262 
 127   2.0000      -6.039320      -164.3383 
 128   2.0000      -6.038282      -164.3100 
 129   2.0000      -6.035176      -164.2255 
 130   2.0000      -6.034069      -164.1954 
 131   2.0000      -2.746600       -74.7388 
 132   2.0000      -2.745919       -74.7202 
 133   2.0000      -2.742489       -74.6269 
 134   2.0000      -2.742355       -74.6233 
 135   2.0000      -2.741827       -74.6089 
 136   2.0000      -2.741674       -74.6047 
 137   2.0000      -2.730756       -74.3077 
 138   2.0000      -2.730748       -74.3074 
 139   2.0000      -2.730084       -74.2894 
 140   2.0000      -2.730069       -74.2890 
 141   2.0000      -1.154739       -31.4220 
 142   2.0000      -1.149240       -31.2724 
 143   2.0000      -1.136449       -30.9244 
 144   2.0000      -1.135486       -30.8982 
 145   2.0000      -1.115191       -30.3459 
 146   2.0000      -1.055826       -28.7305 
 147   2.0000      -1.053718       -28.6731 
 148   2.0000      -1.042680       -28.3728 
 149   2.0000      -1.029437       -28.0124 
 150   2.0000      -1.027547       -27.9610 
 151   2.0000      -1.027227       -27.9523 
 152   2.0000      -1.025008       -27.8919 
 153   2.0000      -1.024218       -27.8704 
 154   2.0000      -1.017219       -27.6799 
 155   2.0000      -1.015059       -27.6212 
 156   2.0000      -1.012188       -27.5430 
 157   2.0000      -1.010971       -27.5099 
 158   2.0000      -1.008262       -27.4362 
 159   2.0000      -1.000636       -27.2287 
 160   2.0000      -0.997606       -27.1462 
 161   2.0000      -0.995715       -27.0948 
 162   2.0000      -0.993126       -27.0243 
 163   2.0000      -0.991415       -26.9778 
 164   2.0000      -0.969529       -26.3822 
 165   2.0000      -0.965041       -26.2601 
 166   2.0000      -0.949118       -25.8268 
 167   2.0000      -0.946398       -25.7528 
 168   2.0000      -0.945204       -25.7203 
 169   2.0000      -0.930286       -25.3144 
 170   2.0000      -0.924056       -25.1449 
 171   2.0000      -0.912002       -24.8168 
 172   2.0000      -0.910122       -24.7657 
 173   2.0000      -0.904894       -24.6234 
 174   2.0000      -0.898337       -24.4450 
 175   2.0000      -0.890110       -24.2211 
 176   2.0000      -0.889087       -24.1933 
 177   2.0000      -0.887535       -24.1511 
 178   2.0000      -0.886398       -24.1201 
 179   2.0000      -0.879056       -23.9203 
 180   2.0000      -0.875003       -23.8101 
 181   2.0000      -0.867060       -23.5939 
 182   2.0000      -0.865206       -23.5434 
 183   2.0000      -0.862167       -23.4608 
 184   2.0000      -0.854028       -23.2393 
 185   2.0000      -0.832525       -22.6542 
 186   2.0000      -0.830941       -22.6111 
 187   2.0000      -0.818990       -22.2858 
 188   2.0000      -0.813325       -22.1317 
 189   2.0000      -0.804999       -21.9051 
 190   2.0000      -0.797893       -21.7118 
 191   2.0000      -0.793445       -21.5907 
 192   2.0000      -0.784028       -21.3345 
 193   2.0000      -0.778803       -21.1923 
 194   2.0000      -0.770735       -20.9728 
 195   2.0000      -0.764125       -20.7929 
 196   2.0000      -0.761746       -20.7282 
 197   2.0000      -0.747726       -20.3467 
 198   2.0000      -0.740282       -20.1441 
 199   2.0000      -0.720415       -19.6035 
 200   2.0000      -0.717901       -19.5351 
 201   2.0000      -0.706458       -19.2237 
 202   2.0000      -0.702659       -19.1203 
 203   2.0000      -0.698356       -19.0032 
 204   2.0000      -0.695568       -18.9274 
 205   2.0000      -0.694913       -18.9096 
 206   2.0000      -0.692942       -18.8559 
 207   2.0000      -0.689733       -18.7686 
 208   2.0000      -0.686180       -18.6719 
 209   2.0000      -0.684303       -18.6208 
 210   2.0000      -0.678051       -18.4507 
 211   2.0000      -0.672448       -18.2982 
 212   2.0000      -0.664259       -18.0754 
 213   2.0000      -0.660780       -17.9807 
 214   2.0000      -0.648952       -17.6589 
 215   2.0000      -0.645864       -17.5749 
 216   2.0000      -0.642697       -17.4887 
 217   2.0000      -0.639433       -17.3998 
 218   2.0000      -0.630710       -17.1625 
 219   2.0000      -0.628461       -17.1013 
 220   2.0000      -0.626575       -17.0500 
 221   2.0000      -0.625758       -17.0278 
 222   2.0000      -0.624133       -16.9835 
 223   2.0000      -0.619484       -16.8570 
 224   2.0000      -0.610066       -16.6007 
 225   2.0000      -0.604248       -16.4424 
 226   2.0000      -0.601566       -16.3694 
 227   2.0000      -0.598363       -16.2823 
 228   2.0000      -0.595845       -16.2138 
 229   2.0000      -0.589276       -16.0350 
 230   2.0000      -0.586335       -15.9550 
 231   2.0000      -0.581991       -15.8368 
 232   2.0000      -0.573231       -15.5984 
 233   2.0000      -0.569258       -15.4903 
 234   2.0000      -0.567050       -15.4302 
 235   2.0000      -0.563769       -15.3409 
 236   2.0000      -0.557263       -15.1639 
 237   2.0000      -0.555757       -15.1229 
 238   2.0000      -0.553138       -15.0517 
 239   2.0000      -0.551574       -15.0091 
 240   2.0000      -0.547673       -14.9029 
 241   2.0000      -0.544217       -14.8089 
 242   2.0000      -0.543811       -14.7979 
 243   2.0000      -0.540261       -14.7012 
 244   2.0000      -0.539237       -14.6734 
 245   2.0000      -0.536614       -14.6020 
 246   2.0000      -0.535036       -14.5591 
 247   2.0000      -0.533865       -14.5272 
 248   2.0000      -0.528876       -14.3915 
 249   2.0000      -0.527819       -14.3627 
 250   2.0000      -0.522556       -14.2195 
 251   2.0000      -0.519923       -14.1478 
 252   2.0000      -0.517801       -14.0901 
 253   2.0000      -0.516203       -14.0466 
 254   2.0000      -0.513973       -13.9859 
 255   2.0000      -0.512564       -13.9476 
 256   2.0000      -0.511793       -13.9266 
 257   2.0000      -0.511676       -13.9234 
 258   2.0000      -0.509336       -13.8597 
 259   2.0000      -0.508249       -13.8301 
[...]
  37   32728.9    305.5   0.513299745   5.16315  -0.20570  -2.24562   0.27930
  38   32937.9    303.6   0.015564896   0.15557  -0.25478   0.27591  -0.12054
  39   33239.4    300.8   0.041895733   0.41495   0.52455   0.20551   0.31234
  40   33356.1    299.8   0.050525041   0.49866  -0.09606  -0.68557   0.13939
  41   33467.8    298.8   0.001987264   0.01955   0.13799  -0.00955  -0.02036
  42   33634.3    297.3   0.024375854   0.23859  -0.23026   0.39717  -0.16682
  43   33699.9    296.7   0.080959223   0.79089   0.40793   0.69573   0.37474
  44   33965.7    294.4   0.182070694   1.76472   0.77461  -1.01567   0.36484
  45   34087.5    293.4   0.111497632   1.07683   0.97296   0.34332   0.11090
  46   34260.4    291.9   0.160645086   1.54366   0.05064  -0.67102   1.04443
  47   34349.3    291.1   0.256747410   2.46073  -1.21199  -0.99540  -0.03135
  48   34439.5    290.4   0.003403448   0.03253  -0.16464  -0.07352   0.00482
  49   34506.8    289.8   0.060110693   0.57349   0.27120   0.51149  -0.48818
  50   34671.1    288.4   0.004600539   0.04368  -0.05303   0.19165  -0.06436
  51   34941.0    286.2   0.274931444   2.59039  -0.14870  -1.56616   0.33975
  52   35099.4    284.9   0.030393040   0.28507  -0.39402  -0.07731  -0.35191
  53   35480.5    281.8   0.022989566   0.21331  -0.41053   0.06188  -0.20236
  54   35575.5    281.1   0.040384978   0.37372  -0.34858  -0.43627  -0.24876
  55   35688.3    280.2   0.127960437   1.18039  -0.03774   1.06813   0.19509
  56   35716.8    280.0   0.041840128   0.38565  -0.07638  -0.61581   0.02449
  57   35856.9    278.9   0.109607554   1.00634   0.50303   0.86793  -0.00081
  58   36117.9    276.9   0.328980849   2.99864   1.23900  -1.01797   0.65366
  59   36268.7    275.7   0.104726784   0.95061   0.18899   0.92437  -0.24583
  60   36283.4    275.6   0.025647370   0.23271  -0.36044  -0.25571  -0.19339
  61   36364.4    275.0   0.018992373   0.17194   0.39716  -0.05986  -0.10308
  62   36494.8    274.0   0.010278265   0.09272  -0.20973  -0.20709  -0.07643
  63   36661.1    272.8   0.001105959   0.00993  -0.02551  -0.06370   0.07227
  64   36700.3    272.5   0.006471230   0.05805  -0.02424   0.21214   0.11162
  65   36713.8    272.4   0.095088469   0.85266  -0.04581   0.92212   0.01584
  66   37040.2    270.0   0.007174925   0.06377  -0.16084  -0.09596  -0.16939
  67   37078.7    269.7   0.013700418   0.12164  -0.06455  -0.25860  -0.22495
  68   37300.9    268.1   0.000863513   0.00762   0.06564   0.03382   0.04658
  69   37461.5    266.9   0.016831069   0.14791  -0.37090   0.10070   0.01426
  70   37597.1    266.0   0.043621979   0.38197  -0.59299  -0.06143  -0.16298
  71   37954.8    263.5   0.003317182   0.02877  -0.14088   0.09084   0.02598
  72   38071.0    262.7   0.026284652   0.22729   0.45679  -0.11318   0.07634
  73   38202.8    261.8   0.002343289   0.02019   0.10667   0.06278  -0.06981
  74   38464.9    260.0   0.065613792   0.56157   0.15009   0.71269  -0.17640
  75   38660.6    258.7   0.000157349   0.00134  -0.01258  -0.03336  -0.00830
  76   38885.5    257.2   0.003311593   0.02804  -0.01204  -0.13980   0.09136
  77   39119.4    255.6   0.033966085   0.28584  -0.30190  -0.44107  -0.01271
  78   39456.7    253.4   0.044264102   0.36932  -0.48984   0.35849  -0.02930
  79   39519.8    253.0   0.037709791   0.31413   0.52539   0.05832   0.18628
  80   39691.5    251.9   0.075703374   0.62790   0.08264   0.73660   0.28016
  81   39822.3    251.1   0.159436475   1.31807   1.02843   0.48683  -0.15298
  82   39886.7    250.7   0.025651166   0.21172  -0.28070  -0.34179   0.12690
  83   39981.5    250.1   0.004128901   0.03400  -0.09406  -0.14785   0.05737
  84   40025.5    249.8   0.018655258   0.15344  -0.37438   0.11308  -0.02219
  85   40048.5    249.7   0.010226005   0.08406   0.10510  -0.23100  -0.14019
  86   40315.3    248.0   0.065628421   0.53592  -0.66737  -0.25186  -0.16462

-----------------------------------------------------------------------------
         ABSORPTION SPECTRUM VIA TRANSITION VELOCITY DIPOLE MOMENTS
-----------------------------------------------------------------------------
State   Energy  Wavelength   fosc         P2         PX        PY        PZ  
        (cm-1)    (nm)                  (au**2)     (au)      (au)      (au) 
-----------------------------------------------------------------------------
   0   10092.4    990.8   1.982646420   0.13676  -0.36017   0.06341  -0.05490
   1   12734.1    785.3   0.051113076   0.00445  -0.01739  -0.05892   0.02596
   2   14543.6    687.6   0.161787761   0.01608  -0.12047   0.03439  -0.01967
   3   17588.1    568.6   0.165562076   0.01990  -0.07201  -0.11993   0.01825
   4   19228.0    520.1   0.055577918   0.00730   0.02120  -0.06635   0.04952
   5   19721.8    507.1   0.697657826   0.09404  -0.30328   0.04265   0.01548
   6   20835.4    480.0   0.517545230   0.07370  -0.24055   0.03357  -0.12127
   7   22224.9    449.9   0.135855140   0.02064   0.14284  -0.01096   0.01063
   8   24577.0    406.9   0.003197199   0.00054   0.00428   0.00125   0.02274
   9   24755.5    403.9   0.042338830   0.00716   0.06682   0.02726   0.04422
  10   24977.6    400.4   0.090568823   0.01546   0.06898   0.09795  -0.03329
  11   25158.8    397.5   0.008199265   0.00141  -0.00681  -0.01576  -0.03340
  12   25691.7    389.2   0.000147764   0.00003   0.00183  -0.00313   0.00357
  13   26364.3    379.3   0.268111591   0.04831   0.18864  -0.06842   0.08968
  14   26566.4    376.4   0.001259854   0.00023   0.00998   0.00788  -0.00819
  15   26731.7    374.1   0.079611911   0.01454  -0.07688   0.04966  -0.07854
  16   27228.8    367.3   0.167598074   0.03119   0.17485  -0.02100   0.01331
  17   27518.0    363.4   0.054840455   0.01031   0.09977  -0.01464  -0.01205
  18   27699.6    361.0   0.116490223   0.02205  -0.00044  -0.14774   0.01498
  19   28261.8    353.8   0.054881513   0.01060   0.10049   0.00009   0.02240
  20   28429.5    351.7   0.005575523   0.00108  -0.01129  -0.02785   0.01342
  21   28636.5    349.2   0.058591917   0.01147  -0.00485  -0.10696  -0.00197
  22   28637.4    349.2   0.105105145   0.02057   0.01916  -0.13219   0.05225
  23   28824.4    346.9   0.059766473   0.01177  -0.04350   0.02926  -0.09500
  24   29411.1    340.0   0.035741824   0.00718   0.06136   0.05843  -0.00226
  25   29653.1    337.2   0.276894091   0.05612  -0.23533  -0.02702  -0.00226
  26   29726.3    336.4   0.144577680   0.02937   0.09984  -0.12914   0.05223
  27   30320.6    329.8   0.285501043   0.05916   0.17080  -0.03548   0.16951
  28   30361.0    329.4   0.198445285   0.04118  -0.00484   0.15519  -0.13065
  29   30476.9    328.1   0.001797977   0.00037  -0.00184  -0.01256   0.01460
  30   30752.5    325.2   0.170187196   0.03577  -0.11903   0.14586   0.01808
  31   31198.7    320.5   0.011677621   0.00249  -0.00228  -0.00242   0.04979
  32   31398.1    318.5   0.035916793   0.00771  -0.07826  -0.00052   0.03978
  33   31788.9    314.6   0.372457007   0.08092  -0.26627  -0.07453  -0.06681
  34   32032.3    312.2   0.075207255   0.01646   0.08511  -0.05885   0.07588
  35   32150.6    311.0   0.027938867   0.00614   0.00170   0.03304  -0.07102
  36   32271.2    309.9   0.026597330   0.00587   0.06645   0.00106   0.03808
  37   32728.9    305.5   0.457319036   0.10230  -0.03064  -0.31599   0.03881
  38   32937.9    303.6   0.013597144   0.00306  -0.03789   0.03632  -0.01750
  39   33239.4    300.8   0.037148224   0.00844   0.07574   0.03004   0.04243
  40   33356.1    299.8   0.045672578   0.01041  -0.01466  -0.09876   0.02106
  41   33467.8    298.8   0.001872941   0.00043   0.02065  -0.00116  -0.00081
  42   33634.3    297.3   0.021268977   0.00489  -0.03353   0.05691  -0.02295
  43   33699.9    296.7   0.075791431   0.01746   0.06069   0.10370   0.05494
  44   33965.7    294.4   0.152190894   0.03533   0.10473  -0.14707   0.05224
  45   34087.5    293.4   0.093564077   0.02180   0.13925   0.04619   0.01653
  46   34260.4    291.9   0.147819312   0.03461   0.01106  -0.10078   0.15599
  47   34349.3    291.1   0.224546965   0.05271  -0.17573  -0.14774  -0.00252
  48   34439.5    290.4   0.003006564   0.00071  -0.02314  -0.01275  -0.00309
  49   34506.8    289.8   0.056777173   0.01339   0.03911   0.07839  -0.07560
  50   34671.1    288.4   0.004169198   0.00099  -0.00902   0.02872  -0.00904
  51   34941.0    286.2   0.241861662   0.05776  -0.02479  -0.23369   0.05033
  52   35099.4    284.9   0.024305324   0.00583  -0.05490  -0.00982  -0.05215
  53   35480.5    281.8   0.021234355   0.00515  -0.06373   0.01128  -0.03099
  54   35575.5    281.1   0.036771092   0.00894  -0.05299  -0.06888  -0.03726
  55   35688.3    280.2   0.116842650   0.02850  -0.00469   0.16601   0.03030
  56   35716.8    280.0   0.036984118   0.00903  -0.01237  -0.09404   0.00556
  57   35856.9    278.9   0.094942572   0.02327   0.07611   0.13218  -0.00137
  58   36117.9    276.9   0.293426234   0.07243   0.19059  -0.16142   0.10025
  59   36268.7    275.7   0.093488256   0.02317   0.03002   0.14413  -0.03871
  60   36283.4    275.6   0.025691106   0.00637  -0.06003  -0.04346  -0.02964
  61   36364.4    275.0   0.015516936   0.00386   0.05900  -0.00843  -0.01744
  62   36494.8    274.0   0.008663242   0.00216  -0.03291  -0.03064  -0.01179
  63   36661.1    272.8   0.001186934   0.00030  -0.00322  -0.01024   0.01350
  64   36700.3    272.5   0.006629283   0.00166  -0.00220   0.03661   0.01783
  65   36713.8    272.4   0.084882620   0.02130  -0.00673   0.14576   0.00270
  66   37040.2    270.0   0.006397560   0.00162  -0.02616  -0.01507  -0.02661
  67   37078.7    269.7   0.012322989   0.00312  -0.01076  -0.04239  -0.03479
  68   37300.9    268.1   0.000677126   0.00017   0.00960   0.00576   0.00687
  69   37461.5    266.9   0.015231256   0.00390  -0.06046   0.01553   0.00178
  70   37597.1    266.0   0.037392508   0.00961  -0.09417  -0.00847  -0.02585
  71   37954.8    263.5   0.003278347   0.00085  -0.02372   0.01658   0.00359
  72   38071.0    262.7   0.020322579   0.00529   0.06990  -0.01688   0.01080
  73   38202.8    261.8   0.001790540   0.00047   0.01686   0.00890  -0.01019
  74   38464.9    260.0   0.053447906   0.01405   0.01939   0.11327  -0.02907
  75   38660.6    258.7   0.000176292   0.00005  -0.00260  -0.00529  -0.00344
  76   38885.5    257.2   0.002826866   0.00075  -0.00220  -0.02277   0.01510
  77   39119.4    255.6   0.027305920   0.00730  -0.04807  -0.07061  -0.00200
  78   39456.7    253.4   0.032166345   0.00867  -0.07475   0.05538  -0.00450
  79   39519.8    253.0   0.026797162   0.00724   0.07972   0.00814   0.02858
  80   39691.5    251.9   0.058236912   0.01580   0.01236   0.11697   0.04430
  81   39822.3    251.1   0.129563923   0.03526   0.16569   0.08482  -0.02483
  82   39886.7    250.7   0.020315852   0.00554  -0.04507  -0.05548   0.02071
  83   39981.5    250.1   0.003153135   0.00086  -0.01515  -0.02248   0.01126
  84   40025.5    249.8   0.015689394   0.00429  -0.06252   0.01871  -0.00577
  85   40048.5    249.7   0.008025749   0.00220   0.01600  -0.03793  -0.02240
  86   40315.3    248.0   0.052227190   0.01439  -0.10784  -0.04477  -0.02750

-------------------------------------------------------------------
                             CD SPECTRUM
-------------------------------------------------------------------
State   Energy Wavelength       R         MX        MY        MZ   
        (cm-1)   (nm)       (1e40*cgs)   (au)      (au)      (au)  
-------------------------------------------------------------------
   0   10092.4    990.8    167.50834   0.91835   1.64791  -3.23867
   1   12734.1    785.3    -80.82927  -0.53094  -0.50976  -0.52126
   2   14543.6    687.6    -24.79812   0.28560   0.59820  -1.01551
   3   17588.1    568.6    -38.02259  -0.34035  -0.50758  -3.71167
   4   19228.0    520.1    -69.34289  -0.70382  -1.22151  -0.69685
   5   19721.8    507.1    171.02776   0.01149  -0.95928  -1.73886
   6   20835.4    480.0    -105.29013   1.22225   3.23049  -1.78139
   7   22224.9    449.9     40.05146  -0.15056   0.11414   0.54640
   8   24577.0    406.9     -5.57834   0.03619  -0.61889   0.11572
   9   24755.5    403.9     57.81616  -0.42007  -1.96978   1.08608
  10   24977.6    400.4    137.11421   0.62380  -0.26162   2.52843
  11   25158.8    397.5    -130.15619   0.45471  -0.28234  -1.82402
  12   25691.7    389.2      1.35227  -0.23362   0.02482   0.02923
  13   26364.3    379.3      0.28077  -1.16734  -1.51820   1.34175
  14   26566.4    376.4    -15.35269   0.86886   0.14677   0.43821
  15   26731.7    374.1    -99.47275   0.94175   0.83982  -0.98546
  16   27228.8    367.3     16.33629  -0.40170  -1.38701   2.84553
  17   27518.0    363.4     10.70475   0.08278   0.42714   0.53681
  18   27699.6    361.0     74.34431  -0.70490  -0.07677  -3.15581
  19   28261.8    353.8     25.38073  -0.07135  -1.67537  -0.42186
  20   28429.5    351.7    -94.44179  -0.42162  -0.90901   0.80068
  21   28636.5    349.2    -12.05646  -0.11375  -0.07733  -4.06832
  22   28637.4    349.2     19.44070  -0.81351  -1.12987  -2.77103
  23   28824.4    346.9    -136.16816   0.96136   3.61323   0.02268
  24   29411.1    340.0    110.48386   0.31045  -1.29737   0.29449
  25   29653.1    337.2     45.27509  -0.03166   1.37703  -2.34484
  26   29726.3    336.4    -186.16433  -1.09329  -1.91372  -0.58688
  27   30320.6    329.8    -347.02435  -2.06040  -2.53015   2.68461
  28   30361.0    329.4    461.23941   1.87311  -0.87768   0.83928
  29   30476.9    328.1     -2.85392  -0.31168  -0.38681  -0.23389
  30   30752.5    325.2    -184.37307   0.20471   0.57834   2.26541
  31   31198.7    320.5    -108.33786  -0.69352  -1.36199   1.28010
  32   31398.1    318.5     56.76457  -0.28412  -0.04581  -1.36713
  33   31788.9    314.6    173.93860   0.36237   2.75356  -2.91131
  34   32032.3    312.2    -128.42910  -1.28064   0.35249   2.81619
  35   32150.6    311.0    111.80082   0.63996   0.36974   1.09881
  36   32271.2    309.9      2.01358  -0.47467  -1.73297   0.86823
  37   32728.9    305.5     52.86077  -1.39976  -0.59106  -6.58592
  38   32937.9    303.6     12.94403   0.06057   0.57302   1.63905
  39   33239.4    300.8    -60.15856   0.01641  -0.26568   0.96433
  40   33356.1    299.8      5.24853  -0.54205   0.10482  -0.01774
  41   33467.8    298.8      1.89700  -0.01175   0.06012   0.28744
  42   33634.3    297.3    -71.51143   0.63097   1.02178  -0.25678
  43   33699.9    296.7    196.85954  -0.30541  -2.92318   3.53096
  44   33965.7    294.4     31.59367  -0.96112  -1.31159  -1.97808
  45   34087.5    293.4    110.78565  -0.13959  -1.94824   3.01817
  46   34260.4    291.9    -877.85638  -2.56263  -1.17064   2.93784
  47   34349.3    291.1    861.46440  -0.45531   4.34427  -3.76078
  48   34439.5    290.4     19.71414   0.05396   0.99096  -0.39267
  49   34506.8    289.8     85.82240   1.13417   0.51015   1.91039
  50   34671.1    288.4      0.31156   0.15737   0.28328   0.73440
  51   34941.0    286.2    305.90029  -1.17084  -0.31402  -5.77969
  52   35099.4    284.9    -136.46011   0.79620   0.85482  -2.72431
  53   35480.5    281.8      2.68637   0.34592   0.75023  -0.41605
  54   35575.5    281.1    -97.38682   0.31547   0.46193  -2.91294
  55   35688.3    280.2    -376.44589  -0.04338   0.71652   4.25449
  56   35716.8    280.0    -94.89865  -0.39093  -0.70448  -2.49425
  57   35856.9    278.9     36.59780   0.59209  -0.51990   2.31102
  58   36117.9    276.9    -18.62167  -1.45710  -2.90880  -1.64721
  59   36268.7    275.7    199.07219   0.90103  -0.38192   2.69196
  60   36283.4    275.6    -73.94097   0.39780   0.57982  -3.13005
  61   36364.4    275.0    -30.10505   0.24793  -0.21921  -0.15642
  62   36494.8    274.0     14.43779   0.13216   0.73572  -1.55469
  63   36661.1    272.8      2.26158  -0.25025  -0.09492  -0.30478
  64   36700.3    272.5    -48.02778  -0.26152  -0.26534   2.27288
  65   36713.8    272.4    -135.55734   0.08236   0.54466   4.83626
  66   37040.2    270.0    -22.94131   0.21949   0.70642  -1.18316
  67   37078.7    269.7    -44.80157   0.28665   1.02683  -2.10760
  68   37300.9    268.1     -4.05567  -0.08211  -0.08049   0.54352
  69   37461.5    266.9     16.85575   0.05257  -0.54768   0.22021
  70   37597.1    266.0     -1.74291   0.34638   0.65528  -1.55268
  71   37954.8    263.5    -11.17468  -0.05507   0.21872   0.76151
  72   38071.0    262.7     -7.59196  -0.12195  -0.01177   1.13413
  73   38202.8    261.8     10.79100   0.01959  -0.33472   0.38471
  74   38464.9    260.0      1.42952   0.80775   0.25749   1.76196
  75   38660.6    258.7      2.69092   0.06623   0.23505   0.33045
  76   38885.5    257.2    -21.96224  -0.38899   0.21094   1.29131
  77   39119.4    255.6     -8.38267  -0.14239   0.08947  -2.52086
  78   39456.7    253.4     26.50707  -0.01435  -0.09786   2.88019
  79   39519.8    253.0     14.38173  -0.01191  -1.62137   0.21366
  80   39691.5    251.9     96.28978  -0.28338  -2.21920   4.46033
  81   39822.3    251.1    -16.56015   0.84123  -1.18259   1.43269
  82   39886.7    250.7      3.27676  -0.39985  -0.38575  -2.03299
  83   39981.5    250.1     -3.44549  -0.39234  -0.08393  -0.60472
  84   40025.5    249.8      9.68822   0.18695   0.05215  -1.03595
  85   40048.5    249.7     -8.27477   0.18394   0.88323  -1.56787
  86   40315.3    248.0      9.85000  -0.01047   1.00640  -1.24349

sTD-DFT done

Total run time:        5.521 sec

           *** ORCA-CIS/TD-DFT FINISHED WITHOUT ERROR ***

-------------------------   --------------------
FINAL SINGLE POINT ENERGY    -11225.712625494116
-------------------------   --------------------


                            ***************************************
                            *     ORCA property calculations      *
                            ***************************************

                                    ---------------------
                                    Active property flags
                                    ---------------------
   (+) Dipole Moment


------------------------------------------------------------------------------
                       ORCA ELECTRIC PROPERTIES CALCULATION
------------------------------------------------------------------------------

Dipole Moment Calculation                       ... on
Quadrupole Moment Calculation                   ... off
Polarizability Calculation                      ... off
GBWName                                         ... xtbopt.gbw
Electron density file                           ... xtbopt.scfp
The origin for moment calculation is the CENTER OF MASS  = (-22.678453, 10.626285  4.839808)

-------------
DIPOLE MOMENT
-------------
                                X             Y             Z
Electronic contribution:    -32.82047     -38.38207      45.61016
Nuclear contribution   :     31.10178      37.59821     -45.69907
                        -----------------------------------------
Total Dipole Moment    :     -1.71869      -0.78386      -0.08890
                        -----------------------------------------
Magnitude (a.u.)       :      1.89109
Magnitude (Debye)      :      4.80678



--------------------
Rotational spectrum 
--------------------
 
Rotational constants in cm-1:     0.001249     0.000100     0.000095 
Rotational constants in MHz :    37.449580     2.987354     2.843321 

 Dipole components along the rotational axes: 
x,y,z [a.u.] :    -1.482623    -1.141056     0.275781 
x,y,z [Debye]:    -3.768528    -2.900334     0.700980 

 

Timings for individual modules:

Sum of individual times         ...      815.034 sec (=  13.584 min)
GTO integral calculation        ...        4.584 sec (=   0.076 min)   0.6 %
SCF iterations                  ...      804.182 sec (=  13.403 min)  98.7 %
CIS module                      ...        6.268 sec (=   0.104 min)   0.8 %
                             ****ORCA TERMINATED NORMALLY****
TOTAL RUN TIME: 0 days 0 hours 13 minutes 36 seconds 187 msec
