
                                 *****************
                                 * O   R   C   A *
                                 *****************

           --- An Ab Initio, DFT and Semiempirical electronic structure package ---

                  #######################################################
                  #                        -***-                        #
                  #          Department of theory and spectroscopy      #
                  #               Directorship: Frank Neese             #
                  #        Max Planck Institute fuer Kohlenforschung    #
                  #                Kaiser Wilhelm Platz 1               #
                  #                 D-45470 Muelheim/Ruhr               #
                  #                      Germany                        #
                  #                                                     #
                  #                  All rights reserved                #
                  #                        -***-                        #
                  #######################################################


                         Program Version 4.2.0 -  RELEASE  -


 With contributions from (in alphabetic order):
   Daniel Aravena         : Magnetic Suceptibility
   Michael Atanasov       : Ab Initio Ligand Field Theory (pilot matlab implementation)
   Alexander A. Auer      : GIAO ZORA, VPT2
   Ute Becker             : Parallelization
   Giovanni Bistoni       : ED, misc. LED, open-shell LED, HFLED
   Martin Brehm           : Molecular dynamics
   Dmytro Bykov           : SCF Hessian
   Vijay G. Chilkuri      : MRCI spin determinant printing, contributions to CSF-ICE
   Dipayan Datta          : RHF DLPNO-CCSD density
   Achintya Kumar Dutta   : EOM-CC, STEOM-CC
   Dmitry Ganyushin       : Spin-Orbit,Spin-Spin,Magnetic field MRCI
   Miquel Garcia          : C-PCM Hessian, Gaussian charge scheme
   Yang Guo               : DLPNO-NEVPT2, CIM, IAO-localization
   Andreas Hansen         : Spin unrestricted coupled pair/coupled cluster methods
   Benjamin Helmich-Paris : CASSCF linear response (MC-RPA)
   Lee Huntington         : MR-EOM, pCC
   Robert Izsak           : Overlap fitted RIJCOSX, COSX-SCS-MP3, EOM
   Christian Kollmar      : KDIIS, OOCD, Brueckner-CCSD(T), CCSD density
   Simone Kossmann        : Meta GGA functionals, TD-DFT gradient, OOMP2, MP2 Hessian
   Martin Krupicka        : AUTO-CI
   Lucas Lang             : DCDCAS
   Dagmar Lenk            : GEPOL surface, SMD
   Dimitrios Liakos       : Extrapolation schemes; Compound Job, initial MDCI parallelization
   Dimitrios Manganas     : Further ROCIS development; embedding schemes
   Dimitrios Pantazis     : SARC Basis sets
   Taras Petrenko         : DFT Hessian,TD-DFT gradient, ASA, ECA, R-Raman, ABS, FL, XAS/XES, NRVS
   Peter Pinski           : DLPNO-MP2, DLPNO-MP2 Gradient
   Christoph Reimann      : Effective Core Potentials
   Marius Retegan         : Local ZFS, SOC
   Christoph Riplinger    : Optimizer, TS searches, QM/MM, DLPNO-CCSD(T), (RO)-DLPNO pert. Triples
   Tobias Risthaus        : Range-separated hybrids, TD-DFT gradient, RPA, STAB
   Michael Roemelt        : Original ROCIS implementation
   Masaaki Saitow         : Open-shell DLPNO-CCSD energy and density
   Barbara Sandhoefer     : DKH picture change effects
   Avijit Sen             : IP-ROCIS
   Kantharuban Sivalingam : CASSCF convergence, NEVPT2, FIC-MRCI
   Bernardo de Souza      : ESD, SOC TD-DFT
   Georgi Stoychev        : AutoAux, RI-MP2 NMR
   Willem Van den Heuvel  : Paramagnetic NMR
   Boris Wezisla          : Elementary symmetry handling
   Frank Wennmohs         : Technical directorship


 We gratefully acknowledge several colleagues who have allowed us to
 interface, adapt or use parts of their codes:
   Stefan Grimme, W. Hujo, H. Kruse,             : VdW corrections, initial TS optimization,
                  C. Bannwarth                     DFT functionals, gCP, sTDA/sTD-DF
   Ed Valeev, F. Pavosevic, A. Kumar             : LibInt (2-el integral package), F12 methods
   Garnet Chan, S. Sharma, J. Yang, R. Olivares  : DMRG
   Ulf Ekstrom                                   : XCFun DFT Library
   Mihaly Kallay                                 : mrcc  (arbitrary order and MRCC methods)
   Andreas Klamt, Michael Diedenhofen            : otool_cosmo (COSMO solvation model)
   Jiri Pittner, Ondrej Demel                    : Mk-CCSD
   Frank Weinhold                                : gennbo (NPA and NBO analysis)
   Christopher J. Cramer and Donald G. Truhlar   : smd solvation model
   Lars Goerigk                                  : TD-DFT with DH, B97 family of functionals
   V. Asgeirsson, H. Jonsson                     : NEB implementation
   FAccTs GmbH                                   : IRC, NEB, NEB-TS, Multilevel, MM, QM/MM, CI optimization
   S Lehtola, MJT Oliveira, MAL Marques          : LibXC Library


 Your calculation uses the libint2 library for the computation of 2-el integrals
 For citations please refer to: http://libint.valeyev.net

 Your ORCA version has been built with support for libXC version: 4.2.3
 For citations please refer to: https://tddft.org/programs/libxc/

 This ORCA versions uses:
   CBLAS   interface :  Fast vector & matrix operations
   LAPACKE interface :  Fast linear algebra routines
   SCALAPACK package :  Parallel linear algebra routines


XCFun DFT library Copyright 2009-2010 Ulf Ekstrom and contributors.
See http://admol.org/xcfun for more information. This is free soft-
ware; see the source code for copying conditions. There is ABSOLUTELY
NO WARRANTY; not even for MERCHANTABILITY or FITNESS FOR A PARTICULAR
PURPOSE. For details see the documentation. Scientific users of this 
library should cite U. Ekstrom, L. Visscher, R. Bast, A. J. Thorvald-
sen and K. Ruud; J.Chem.Theor.Comp. 2010, DOI: 10.1021/ct100117s
XCFun Version 0.99 
----- Orbital basis set information -----
Your calculation utilizes the basis: def2-SVP
   F. Weigend and R. Ahlrichs, Phys. Chem. Chem. Phys. 7, 3297 (2005).

----- AuxJ basis set information -----
Your calculation utilizes the auxiliary basis: def2/J
   F. Weigend, Phys. Chem. Chem. Phys. 8, 1057 (2006).

================================================================================
                                        WARNINGS
                       Please study these warnings very carefully!
================================================================================

INFO   : Checking CIS options ...

WARNING: CIS/ROCIS methods need fully converged wavefunctions
  ===> : Setting SCFConvForced true
         You can overwrite this default with %scf ConvForced false 


INFO   : the flag for use of LIBINT has been found!

================================================================================
                                       INPUT FILE
================================================================================
NAME = xtbopt.inp
|  1> # ORCA input file
|  2> # SCF done       -132.229552687190          0.000156972727
|  3> ! CAM-B3LYP def2-SVP def2/J RIJCOSX Grid4 TightSCF
|  4> %maxcore 5000
|  5> %tddft
|  6>     Mode sTDDFT
|  7>     Ethresh 5.0
|  8>     maxcore 5000
|  9> end
| 10> 
| 11> %pal
| 12>   nprocs 6
| 13>   end
| 14> * xyz 0 1
| 15>    C        0.44634         6.71641         3.07561
| 16>    S        0.12375         5.19437         2.36426
| 17>    C        1.17370         5.56125         1.03479
| 18>    C        1.74897         6.80723         1.15497
| 19>    C        1.31392         7.45453         2.33161
| 20>    S        1.84301         9.10047         2.77426
| 21>    O        2.92576         9.00523         3.71642
| 22>    O        0.69249         9.86993         3.16327
| 23>    C        2.50377         9.69696         1.19011
| 24>    C        3.44948         8.61768         0.70434
| 25>    C        2.69618         7.40349         0.16541
| 26>    C        1.30939         4.57406        -0.01114
| 27>    N        0.64343         3.43304         0.18697
| 28>    C        0.73097         2.52028        -0.76473
| 29>    C        1.46800         2.71981        -1.91678
| 30>    C        2.14472         3.94496        -2.03780
| 31>    N        2.05190         4.86528        -1.06878
| 32>    C        2.94169         4.24864        -3.19578
| 33>    C        3.69252         5.37421        -3.28480
| 34>    C        4.51323         5.77119        -4.36393
| 35>    C        5.62510         6.60803        -4.26617
| 36>    C        6.16901         7.30235        -3.16303
| 37>    C        7.31518         8.01967        -3.33177
| 38>    C        7.96143         8.09237        -4.59334
| 39>    C        7.46571         7.44453        -5.68287
| 40>    C        6.29577         6.66281        -5.54929
| 41>    C        5.59413         5.88237        -6.46477
| 42>    C        4.41535         5.35661        -5.77125
| 43>    C        3.36106         4.77057        -6.35387
| 44>    C        5.94023         5.66949        -7.84171
| 45>    N        5.02871         5.13284        -8.67136
| 46>    C        5.38306         4.95223        -9.92741
| 47>    C        6.63751         5.28543       -10.41126
| 48>    C        7.53668         5.82073        -9.47797
| 49>    N        7.17587         6.00897        -8.21495
| 50>    C        8.89139         6.17243        -9.85788
| 51>    C        9.81563         6.57165        -8.96936
| 52>    C       11.16321         6.90820        -9.28834
| 53>    S       11.82195         6.81777       -10.89854
| 54>    C       13.36641         7.31435       -10.33765
| 55>    C       13.39402         7.54883        -8.99284
| 56>    C       12.13028         7.32254        -8.40645
| 57>    S       11.82264         7.50849        -6.65802
| 58>    O       11.69928         6.19867        -6.07971
| 59>    O       10.73325         8.42728        -6.45743
| 60>    C       13.36268         8.27334        -6.06197
| 61>    C       14.51929         7.58228        -6.75334
| 62>    C       14.60311         7.98426        -8.22535
| 63>    H       -0.01454         7.00746         3.99760
| 64>    H        3.00966        10.63697         1.39317
| 65>    H        1.65744         9.85965         0.52882
| 66>    H        4.07395         8.32192         1.55085
| 67>    H        4.10147         9.00888        -0.08041
| 68>    H        3.40111         6.62779        -0.13988
| 69>    H        2.13245         7.68205        -0.73094
| 70>    H        0.18561         1.60186        -0.58688
| 71>    H        1.52837         1.97062        -2.68951
| 72>    H        2.95562         3.50079        -3.97448
| 73>    H        3.70779         6.01009        -2.40906
| 74>    H        5.67462         7.25955        -2.20343
| 75>    H        7.74559         8.55611        -2.49829
| 76>    H        8.86719         8.67098        -4.69236
| 77>    H        7.95363         7.51244        -6.63959
| 78>    H        3.38359         4.55314        -7.40834
| 79>    H        2.46345         4.54356        -5.80383
| 80>    H        4.62396         4.52270       -10.57127
| 81>    H        6.91236         5.13310       -11.44201
| 82>    H        9.13846         6.08290       -10.90842
| 83>    H        9.55789         6.64100        -7.92170
| 84>    H       14.17600         7.40365       -11.03479
| 85>    H       13.37317         8.12322        -4.98559
| 86>    H       13.30067         9.33358        -6.29191
| 87>    H       14.37007         6.50295        -6.67110
| 88>    H       15.45922         7.83464        -6.25719
| 89>    H       15.49263         7.54530        -8.68203
| 90>    H       14.70367         9.07249        -8.29740
| 91> *
| 92> 
| 93>                          ****END OF INPUT****
================================================================================

                       ****************************
                       * Single Point Calculation *
                       ****************************

---------------------------------
CARTESIAN COORDINATES (ANGSTROEM)
---------------------------------
  C      0.446340    6.716410    3.075610
  S      0.123750    5.194370    2.364260
  C      1.173700    5.561250    1.034790
  C      1.748970    6.807230    1.154970
  C      1.313920    7.454530    2.331610
  S      1.843010    9.100470    2.774260
  O      2.925760    9.005230    3.716420
  O      0.692490    9.869930    3.163270
  C      2.503770    9.696960    1.190110
  C      3.449480    8.617680    0.704340
  C      2.696180    7.403490    0.165410
  C      1.309390    4.574060   -0.011140
  N      0.643430    3.433040    0.186970
  C      0.730970    2.520280   -0.764730
  C      1.468000    2.719810   -1.916780
  C      2.144720    3.944960   -2.037800
  N      2.051900    4.865280   -1.068780
  C      2.941690    4.248640   -3.195780
  C      3.692520    5.374210   -3.284800
  C      4.513230    5.771190   -4.363930
  C      5.625100    6.608030   -4.266170
  C      6.169010    7.302350   -3.163030
  C      7.315180    8.019670   -3.331770
  C      7.961430    8.092370   -4.593340
  C      7.465710    7.444530   -5.682870
  C      6.295770    6.662810   -5.549290
  C      5.594130    5.882370   -6.464770
  C      4.415350    5.356610   -5.771250
  C      3.361060    4.770570   -6.353870
  C      5.940230    5.669490   -7.841710
  N      5.028710    5.132840   -8.671360
  C      5.383060    4.952230   -9.927410
  C      6.637510    5.285430  -10.411260
  C      7.536680    5.820730   -9.477970
  N      7.175870    6.008970   -8.214950
  C      8.891390    6.172430   -9.857880
  C      9.815630    6.571650   -8.969360
  C     11.163210    6.908200   -9.288340
  S     11.821950    6.817770  -10.898540
  C     13.366410    7.314350  -10.337650
  C     13.394020    7.548830   -8.992840
  C     12.130280    7.322540   -8.406450
  S     11.822640    7.508490   -6.658020
  O     11.699280    6.198670   -6.079710
  O     10.733250    8.427280   -6.457430
  C     13.362680    8.273340   -6.061970
  C     14.519290    7.582280   -6.753340
  C     14.603110    7.984260   -8.225350
  H     -0.014540    7.007460    3.997600
  H      3.009660   10.636970    1.393170
  H      1.657440    9.859650    0.528820
  H      4.073950    8.321920    1.550850
  H      4.101470    9.008880   -0.080410
  H      3.401110    6.627790   -0.139880
  H      2.132450    7.682050   -0.730940
  H      0.185610    1.601860   -0.586880
  H      1.528370    1.970620   -2.689510
  H      2.955620    3.500790   -3.974480
  H      3.707790    6.010090   -2.409060
  H      5.674620    7.259550   -2.203430
  H      7.745590    8.556110   -2.498290
  H      8.867190    8.670980   -4.692360
  H      7.953630    7.512440   -6.639590
  H      3.383590    4.553140   -7.408340
  H      2.463450    4.543560   -5.803830
  H      4.623960    4.522700  -10.571270
  H      6.912360    5.133100  -11.442010
  H      9.138460    6.082900  -10.908420
  H      9.557890    6.641000   -7.921700
  H     14.176000    7.403650  -11.034790
  H     13.373170    8.123220   -4.985590
  H     13.300670    9.333580   -6.291910
  H     14.370070    6.502950   -6.671100
  H     15.459220    7.834640   -6.257190
  H     15.492630    7.545300   -8.682030
  H     14.703670    9.072490   -8.297400

----------------------------
CARTESIAN COORDINATES (A.U.)
----------------------------
  NO LB      ZA    FRAG     MASS         X           Y           Z
   0 C     6.0000    0    12.011    0.843460   12.692176    5.812061
   1 S    16.0000    0    32.060    0.233854    9.815937    4.467804
   2 C     6.0000    0    12.011    2.217972   10.509239    1.955470
   3 C     6.0000    0    12.011    3.305074   12.863800    2.182577
   4 C     6.0000    0    12.011    2.482949   14.087020    4.406104
   5 S    16.0000    0    32.060    3.482784   17.197396    5.242592
   6 O     8.0000    0    15.999    5.528885   17.017418    7.023016
   7 O     8.0000    0    15.999    1.308616   18.651465    5.977714
   8 C     6.0000    0    12.011    4.731440   18.324599    2.248982
   9 C     6.0000    0    12.011    6.518573   16.285055    1.331010
  10 C     6.0000    0    12.011    5.095042   13.990569    0.312580
  11 C     6.0000    0    12.011    2.474389    8.643721   -0.021052
  12 N     7.0000    0    14.007    1.215906    6.487505    0.353322
  13 C     6.0000    0    12.011    1.381333    4.762639   -1.445130
  14 C     6.0000    0    12.011    2.774118    5.139696   -3.622189
  15 C     6.0000    0    12.011    4.052933    7.454894   -3.850884
  16 N     7.0000    0    14.007    3.877529    9.194047   -2.019701
  17 C     6.0000    0    12.011    5.558988    8.028766   -6.039149
  18 C     6.0000    0    12.011    6.977852   10.155785   -6.207372
  19 C     6.0000    0    12.011    8.528769   10.905969   -8.246633
  20 C     6.0000    0    12.011   10.629898   12.487367   -8.061893
  21 C     6.0000    0    12.011   11.657739   13.799442   -5.977260
  22 C     6.0000    0    12.011   13.823687   15.154980   -6.296133
  23 C     6.0000    0    12.011   15.044922   15.292363   -8.680155
  24 C     6.0000    0    12.011   14.108147   14.068123  -10.739068
  25 C     6.0000    0    12.011   11.897281   12.590886  -10.486638
  26 C     6.0000    0    12.011   10.571374   11.116068  -12.216645
  27 C     6.0000    0    12.011    8.343802   10.122526  -10.906082
  28 C     6.0000    0    12.011    6.351483    9.015071  -12.007074
  29 C     6.0000    0    12.011   11.225408   10.713783  -14.818684
  30 N     7.0000    0    14.007    9.502885    9.699662  -16.386496
  31 C     6.0000    0    12.011   10.172509    9.358358  -18.760086
  32 C     6.0000    0    12.011   12.543076    9.988015  -19.674430
  33 C     6.0000    0    12.011   14.242261   10.999586  -17.910768
  34 N     7.0000    0    14.007   13.560429   11.355308  -15.524006
  35 C     6.0000    0    12.011   16.802292   11.664202  -18.628693
  36 C     6.0000    0    12.011   18.548853   12.418619  -16.949634
  37 C     6.0000    0    12.011   21.095410   13.054606  -17.552419
  38 S    16.0000    0    32.060   22.340248   12.883718  -20.595256
  39 C     6.0000    0    12.011   25.258854   13.822118  -19.535327
  40 C     6.0000    0    12.011   25.311030   14.265221  -16.994005
  41 C     6.0000    0    12.011   22.922907   13.837595  -15.885888
  42 S    16.0000    0    32.060   22.341552   14.188990  -12.581834
  43 O     8.0000    0    15.999   22.108435   11.713789  -11.488987
  44 O     8.0000    0    15.999   20.282903   15.925251  -12.202774
  45 C     6.0000    0    12.011   25.251806   15.634347  -11.455463
  46 C     6.0000    0    12.011   27.437482   14.328433  -12.761963
  47 C     6.0000    0    12.011   27.595879   15.088065  -15.543659
  48 H     1.0000    0     1.008   -0.027477   13.242180    7.554369
  49 H     1.0000    0     1.008    5.687433   20.100960    2.632710
  50 H     1.0000    0     1.008    3.132108   18.632038    0.999325
  51 H     1.0000    0     1.008    7.698650   15.726150    2.930682
  52 H     1.0000    0     1.008    7.750655   17.024316   -0.151953
  53 H     1.0000    0     1.008    6.427166   12.524708   -0.264335
  54 H     1.0000    0     1.008    4.029746   14.516971   -1.381276
  55 H     1.0000    0     1.008    0.350752    3.027077   -1.109042
  56 H     1.0000    0     1.008    2.888201    3.723932   -5.082437
  57 H     1.0000    0     1.008    5.585312    6.615534   -7.510679
  58 H     1.0000    0     1.008    7.006708   11.357424   -4.552464
  59 H     1.0000    0     1.008   10.723478   13.718561   -4.163879
  60 H     1.0000    0     1.008   14.637044   16.168705   -4.721084
  61 H     1.0000    0     1.008   16.756561   16.385778   -8.867275
  62 H     1.0000    0     1.008   15.030182   14.196454  -12.547007
  63 H     1.0000    0     1.008    6.394058    8.604188  -13.999734
  64 H     1.0000    0     1.008    4.655246    8.586084  -10.967649
  65 H     1.0000    0     1.008    8.738018    8.546664  -19.976805
  66 H     1.0000    0     1.008   13.062467    9.700153  -21.622265
  67 H     1.0000    0     1.008   17.269187   11.495015  -20.613926
  68 H     1.0000    0     1.008   18.061795   12.549671  -14.969844
  69 H     1.0000    0     1.008   26.788758   13.990871  -20.852731
  70 H     1.0000    0     1.008   25.271629   15.350661   -9.421400
  71 H     1.0000    0     1.008   25.134624   17.637910  -11.889987
  72 H     1.0000    0     1.008   27.155497   12.288795  -12.606552
  73 H     1.0000    0     1.008   29.213692   14.805324  -11.824375
  74 H     1.0000    0     1.008   29.276828   14.258551  -16.406659
  75 H     1.0000    0     1.008   27.785909   17.144521  -15.679814

--------------------------------
INTERNAL COORDINATES (ANGSTROEM)
--------------------------------
 C      0   0   0     0.000000000000     0.00000000     0.00000000
 S      1   0   0     1.710756818546     0.00000000     0.00000000
 C      2   1   0     1.733345440990    90.93926053     0.00000000
 C      3   2   1     1.377622940321   112.17692438     0.40991792
 C      1   2   3     1.360533788923   112.05745575   359.79741694
 S      5   1   2     1.784655074293   123.62597251   179.02097760
 O      6   5   1     1.438430980513   108.93847148    83.15794403
 O      6   5   1     1.437739107801   108.87220273   313.96866436
 C      6   5   1     1.817122813736   101.20494240   197.47710323
 C      9   6   5     1.514986869712   105.82325749   309.82877526
 C      4   3   2     1.493975155516   124.60694829   180.12973012
 C      3   2   1     1.444619478306   117.87701769   181.16533787
 N     12   3   2     1.335918011743   115.43389699   357.14892829
 C     13  12   3     1.321562317562   116.74962515   178.88050485
 C     14  13  12     1.382116002476   122.40322689   359.85244541
 C     15  14  13     1.404844589732   117.03788853     0.61688899
 N     12   3   2     1.324663186663   118.71730711   176.50522774
 C     16  15  14     1.438158685160   121.36264543   179.81944203
 C     18  16  15     1.355941766522   122.34403899   185.67745627
 C     19  18  16     1.412685237907   127.23701962   179.73549990
 C     20  19  18     1.395031576739   125.31526195   205.79792045
 C     21  20  19     1.412386706996   131.03800364   356.46020736
 C     22  21  20     1.362617642224   119.07771016   177.24255548
 C     23  22  21     1.419324916078   121.33434362     0.65347556
 C     24  23  22     1.361069654683   121.41997878   359.72201605
 C     25  24  23     1.413396398184   119.27993909   358.82862200
 C     26  25  24     1.392655346308   131.67077802   181.61093953
 C     27  26  25     1.465235768196   107.17317021   182.81929657
 C     28  27  26     1.339558266781   125.75312163   166.86687145
 C     27  26  25     1.435641622411   126.30780851     1.00106169
 N     30  27  26     1.344314343969   119.18628601   194.12336000
 C     31  30  27     1.317514894451   117.43368607   180.02274629
 C     32  31  30     1.385199575873   122.92879909     0.20361716
 C     33  32  31     1.402170818053   116.10872246     0.73884555
 N     34  33  32     1.326965588891   120.88520745   358.89759085
 C     34  33  32     1.450263314781   121.14720264   178.25039589
 C     36  34  33     1.342782177570   122.80032511   186.24130933
 C     37  36  34     1.425126660792   124.95647788   178.99924418
 S     38  37  36     1.742084961332   123.51668551   358.73204336
 C     39  38  37     1.716550605167    91.32880691   181.63002173
 C     40  39  38     1.365378013079   112.93624380   359.67456968
 C     38  37  36     1.372818994842   126.41295527   179.80806634
 S     42  38  37     1.785000626611   122.63363077   359.92435861
 O     43  42  38     1.437111191975   108.30133182    72.05187085
 O     43  42  38     1.439160166312   109.48082345   302.86666085
 C     43  42  38     1.819888547851   102.63540453   187.12384222
 C     46  43  42     1.514365574292   107.75826175   318.22904159
 C     41  40  39     1.496842948709   124.84136466   179.60688434
 H      1   2   3     1.071067708877   121.23555111   179.35015382
 H      9   6   5     1.086635567152   106.87861608   189.51112799
 H      9   6   5     1.086299668186   107.25149690    71.22790057
 H     10   9   6     1.092710363546   107.52777311   314.10593086
 H     10   9   6     1.092685207459   110.34682130   196.30540829
 H     11   4   3     1.091713689115   108.12178874   317.21013373
 H     11   4   3     1.094911187723   108.50288561    72.35806339
 H     14  13  12     1.082840453853   115.73165801   179.95502219
 H     15  14  13     1.077980447828   121.80560756   180.34237283
 H     18  16  15     1.079744116631   116.20511119     2.30243954
 H     19  18  16     1.082357193767   116.25546197     3.50032320
 H     22  21  20     1.080317301583   119.87172420   357.17605871
 H     23  22  21     1.080606104045   120.05637286   180.05874036
 H     24  23  22     1.079349651457   119.41262444   179.90208414
 H     25  24  23     1.076099834077   121.09861675   179.28592403
 H     29  28  27     1.076889217469   119.85091632     6.96535527
 H     29  28  27     1.076931406265   121.74024677   189.58024577
 H     32  31  30     1.084105405623   115.60675215   180.31009163
 H     33  32  31     1.077586429898   122.07977919   180.09355426
 H     36  34  33     1.082909736497   116.56424730     5.25812344
 H     37  36  34     1.081124787293   119.74882549   359.94767241
 H     40  39  38     1.072107568157   119.41006834   179.47071184
 H     46  43  42     1.086848636610   105.93121280   197.68049864
 H     46  43  42     1.086658410587   107.00537714    80.14136599
 H     47  46  43     1.092695417260   108.18545732   311.64439035
 H     47  46  43     1.092391320453   110.14441181   193.62604709
 H     48  41  40     1.092011142068   109.06349396   327.06526275
 H     48  41  40     1.095238809119   109.23672626    84.03475624

---------------------------
INTERNAL COORDINATES (A.U.)
---------------------------
 C      0   0   0     0.000000000000     0.00000000     0.00000000
 S      1   0   0     3.232861868789     0.00000000     0.00000000
 C      2   1   0     3.275548178952    90.93926053     0.00000000
 C      3   2   1     2.603330073015   112.17692438     0.40991792
 C      1   2   3     2.571036257010   112.05745575   359.79741694
 S      5   1   2     3.372509333927   123.62597251   179.02097760
 O      6   5   1     2.718240615718   108.93847148    83.15794403
 O      6   5   1     2.716933165772   108.87220273   313.96866436
 C      6   5   1     3.433864469662   101.20494240   197.47710323
 C      9   6   5     2.862910280242   105.82325749   309.82877526
 C      4   3   2     2.823203894808   124.60694829   180.12973012
 C      3   2   1     2.729935181726   117.87701769   181.16533787
 N     12   3   2     2.524519179567   115.43389699   357.14892829
 C     13  12   3     2.497390849103   116.74962515   178.88050485
 C     14  13  12     2.611820729990   122.40322689   359.85244541
 C     15  14  13     2.654771535315   117.03788853     0.61688899
 N     12   3   2     2.503250642480   118.71730711   176.50522774
 C     16  15  14     2.717726052072   121.36264543   179.81944203
 C     18  16  15     2.562358592273   122.34403899   185.67745627
 C     19  18  16     2.669588213077   127.23701962   179.73549990
 C     20  19  18     2.636227628210   125.31526195   205.79792045
 C     21  20  19     2.669024071414   131.03800364   356.46020736
 C     22  21  20     2.574974169053   119.07771016   177.24255548
 C     23  22  21     2.682135386438   121.33434362     0.65347556
 C     24  23  22     2.572048896542   121.41997878   359.72201605
 C     25  24  23     2.670932111239   119.27993909   358.82862200
 C     26  25  24     2.631737203463   131.67077802   181.61093953
 C     27  26  25     2.768894323516   107.17317021   182.81929657
 C     28  27  26     2.531398264645   125.75312163   166.86687145
 C     27  26  25     2.712969492816   126.30780851     1.00106169
 N     30  27  26     2.540385948003   119.18628601   194.12336000
 C     31  30  27     2.489742327874   117.43368607   180.02274629
 C     32  31  30     2.617647839225   122.92879909     0.20361716
 C     33  32  31     2.649718839097   116.10872246     0.73884555
 N     34  33  32     2.507601552141   120.88520745   358.89759085
 C     34  33  32     2.740600487009   121.14720264   178.25039589
 C     36  34  33     2.537490573118   122.80032511   186.24130933
 C     37  36  34     2.693099095046   124.95647788   178.99924418
 S     38  37  36     3.292063478941   123.51668551   358.73204336
 C     39  38  37     3.243810538783    91.32880691   181.63002173
 C     40  39  38     2.580190513997   112.93624380   359.67456968
 C     38  37  36     2.594251931697   126.41295527   179.80806634
 S     42  38  37     3.373162333172   122.63363077   359.92435861
 O     43  42  38     2.715746576826   108.30133182    72.05187085
 O     43  42  38     2.719618577179   109.48082345   302.86666085
 C     43  42  38     3.439090949698   102.63540453   187.12384222
 C     46  43  42     2.861736202050   107.75826175   318.22904159
 C     41  40  39     2.828623238551   124.84136466   179.60688434
 H      1   2   3     2.024024640665   121.23555111   179.35015382
 H      9   6   5     2.053443629296   106.87861608   189.51112799
 H      9   6   5     2.052808872240   107.25149690    71.22790057
 H     10   9   6     2.064923330799   107.52777311   314.10593086
 H     10   9   6     2.064875792685   110.34682130   196.30540829
 H     11   4   3     2.063039889079   108.12178874   317.21013373
 H     11   4   3     2.069082285762   108.50288561    72.35806339
 H     14  13  12     2.046271904513   115.73165801   179.95502219
 H     15  14  13     2.037087824117   121.80560756   180.34237283
 H     18  16  15     2.040420675146   116.20511119     2.30243954
 H     19  18  16     2.045358675300   116.25546197     3.50032320
 H     22  21  20     2.041503837729   119.87172420   357.17605871
 H     23  22  21     2.042049595289   120.05637286   180.05874036
 H     24  23  22     2.039675243997   119.41262444   179.90208414
 H     25  24  23     2.033533979163   121.09861675   179.28592403
 H     29  28  27     2.035025697588   119.85091632     6.96535527
 H     29  28  27     2.035105422860   121.74024677   189.58024577
 H     32  31  30     2.048662316930   115.60675215   180.31009163
 H     33  32  31     2.036343238137   122.07977919   180.09355426
 H     36  34  33     2.046402829736   116.56424730     5.25812344
 H     37  36  34     2.043029764578   119.74882549   359.94767241
 H     40  39  38     2.025989689921   119.41006834   179.47071184
 H     46  43  42     2.053846272218   105.93121280   197.68049864
 H     46  43  42     2.053486797132   107.00537714    80.14136599
 H     47  46  43     2.064895086411   108.18545732   311.64439035
 H     47  46  43     2.064320426728   110.14441181   193.62604709
 H     48  41  40     2.063601993699   109.06349396   327.06526275
 H     48  41  40     2.069701400477   109.23672626    84.03475624

---------------------
BASIS SET INFORMATION
---------------------
There are 5 groups of distinct atoms

 Group   1 Type C   : 7s4p1d contracted to 3s2p1d pattern {511/31/1}
 Group   2 Type S   : 10s7p1d contracted to 4s3p1d pattern {5311/511/1}
 Group   3 Type O   : 7s4p1d contracted to 3s2p1d pattern {511/31/1}
 Group   4 Type N   : 7s4p1d contracted to 3s2p1d pattern {511/31/1}
 Group   5 Type H   : 4s1p contracted to 2s1p pattern {31/1}

Atom   0C    basis set group =>   1
Atom   1S    basis set group =>   2
Atom   2C    basis set group =>   1
Atom   3C    basis set group =>   1
Atom   4C    basis set group =>   1
Atom   5S    basis set group =>   2
Atom   6O    basis set group =>   3
Atom   7O    basis set group =>   3
Atom   8C    basis set group =>   1
Atom   9C    basis set group =>   1
Atom  10C    basis set group =>   1
Atom  11C    basis set group =>   1
Atom  12N    basis set group =>   4
Atom  13C    basis set group =>   1
Atom  14C    basis set group =>   1
Atom  15C    basis set group =>   1
Atom  16N    basis set group =>   4
Atom  17C    basis set group =>   1
Atom  18C    basis set group =>   1
Atom  19C    basis set group =>   1
Atom  20C    basis set group =>   1
Atom  21C    basis set group =>   1
Atom  22C    basis set group =>   1
Atom  23C    basis set group =>   1
Atom  24C    basis set group =>   1
Atom  25C    basis set group =>   1
Atom  26C    basis set group =>   1
Atom  27C    basis set group =>   1
Atom  28C    basis set group =>   1
Atom  29C    basis set group =>   1
Atom  30N    basis set group =>   4
Atom  31C    basis set group =>   1
Atom  32C    basis set group =>   1
Atom  33C    basis set group =>   1
Atom  34N    basis set group =>   4
Atom  35C    basis set group =>   1
Atom  36C    basis set group =>   1
Atom  37C    basis set group =>   1
Atom  38S    basis set group =>   2
Atom  39C    basis set group =>   1
Atom  40C    basis set group =>   1
Atom  41C    basis set group =>   1
Atom  42S    basis set group =>   2
Atom  43O    basis set group =>   3
Atom  44O    basis set group =>   3
Atom  45C    basis set group =>   1
Atom  46C    basis set group =>   1
Atom  47C    basis set group =>   1
Atom  48H    basis set group =>   5
Atom  49H    basis set group =>   5
Atom  50H    basis set group =>   5
Atom  51H    basis set group =>   5
Atom  52H    basis set group =>   5
Atom  53H    basis set group =>   5
Atom  54H    basis set group =>   5
Atom  55H    basis set group =>   5
Atom  56H    basis set group =>   5
Atom  57H    basis set group =>   5
Atom  58H    basis set group =>   5
Atom  59H    basis set group =>   5
Atom  60H    basis set group =>   5
Atom  61H    basis set group =>   5
Atom  62H    basis set group =>   5
Atom  63H    basis set group =>   5
Atom  64H    basis set group =>   5
Atom  65H    basis set group =>   5
Atom  66H    basis set group =>   5
Atom  67H    basis set group =>   5
Atom  68H    basis set group =>   5
Atom  69H    basis set group =>   5
Atom  70H    basis set group =>   5
Atom  71H    basis set group =>   5
Atom  72H    basis set group =>   5
Atom  73H    basis set group =>   5
Atom  74H    basis set group =>   5
Atom  75H    basis set group =>   5
---------------------------------
AUXILIARY/J BASIS SET INFORMATION
---------------------------------
There are 5 groups of distinct atoms

 Group   1 Type C   : 12s5p4d2f1g contracted to 6s4p3d1f1g pattern {711111/2111/211/2/1}
 Group   2 Type S   : 14s5p5d2f1g contracted to 8s4p3d1f1g pattern {71111111/2111/311/2/1}
 Group   3 Type O   : 12s5p4d2f1g contracted to 6s4p3d1f1g pattern {711111/2111/211/2/1}
 Group   4 Type N   : 12s5p4d2f1g contracted to 6s4p3d1f1g pattern {711111/2111/211/2/1}
 Group   5 Type H   : 5s2p1d contracted to 3s1p1d pattern {311/2/1}

Atom   0C    basis set group =>   1
Atom   1S    basis set group =>   2
Atom   2C    basis set group =>   1
Atom   3C    basis set group =>   1
Atom   4C    basis set group =>   1
Atom   5S    basis set group =>   2
Atom   6O    basis set group =>   3
Atom   7O    basis set group =>   3
Atom   8C    basis set group =>   1
Atom   9C    basis set group =>   1
Atom  10C    basis set group =>   1
Atom  11C    basis set group =>   1
Atom  12N    basis set group =>   4
Atom  13C    basis set group =>   1
Atom  14C    basis set group =>   1
Atom  15C    basis set group =>   1
Atom  16N    basis set group =>   4
Atom  17C    basis set group =>   1
Atom  18C    basis set group =>   1
Atom  19C    basis set group =>   1
Atom  20C    basis set group =>   1
Atom  21C    basis set group =>   1
Atom  22C    basis set group =>   1
Atom  23C    basis set group =>   1
Atom  24C    basis set group =>   1
Atom  25C    basis set group =>   1
Atom  26C    basis set group =>   1
Atom  27C    basis set group =>   1
Atom  28C    basis set group =>   1
Atom  29C    basis set group =>   1
Atom  30N    basis set group =>   4
Atom  31C    basis set group =>   1
Atom  32C    basis set group =>   1
Atom  33C    basis set group =>   1
Atom  34N    basis set group =>   4
Atom  35C    basis set group =>   1
Atom  36C    basis set group =>   1
Atom  37C    basis set group =>   1
Atom  38S    basis set group =>   2
Atom  39C    basis set group =>   1
Atom  40C    basis set group =>   1
Atom  41C    basis set group =>   1
Atom  42S    basis set group =>   2
Atom  43O    basis set group =>   3
Atom  44O    basis set group =>   3
Atom  45C    basis set group =>   1
Atom  46C    basis set group =>   1
Atom  47C    basis set group =>   1
Atom  48H    basis set group =>   5
Atom  49H    basis set group =>   5
Atom  50H    basis set group =>   5
Atom  51H    basis set group =>   5
Atom  52H    basis set group =>   5
Atom  53H    basis set group =>   5
Atom  54H    basis set group =>   5
Atom  55H    basis set group =>   5
Atom  56H    basis set group =>   5
Atom  57H    basis set group =>   5
Atom  58H    basis set group =>   5
Atom  59H    basis set group =>   5
Atom  60H    basis set group =>   5
Atom  61H    basis set group =>   5
Atom  62H    basis set group =>   5
Atom  63H    basis set group =>   5
Atom  64H    basis set group =>   5
Atom  65H    basis set group =>   5
Atom  66H    basis set group =>   5
Atom  67H    basis set group =>   5
Atom  68H    basis set group =>   5
Atom  69H    basis set group =>   5
Atom  70H    basis set group =>   5
Atom  71H    basis set group =>   5
Atom  72H    basis set group =>   5
Atom  73H    basis set group =>   5
Atom  74H    basis set group =>   5
Atom  75H    basis set group =>   5


           ************************************************************
           *        Program running with 6 parallel MPI-processes     *
           *              working on a common directory               *
           ************************************************************
------------------------------------------------------------------------------
                           ORCA GTO INTEGRAL CALCULATION
                           -- RI-GTO INTEGRALS CHOSEN --
------------------------------------------------------------------------------

                         BASIS SET STATISTICS AND STARTUP INFO

Gaussian basis set:
 # of primitive gaussian shells          ...  740
 # of primitive gaussian functions       ... 1396
 # of contracted shells                  ...  380
 # of contracted basis functions         ...  828
 Highest angular momentum                ...    2
 Maximum contraction depth               ...    5
Auxiliary gaussian basis set:
 # of primitive gaussian shells          ... 1388
 # of primitive gaussian functions       ... 3836
 # of contracted shells                  ...  868
 # of contracted aux-basis functions     ... 2668
 Highest angular momentum                ...    4
 Maximum contraction depth               ...    7
Ratio of auxiliary to basis functions    ...  3.22
Integral package used                  ... LIBINT
 One Electron integrals                  ... done
 Ordering auxiliary basis shells         ... done
 Integral threshhold             Thresh  ...  2.500e-11
 Primitive cut-off               TCut    ...  2.500e-12
 Pre-screening matrix                    ... done
 Shell pair data                         ... 
 Ordering of the shell pairs             ... done (   0.005 sec) 31647 of 72390 pairs
 Determination of significant pairs      ... done (   0.000 sec)
 Creation of shell pair data             ... done (   0.004 sec)
 Storage of shell pair data              ... done (   0.007 sec)
 Shell pair data done in (   0.016 sec)
 Computing two index integrals           ... done
 Cholesky decomposition of the V-matrix  ... done


Timings:
 Total evaluation time                   ...   1.147 sec (  0.019 min)
 One electron matrix time                ...   0.281 sec (  0.005 min) = 24.5%
 Schwartz matrix evaluation time         ...   0.350 sec (  0.006 min) = 30.6%
 Two index repulsion integral time       ...   0.196 sec (  0.003 min) = 17.1%
 Cholesky decomposition of V             ...   0.289 sec (  0.005 min) = 25.2%
 Three index repulsion integral time     ...   0.000 sec (  0.000 min) =  0.0%



           ************************************************************
           *        Program running with 6 parallel MPI-processes     *
           *              working on a common directory               *
           ************************************************************
-------------------------------------------------------------------------------
                                 ORCA SCF
-------------------------------------------------------------------------------

------------
SCF SETTINGS
------------
Hamiltonian:
 Density Functional     Method          .... DFT(GTOs)
 Exchange Functional    Exchange        .... WB88
 Correlation Functional Correlation     .... LYP
 LDA part of GGA corr.  LDAOpt          .... VWN-5
 Gradients option       PostSCFGGA      .... off
 Hybrid DFT is turned on
   Fraction HF Exchange ScalHFX         ....  0.190000
   Scaling of DF-GGA-X  ScalDFX         ....  0.350000
   Scaling of DF-GGA-C  ScalDFC         ....  0.810000
   Scaling of DF-LDA-C  ScalLDAC        ....  1.000000
   Perturbative correction              ....  0.000000
   Density functional embedding theory  .... OFF
 Long-range corrected/Screened/Range-Separated Hybrid DFT is turned on
   Amount of maximum screened exact exchange              ....  0.460000
   Range separation parameter mu (erf(mu*r12)/r12)        ....  0.330000
 RI-approximation to the Coulomb term is turned on
   Number of auxiliary basis functions  .... 2668
   RIJ-COSX (HFX calculated with COS-X)).... on


General Settings:
 Integral files         IntName         .... xtbopt
 Hartree-Fock type      HFTyp           .... RHF
 Total Charge           Charge          ....    0
 Multiplicity           Mult            ....    1
 Number of Electrons    NEL             ....  368
 Basis Dimension        Dim             ....  828
 Nuclear Repulsion      ENuc            ....   6316.9250019817 Eh

Convergence Acceleration:
 DIIS                   CNVDIIS         .... on
   Start iteration      DIISMaxIt       ....    12
   Startup error        DIISStart       ....  0.200000
   # of expansion vecs  DIISMaxEq       ....     5
   Bias factor          DIISBfac        ....   1.050
   Max. coefficient     DIISMaxC        ....  10.000
 Newton-Raphson         CNVNR           .... off
 SOSCF                  CNVSOSCF        .... on
   Start iteration      SOSCFMaxIt      ....   150
   Startup grad/error   SOSCFStart      ....  0.003300
 Level Shifting         CNVShift        .... on
   Level shift para.    LevelShift      ....    0.2500
   Turn off err/grad.   ShiftErr        ....    0.0010
 Zerner damping         CNVZerner       .... off
 Static damping         CNVDamp         .... on
   Fraction old density DampFac         ....    0.7000
   Max. Damping (<1)    DampMax         ....    0.9800
   Min. Damping (>=0)   DampMin         ....    0.0000
   Turn off err/grad.   DampErr         ....    0.1000
 Fernandez-Rico         CNVRico         .... off

SCF Procedure:
 Maximum # iterations   MaxIter         ....   125
 SCF integral mode      SCFMode         .... Direct
   Integral package                     .... LIBINT
 Reset frequency        DirectResetFreq ....    20
 Integral Threshold     Thresh          ....  2.500e-11 Eh
 Primitive CutOff       TCut            ....  2.500e-12 Eh

Convergence Tolerance:
 Convergence Check Mode ConvCheckMode   .... Total+1el-Energy
 Convergence forced     ConvForced      .... 1
 Energy Change          TolE            ....  1.000e-08 Eh
 1-El. energy change                    ....  1.000e-05 Eh
 Orbital Gradient       TolG            ....  1.000e-05
 Orbital Rotation angle TolX            ....  1.000e-05
 DIIS Error             TolErr          ....  5.000e-07


Diagonalization of the overlap matrix:
Smallest eigenvalue                        ... 2.622e-04
Time for diagonalization                   ...    0.103 sec
Threshold for overlap eigenvalues          ... 1.000e-08
Number of eigenvalues below threshold      ... 0
Time for construction of square roots      ...    0.065 sec
Total time needed                          ...    0.169 sec

-------------------
DFT GRID GENERATION
-------------------

General Integration Accuracy     IntAcc      ...  4.670
Radial Grid Type                 RadialGrid  ... Gauss-Chebyshev
Angular Grid (max. acc.)         AngularGrid ... Lebedev-302
Angular grid pruning method      GridPruning ... 3 (G Style)
Weight generation scheme         WeightScheme... Becke
Basis function cutoff            BFCut       ...    1.0000e-11
Integration weight cutoff        WCut        ...    1.0000e-14
Grids for H and He will be reduced by one unit

# of grid points (after initial pruning)     ... 395744 (   0.0 sec)
# of grid points (after weights+screening)   ... 340453 (   2.2 sec)
nearest neighbour list constructed           ...    0.0 sec
Grid point re-assignment to atoms done       ...    0.1 sec
Grid point division into batches done        ...    1.0 sec
Reduced shell lists constructed in    1.7 sec

Total number of grid points                  ...   340453
Total number of batches                      ...     5359
Average number of points per batch           ...       63
Average number of grid points per atom       ...     4480
Average number of shells per batch           ...    85.62 (22.53%)
Average number of basis functions per batch  ...   177.94 (21.49%)
Average number of large shells per batch     ...    55.67 (65.02%)
Average number of large basis fcns per batch ...   116.78 (65.63%)
Maximum spatial batch extension              ...  17.62, 15.03, 14.86 au
Average spatial batch extension              ...   0.33,  0.31,  0.32 au

Time for grid setup =    4.202 sec

------------------------------
INITIAL GUESS: MODEL POTENTIAL
------------------------------
Loading Hartree-Fock densities                     ... done
Calculating cut-offs                               ... done
Setting up the integral package                    ... done
Initializing the effective Hamiltonian             ... done
Starting the Coulomb interaction                   ... done (   0.6 sec)
Reading the grid                                   ... done
Mapping shells                                     ... done
Starting the XC term evaluation                    ... done (   0.9 sec)
  promolecular density results
     # of electrons  =    367.987261893
     EX              =   -351.248453485
     EC              =    -12.869050262
     EX+EC           =   -364.117503747
Transforming the Hamiltonian                       ... done (   0.1 sec)
Diagonalizing the Hamiltonian                      ... done (   0.1 sec)
Back transforming the eigenvectors                 ... done (   0.0 sec)
Now organizing SCF variables                       ... done
                      ------------------
                      INITIAL GUESS DONE (   6.0 sec)
                      ------------------
--------------------
COSX GRID GENERATION
--------------------

General Integration Accuracy     IntAcc      ...  3.340
Radial Grid Type                 RadialGrid  ... Gauss-Chebyshev
Angular Grid (max. acc.)         AngularGrid ... Lebedev-50
Angular grid pruning method      GridPruning ... 3 (G Style)
Weight generation scheme         WeightScheme... Becke
Basis function cutoff            BFCut       ...    1.0000e-11
Integration weight cutoff        WCut        ...    1.0000e-14
Grids for H and He will be reduced by one unit

# of grid points (after initial pruning)     ...  37248 (   0.0 sec)
# of grid points (after weights+screening)   ...  33327 (   0.2 sec)
nearest neighbour list constructed           ...    0.0 sec
Grid point re-assignment to atoms done       ...    0.0 sec
Grid point division into batches done        ...    0.0 sec
Reduced shell lists constructed in    0.1 sec

Total number of grid points                  ...    33327
Total number of batches                      ...      559
Average number of points per batch           ...       59
Average number of grid points per atom       ...      439
Average number of shells per batch           ...   101.25 (26.65%)
Average number of basis functions per batch  ...   212.12 (25.62%)
Average number of large shells per batch     ...    65.82 (65.01%)
Average number of large basis fcns per batch ...   139.65 (65.84%)
Maximum spatial batch extension              ...  23.69, 16.35, 15.71 au
Average spatial batch extension              ...   0.71,  0.58,  0.58 au

Overlap Fitting                  UseSFitting ... on
Constructing numerical overlap ... done (      0.0 sec)
Inverting numerical overlap    ... done (      0.0 sec)
Obtaining analytic overlap     ... done (      0.0 sec)
Final contraction and storage  ... done (      0.0 sec)


General Integration Accuracy     IntAcc      ...  3.670
Radial Grid Type                 RadialGrid  ... Gauss-Chebyshev
Angular Grid (max. acc.)         AngularGrid ... Lebedev-50
Angular grid pruning method      GridPruning ... 3 (G Style)
Weight generation scheme         WeightScheme... Becke
Basis function cutoff            BFCut       ...    1.0000e-11
Integration weight cutoff        WCut        ...    1.0000e-14
Grids for H and He will be reduced by one unit

# of grid points (after initial pruning)     ...  46848 (   0.0 sec)
# of grid points (after weights+screening)   ...  41805 (   0.2 sec)
nearest neighbour list constructed           ...    0.0 sec
Grid point re-assignment to atoms done       ...    0.0 sec
Grid point division into batches done        ...    0.0 sec
Reduced shell lists constructed in    0.1 sec

Total number of grid points                  ...    41805
Total number of batches                      ...      686
Average number of points per batch           ...       60
Average number of grid points per atom       ...      550
Average number of shells per batch           ...    99.66 (26.23%)
Average number of basis functions per batch  ...   209.16 (25.26%)
Average number of large shells per batch     ...    64.35 (64.57%)
Average number of large basis fcns per batch ...   136.80 (65.40%)
Maximum spatial batch extension              ...  24.31, 18.07, 16.70 au
Average spatial batch extension              ...   0.61,  0.58,  0.54 au

Overlap Fitting                  UseSFitting ... on
Constructing numerical overlap ... done (      0.1 sec)
Inverting numerical overlap    ... done (      0.0 sec)
Obtaining analytic overlap     ... done (      0.0 sec)
Final contraction and storage  ... done (      0.0 sec)


General Integration Accuracy     IntAcc      ...  4.010
Radial Grid Type                 RadialGrid  ... Gauss-Chebyshev
Angular Grid (max. acc.)         AngularGrid ... Lebedev-110
Angular grid pruning method      GridPruning ... 3 (G Style)
Weight generation scheme         WeightScheme... Becke
Basis function cutoff            BFCut       ...    1.0000e-11
Integration weight cutoff        WCut        ...    1.0000e-14
Grids for H and He will be reduced by one unit

# of grid points (after initial pruning)     ...  89640 (   0.0 sec)
# of grid points (after weights+screening)   ...  79350 (   0.5 sec)
nearest neighbour list constructed           ...    0.0 sec
Grid point re-assignment to atoms done       ...    0.0 sec
Grid point division into batches done        ...    0.1 sec
Reduced shell lists constructed in    0.2 sec

Total number of grid points                  ...    79350
Total number of batches                      ...     1279
Average number of points per batch           ...       62
Average number of grid points per atom       ...     1044
Average number of shells per batch           ...    95.24 (25.06%)
Average number of basis functions per batch  ...   199.10 (24.05%)
Average number of large shells per batch     ...    62.39 (65.51%)
Average number of large basis fcns per batch ...   131.93 (66.26%)
Maximum spatial batch extension              ...  24.36, 17.68, 14.92 au
Average spatial batch extension              ...   0.54,  0.49,  0.47 au

Overlap Fitting                  UseSFitting ... on
Constructing numerical overlap ... done (      0.1 sec)
Inverting numerical overlap    ... done (      0.0 sec)
Obtaining analytic overlap     ... done (      0.0 sec)
Final contraction and storage  ... done (      0.0 sec)

Time for X-Grid setup             =    1.949 sec
--------------
SCF ITERATIONS
--------------
ITER       Energy         Delta-E        Max-DP      RMS-DP      [F,P]     Damp
               ***  Starting incremental Fock matrix formation  ***
  0  -3497.1992347389   0.000000000000 0.15771866  0.00115999  0.2630251 0.7000
  1  -3497.6834925963  -0.484257857362 0.08315630  0.00080703  0.1148801 0.7000
                               ***Turning on DIIS***
  2  -3497.8960862481  -0.212593651842 0.09323334  0.00142890  0.0373136 0.0000
  3  -3498.2376063841  -0.341520136009 0.07881229  0.00057241  0.0600453 0.0000
  4  -3498.3013013617  -0.063694977520 0.01124396  0.00014892  0.0089783 0.0000
  5  -3498.3039012329  -0.002599871244 0.00502128  0.00006071  0.0063513 0.0000
                      *** Initiating the SOSCF procedure ***
                           *** Shutting down DIIS ***
                      *** Re-Reading the Fockian *** 
                      *** Removing any level shift *** 
ITER      Energy       Delta-E        Grad      Rot      Max-DP    RMS-DP
  6  -3498.30441964  -0.0005184058  0.001392  0.001392  0.002122  0.000031
               *** Restarting incremental Fock matrix formation ***
  7  -3498.30455563  -0.0001359887  0.001030  0.004819  0.002658  0.000028
  8  -3498.30464876  -0.0000931293  0.000409  0.005089  0.002228  0.000034
  9  -3498.30465914  -0.0000103846  0.000281  0.001345  0.000856  0.000013
 10  -3498.30467648  -0.0000173419  0.000072  0.000299  0.000283  0.000004
 11  -3498.30467667  -0.0000001901  0.000051  0.000116  0.000185  0.000002
 12  -3498.30467722  -0.0000005430  0.000013  0.000079  0.000058  0.000001
 13  -3498.30467719   0.0000000285  0.000009  0.000019  0.000021  0.000000
                  ***Gradient check signals convergence***
              ***Rediagonalizing the Fockian in SOSCF/NRSCF***

               *****************************************************
               *                     SUCCESS                       *
               *           SCF CONVERGED AFTER  14 CYCLES          *
               *****************************************************

Setting up the final grid:

General Integration Accuracy     IntAcc      ...  5.010
Radial Grid Type                 RadialGrid  ... Gauss-Chebyshev
Angular Grid (max. acc.)         AngularGrid ... Lebedev-434
Angular grid pruning method      GridPruning ... 3 (G Style)
Weight generation scheme         WeightScheme... Becke
Basis function cutoff            BFCut       ...    1.0000e-11
Integration weight cutoff        WCut        ...    1.0000e-14
Grids for H and He will be reduced by one unit

# of grid points (after initial pruning)     ... 705192 (   0.0 sec)
# of grid points (after weights+screening)   ... 604752 (   3.6 sec)
nearest neighbour list constructed           ...    0.0 sec
Grid point re-assignment to atoms done       ...    0.1 sec
Grid point division into batches done        ...    3.3 sec
Reduced shell lists constructed in    4.4 sec

Total number of grid points                  ...   604752
Total number of batches                      ...     9482
Average number of points per batch           ...       63
Average number of grid points per atom       ...     7957
Average number of shells per batch           ...    83.32 (21.93%)
Average number of basis functions per batch  ...   172.88 (20.88%)
Average number of large shells per batch     ...    54.02 (64.84%)
Average number of large basis fcns per batch ...   113.00 (65.36%)
Maximum spatial batch extension              ...  18.01, 14.15, 15.76 au
Average spatial batch extension              ...   0.26,  0.25,  0.26 au

Final grid set up in    8.5 sec
Final integration                            ... done (   1.9 sec)
Change in XC energy                          ...    -0.000016023
Integrated number of electrons               ...   367.999979446
Previous integrated no of electrons          ...   368.000438130
Old exchange energy                            =    -96.633246789 Eh
New exchange energy                            =    -96.631872111 Eh
Exchange energy change after final integration =      0.001374678 Eh
Total energy after final integration           =  -3498.303318560 Eh
Final COS-X integration done in                =    29.305 sec

----------------
TOTAL SCF ENERGY
----------------

Total Energy       :        -3498.30331856 Eh          -95193.67285 eV

Components:
Nuclear Repulsion  :         6316.92500198 Eh          171892.26814 eV
Electronic Energy  :        -9815.22832054 Eh         -267085.94099 eV
One Electron Energy:       -17367.01376103 Eh         -472580.46996 eV
Two Electron Energy:         7551.78544049 Eh          205494.52898 eV

Virial components:
Potential Energy   :        -6975.20821884 Eh         -189805.06514 eV
Kinetic Energy     :         3476.90490028 Eh           94611.39229 eV
Virial Ratio       :            2.00615444


DFT components:
N(Alpha)           :      183.999989723096 electrons
N(Beta)            :      183.999989723096 electrons
N(Total)           :      367.999979446192 electrons
E(XC)              :     -273.451510954296 Eh       
DFET-embed. en.    :        0.000000000000 Eh       

---------------
SCF CONVERGENCE
---------------

  Last Energy change         ...   -2.6658e-08  Tolerance :   1.0000e-08
  Last MAX-Density change    ...    7.1054e-15  Tolerance :   1.0000e-07
  Last RMS-Density change    ...    4.2578e-17  Tolerance :   5.0000e-09
  Last Orbital Gradient      ...    1.9441e-06  Tolerance :   1.0000e-05
  Last Orbital Rotation      ...    7.9684e-06  Tolerance :   1.0000e-05

             **** THE GBW FILE WAS UPDATED (xtbopt.gbw) ****
             **** DENSITY FILE WAS UPDATED (xtbopt.scfp) ****
             **** ENERGY FILE WAS UPDATED (xtbopt.en.tmp) ****
             **** THE GBW FILE WAS UPDATED (xtbopt.gbw) ****
             **** DENSITY FILE WAS UPDATED (xtbopt.scfp) ****
----------------
ORBITAL ENERGIES
----------------

  NO   OCC          E(Eh)            E(eV) 
   0   2.0000     -89.143850     -2425.7275 
   1   2.0000     -89.120739     -2425.0986 
   2   2.0000     -88.974293     -2421.1136 
   3   2.0000     -88.954563     -2420.5767 
   4   2.0000     -19.195195      -522.3278 
   5   2.0000     -19.192651      -522.2586 
   6   2.0000     -19.170421      -521.6537 
   7   2.0000     -19.170351      -521.6518 
   8   2.0000     -14.400569      -391.8594 
   9   2.0000     -14.400255      -391.8508 
  10   2.0000     -14.400235      -391.8503 
  11   2.0000     -14.396935      -391.7605 
  12   2.0000     -10.342266      -281.4274 
  13   2.0000     -10.337263      -281.2912 
  14   2.0000     -10.323570      -280.9186 
  15   2.0000     -10.323250      -280.9099 
  16   2.0000     -10.321378      -280.8590 
  17   2.0000     -10.315498      -280.6990 
  18   2.0000     -10.314431      -280.6699 
  19   2.0000     -10.310520      -280.5635 
  20   2.0000     -10.309174      -280.5269 
  21   2.0000     -10.303589      -280.3749 
  22   2.0000     -10.301887      -280.3286 
  23   2.0000     -10.297858      -280.2189 
  24   2.0000     -10.296247      -280.1751 
  25   2.0000     -10.295598      -280.1575 
  26   2.0000     -10.290804      -280.0270 
  27   2.0000     -10.289262      -279.9851 
  28   2.0000     -10.288008      -279.9509 
  29   2.0000     -10.285036      -279.8701 
  30   2.0000     -10.282791      -279.8090 
  31   2.0000     -10.282331      -279.7965 
  32   2.0000     -10.281636      -279.7776 
  33   2.0000     -10.278638      -279.6960 
  34   2.0000     -10.277936      -279.6769 
  35   2.0000     -10.276504      -279.6379 
  36   2.0000     -10.275395      -279.6077 
  37   2.0000     -10.272382      -279.5257 
  38   2.0000     -10.271512      -279.5020 
  39   2.0000     -10.268430      -279.4182 
  40   2.0000     -10.268094      -279.4090 
  41   2.0000     -10.267466      -279.3920 
  42   2.0000     -10.267042      -279.3804 
  43   2.0000     -10.264659      -279.3156 
  44   2.0000     -10.264063      -279.2994 
  45   2.0000     -10.261111      -279.2190 
  46   2.0000     -10.255869      -279.0764 
  47   2.0000     -10.249148      -278.8935 
  48   2.0000      -8.209022      -223.3789 
  49   2.0000      -8.186044      -222.7536 
  50   2.0000      -8.069891      -219.5929 
  51   2.0000      -8.049538      -219.0391 
  52   2.0000      -6.177954      -168.1107 
  53   2.0000      -6.177820      -168.1070 
  54   2.0000      -6.177133      -168.0883 
  55   2.0000      -6.154976      -167.4854 
  56   2.0000      -6.154792      -167.4804 
  57   2.0000      -6.154212      -167.4646 
  58   2.0000      -6.039047      -164.3308 
  59   2.0000      -6.034895      -164.2178 
  60   2.0000      -6.032293      -164.1470 
  61   2.0000      -6.018673      -163.7764 
  62   2.0000      -6.014421      -163.6607 
  63   2.0000      -6.012096      -163.5974 
  64   2.0000      -1.201104       -32.6837 
  65   2.0000      -1.177841       -32.0507 
  66   2.0000      -1.078820       -29.3562 
  67   2.0000      -1.076765       -29.3003 
  68   2.0000      -1.073778       -29.2190 
  69   2.0000      -1.055637       -28.7253 
  70   2.0000      -1.007382       -27.4123 
  71   2.0000      -0.986035       -26.8314 
  72   2.0000      -0.976458       -26.5708 
  73   2.0000      -0.974236       -26.5103 
  74   2.0000      -0.972190       -26.4546 
  75   2.0000      -0.937420       -25.5085 
  76   2.0000      -0.913373       -24.8541 
  77   2.0000      -0.912116       -24.8199 
  78   2.0000      -0.907730       -24.7006 
  79   2.0000      -0.898670       -24.4541 
  80   2.0000      -0.884536       -24.0694 
  81   2.0000      -0.863917       -23.5084 
  82   2.0000      -0.857697       -23.3391 
  83   2.0000      -0.848435       -23.0871 
  84   2.0000      -0.840506       -22.8713 
  85   2.0000      -0.836448       -22.7609 
  86   2.0000      -0.835395       -22.7323 
  87   2.0000      -0.827216       -22.5097 
  88   2.0000      -0.803359       -21.8605 
  89   2.0000      -0.791743       -21.5444 
  90   2.0000      -0.787074       -21.4174 
  91   2.0000      -0.760756       -20.7012 
  92   2.0000      -0.749592       -20.3974 
  93   2.0000      -0.740524       -20.1507 
  94   2.0000      -0.735536       -20.0149 
  95   2.0000      -0.732114       -19.9218 
  96   2.0000      -0.718549       -19.5527 
  97   2.0000      -0.709055       -19.2944 
  98   2.0000      -0.705306       -19.1924 
  99   2.0000      -0.696265       -18.9463 
 100   2.0000      -0.685133       -18.6434 
 101   2.0000      -0.675276       -18.3752 
 102   2.0000      -0.657140       -17.8817 
 103   2.0000      -0.647525       -17.6200 
 104   2.0000      -0.643164       -17.5014 
 105   2.0000      -0.639599       -17.4044 
 106   2.0000      -0.625216       -17.0130 
 107   2.0000      -0.618916       -16.8415 
 108   2.0000      -0.608520       -16.5587 
 109   2.0000      -0.606281       -16.4977 
 110   2.0000      -0.594059       -16.1652 
 111   2.0000      -0.588379       -16.0106 
 112   2.0000      -0.585714       -15.9381 
 113   2.0000      -0.580772       -15.8036 
 114   2.0000      -0.575741       -15.6667 
 115   2.0000      -0.572526       -15.5792 
 116   2.0000      -0.566990       -15.4286 
 117   2.0000      -0.563667       -15.3382 
 118   2.0000      -0.547972       -14.9111 
 119   2.0000      -0.544182       -14.8079 
 120   2.0000      -0.541661       -14.7393 
 121   2.0000      -0.541374       -14.7315 
 122   2.0000      -0.540371       -14.7042 
 123   2.0000      -0.534768       -14.5518 
 124   2.0000      -0.532651       -14.4942 
 125   2.0000      -0.526483       -14.3263 
 126   2.0000      -0.525563       -14.3013 
 127   2.0000      -0.523927       -14.2568 
 128   2.0000      -0.519330       -14.1317 
 129   2.0000      -0.517665       -14.0864 
 130   2.0000      -0.515976       -14.0404 
 131   2.0000      -0.511818       -13.9273 
 132   2.0000      -0.507386       -13.8067 
 133   2.0000      -0.501509       -13.6468 
 134   2.0000      -0.500895       -13.6301 
 135   2.0000      -0.494893       -13.4667 
 136   2.0000      -0.490627       -13.3506 
 137   2.0000      -0.488492       -13.2926 
 138   2.0000      -0.485758       -13.2182 
 139   2.0000      -0.483990       -13.1700 
 140   2.0000      -0.478506       -13.0208 
 141   2.0000      -0.477502       -12.9935 
 142   2.0000      -0.473107       -12.8739 
 143   2.0000      -0.468841       -12.7578 
 144   2.0000      -0.465661       -12.6713 
 145   2.0000      -0.458552       -12.4778 
 146   2.0000      -0.458066       -12.4646 
 147   2.0000      -0.452638       -12.3169 
 148   2.0000      -0.450439       -12.2571 
 149   2.0000      -0.446083       -12.1385 
 150   2.0000      -0.444449       -12.0941 
 151   2.0000      -0.439033       -11.9467 
 152   2.0000      -0.429889       -11.6979 
 153   2.0000      -0.427921       -11.6443 
 154   2.0000      -0.423381       -11.5208 
 155   2.0000      -0.419372       -11.4117 
 156   2.0000      -0.415871       -11.3164 
 157   2.0000      -0.411181       -11.1888 
 158   2.0000      -0.408721       -11.1219 
 159   2.0000      -0.400639       -10.9019 
 160   2.0000      -0.399780       -10.8786 
 161   2.0000      -0.399218       -10.8633 
 162   2.0000      -0.397478       -10.8159 
 163   2.0000      -0.382125       -10.3981 
 164   2.0000      -0.381122       -10.3709 
 165   2.0000      -0.378272       -10.2933 
 166   2.0000      -0.374050       -10.1784 
 167   2.0000      -0.367872       -10.0103 
 168   2.0000      -0.367369        -9.9966 
 169   2.0000      -0.362132        -9.8541 
 170   2.0000      -0.360979        -9.8227 
 171   2.0000      -0.355547        -9.6749 
 172   2.0000      -0.349396        -9.5075 
 173   2.0000      -0.335942        -9.1415 
 174   2.0000      -0.334844        -9.1116 
 175   2.0000      -0.331236        -9.0134 
 176   2.0000      -0.318470        -8.6660 
 177   2.0000      -0.317234        -8.6324 
 178   2.0000      -0.312789        -8.5114 
 179   2.0000      -0.309461        -8.4209 
 180   2.0000      -0.304803        -8.2941 
 181   2.0000      -0.284345        -7.7374 
 182   2.0000      -0.282947        -7.6994 
 183   2.0000      -0.225683        -6.1411 
 184   0.0000      -0.082411        -2.2425 
 185   0.0000      -0.054249        -1.4762 
 186   0.0000      -0.021226        -0.5776 
 187   0.0000      -0.011669        -0.3175 
 188   0.0000       0.013014         0.3541 
 189   0.0000       0.022462         0.6112 
 190   0.0000       0.041239         1.1222 
 191   0.0000       0.055499         1.5102 
 192   0.0000       0.057654         1.5688 
 193   0.0000       0.061646         1.6775 
 194   0.0000       0.071666         1.9501 
 195   0.0000       0.079051         2.1511 
 196   0.0000       0.081945         2.2298 
 197   0.0000       0.087744         2.3876 
 198   0.0000       0.094801         2.5797 
 199   0.0000       0.099274         2.7014 
 200   0.0000       0.103208         2.8084 
 201   0.0000       0.111656         3.0383 
 202   0.0000       0.112207         3.0533 
 203   0.0000       0.115247         3.1360 
 204   0.0000       0.116946         3.1823 
 205   0.0000       0.119236         3.2446 
 206   0.0000       0.124253         3.3811 
 207   0.0000       0.126579         3.4444 
 208   0.0000       0.130967         3.5638 
 209   0.0000       0.132253         3.5988 
 210   0.0000       0.139844         3.8053 
 211   0.0000       0.144494         3.9319 
 212   0.0000       0.145113         3.9487 
 213   0.0000       0.146414         3.9841 
 214   0.0000       0.148289         4.0352 
 215   0.0000       0.151038         4.1100 
 216   0.0000       0.154865         4.2141 
 217   0.0000       0.161346         4.3905 
 218   0.0000       0.165896         4.5143 
 219   0.0000       0.169569         4.6142 
 220   0.0000       0.171065         4.6549 
 221   0.0000       0.174251         4.7416 
 222   0.0000       0.179522         4.8850 
 223   0.0000       0.179866         4.8944 
 224   0.0000       0.183333         4.9887 
 225   0.0000       0.190598         5.1864 
 226   0.0000       0.192773         5.2456 
 227   0.0000       0.194078         5.2811 
 228   0.0000       0.198065         5.3896 
 229   0.0000       0.204258         5.5581 
 230   0.0000       0.208919         5.6850 
 231   0.0000       0.213262         5.8032 
 232   0.0000       0.216678         5.8961 
 233   0.0000       0.220687         6.0052 
 234   0.0000       0.225255         6.1295 
 235   0.0000       0.229415         6.2427 
 236   0.0000       0.234113         6.3705 
 237   0.0000       0.234962         6.3936 
 238   0.0000       0.242170         6.5898 
 239   0.0000       0.245259         6.6738 
 240   0.0000       0.247273         6.7286 
 241   0.0000       0.253019         6.8850 
 242   0.0000       0.256581         6.9819 
 243   0.0000       0.266987         7.2651 
 244   0.0000       0.271948         7.4001 
 245   0.0000       0.273793         7.4503 
 246   0.0000       0.277738         7.5576 
 247   0.0000       0.282447         7.6858 
 248   0.0000       0.284169         7.7326 
 249   0.0000       0.293742         7.9931 
 250   0.0000       0.298100         8.1117 
 251   0.0000       0.308703         8.4002 
 252   0.0000       0.312655         8.5078 
 253   0.0000       0.317498         8.6396 
 254   0.0000       0.320038         8.7087 
 255   0.0000       0.324613         8.8332 
 256   0.0000       0.331507         9.0208 
 257   0.0000       0.337296         9.1783 
 258   0.0000       0.343428         9.3452 
 259   0.0000       0.344981         9.3874 
 260   0.0000       0.347483         9.4555 
 261   0.0000       0.351791         9.5727 
 262   0.0000       0.356973         9.7137 
 263   0.0000       0.357986         9.7413 
 264   0.0000       0.360043         9.7973 
 265   0.0000       0.364784         9.9263 
 266   0.0000       0.373488        10.1631 
 267   0.0000       0.382121        10.3980 
 268   0.0000       0.384010        10.4495 
 269   0.0000       0.386813        10.5257 
 270   0.0000       0.388956        10.5840 
 271   0.0000       0.398456        10.8425 
 272   0.0000       0.400912        10.9094 
 273   0.0000       0.403573        10.9818 
 274   0.0000       0.406251        11.0547 
 275   0.0000       0.409046        11.1307 
 276   0.0000       0.409590        11.1455 
 277   0.0000       0.416049        11.3213 
 278   0.0000       0.420455        11.4412 
 279   0.0000       0.423619        11.5273 
 280   0.0000       0.425088        11.5672 
 281   0.0000       0.427639        11.6366 
 282   0.0000       0.435087        11.8393 
 283   0.0000       0.436794        11.8858 
 284   0.0000       0.442191        12.0326 
 285   0.0000       0.443892        12.0789 
 286   0.0000       0.446015        12.1367 
 287   0.0000       0.450540        12.2598 
 288   0.0000       0.459289        12.4979 
 289   0.0000       0.460697        12.5362 
 290   0.0000       0.465289        12.6612 
 291   0.0000       0.468736        12.7550 
 292   0.0000       0.471080        12.8187 
 293   0.0000       0.472911        12.8686 
 294   0.0000       0.475892        12.9497 
 295   0.0000       0.478745        13.0273 
 296   0.0000       0.482682        13.1345 
 297   0.0000       0.490400        13.3445 
 298   0.0000       0.495211        13.4754 
 299   0.0000       0.498214        13.5571 
 300   0.0000       0.502711        13.6795 
 301   0.0000       0.504641        13.7320 
 302   0.0000       0.505444        13.7538 
 303   0.0000       0.508046        13.8246 
 304   0.0000       0.513523        13.9737 
 305   0.0000       0.514718        14.0062 
 306   0.0000       0.518180        14.1004 
 307   0.0000       0.522779        14.2255 
 308   0.0000       0.523250        14.2383 
 309   0.0000       0.528235        14.3740 
 310   0.0000       0.531310        14.4577 
 311   0.0000       0.539664        14.6850 
 312   0.0000       0.541258        14.7284 
 313   0.0000       0.542616        14.7653 
 314   0.0000       0.544224        14.8091 
 315   0.0000       0.546303        14.8657 
 316   0.0000       0.549930        14.9644 
 317   0.0000       0.549990        14.9660 
 318   0.0000       0.554055        15.0766 
 319   0.0000       0.557106        15.1596 
 320   0.0000       0.562896        15.3172 
 321   0.0000       0.568498        15.4696 
 322   0.0000       0.572260        15.5720 
 323   0.0000       0.574337        15.6285 
 324   0.0000       0.582092        15.8395 
 325   0.0000       0.582637        15.8544 
 326   0.0000       0.585665        15.9367 
 327   0.0000       0.588227        16.0065 
 328   0.0000       0.591461        16.0945 
 329   0.0000       0.593229        16.1426 
 330   0.0000       0.601459        16.3665 
 331   0.0000       0.603732        16.4284 
 332   0.0000       0.610631        16.6161 
 333   0.0000       0.611363        16.6360 
 334   0.0000       0.614707        16.7270 
 335   0.0000       0.619401        16.8548 
 336   0.0000       0.621788        16.9197 
 337   0.0000       0.626523        17.0486 
 338   0.0000       0.628490        17.1021 
 339   0.0000       0.631922        17.1955 
 340   0.0000       0.634356        17.2617 
 341   0.0000       0.644818        17.5464 
 342   0.0000       0.645372        17.5615 
 343   0.0000       0.648124        17.6363 
 344   0.0000       0.651739        17.7347 
 345   0.0000       0.654583        17.8121 
 346   0.0000       0.656925        17.8758 
 347   0.0000       0.660636        17.9768 
 348   0.0000       0.667240        18.1565 
 349   0.0000       0.668040        18.1783 
 350   0.0000       0.669918        18.2294 
 351   0.0000       0.675056        18.3692 
 352   0.0000       0.675328        18.3766 
 353   0.0000       0.676249        18.4017 
 354   0.0000       0.677944        18.4478 
 355   0.0000       0.680720        18.5233 
 356   0.0000       0.685745        18.6601 
 357   0.0000       0.687774        18.7153 
 358   0.0000       0.690969        18.8022 
 359   0.0000       0.693038        18.8585 
 360   0.0000       0.693560        18.8727 
 361   0.0000       0.694493        18.8981 
 362   0.0000       0.698888        19.0177 
 363   0.0000       0.703737        19.1496 
 364   0.0000       0.706879        19.2351 
 365   0.0000       0.707017        19.2389 
 366   0.0000       0.708822        19.2880 
 367   0.0000       0.711453        19.3596 
 368   0.0000       0.713360        19.4115 
 369   0.0000       0.714302        19.4371 
 370   0.0000       0.719830        19.5876 
 371   0.0000       0.720818        19.6145 
 372   0.0000       0.724362        19.7109 
 373   0.0000       0.729128        19.8406 
 374   0.0000       0.730751        19.8847 
 375   0.0000       0.732185        19.9238 
 376   0.0000       0.732566        19.9341 
 377   0.0000       0.734041        19.9743 
 378   0.0000       0.735785        20.0217 
 379   0.0000       0.741068        20.1655 
 380   0.0000       0.743421        20.2295 
 381   0.0000       0.745150        20.2766 
 382   0.0000       0.745817        20.2947 
 383   0.0000       0.747631        20.3441 
 384   0.0000       0.751220        20.4417 
 385   0.0000       0.755992        20.5716 
 386   0.0000       0.759384        20.6639 
 387   0.0000       0.759540        20.6681 
 388   0.0000       0.760850        20.7038 
 389   0.0000       0.765353        20.8263 
 390   0.0000       0.768526        20.9127 
 391   0.0000       0.770647        20.9704 
 392   0.0000       0.775102        21.0916 
 393   0.0000       0.775598        21.1051 
 394   0.0000       0.778735        21.1904 
 395   0.0000       0.781170        21.2567 
 396   0.0000       0.785539        21.3756 
 397   0.0000       0.788746        21.4629 
 398   0.0000       0.791315        21.5328 
 399   0.0000       0.792931        21.5767 
 400   0.0000       0.797463        21.7001 
 401   0.0000       0.798655        21.7325 
 402   0.0000       0.801409        21.8074 
 403   0.0000       0.807733        21.9795 
 404   0.0000       0.812673        22.1140 
 405   0.0000       0.815775        22.1984 
 406   0.0000       0.818341        22.2682 
 407   0.0000       0.825403        22.4604 
 408   0.0000       0.825861        22.4728 
 409   0.0000       0.833004        22.6672 
 410   0.0000       0.835168        22.7261 
 411   0.0000       0.839621        22.8472 
 412   0.0000       0.842319        22.9207 
 413   0.0000       0.848862        23.0987 
 414   0.0000       0.851859        23.1802 
 415   0.0000       0.855639        23.2831 
 416   0.0000       0.858316        23.3560 
 417   0.0000       0.867206        23.5979 
 418   0.0000       0.873054        23.7570 
 419   0.0000       0.873852        23.7787 
 420   0.0000       0.876501        23.8508 
 421   0.0000       0.882369        24.0105 
 422   0.0000       0.886291        24.1172 
 423   0.0000       0.887895        24.1608 
 424   0.0000       0.892628        24.2896 
 425   0.0000       0.897086        24.4110 
 426   0.0000       0.901450        24.5297 
 427   0.0000       0.903805        24.5938 
 428   0.0000       0.908698        24.7269 
 429   0.0000       0.909345        24.7445 
 430   0.0000       0.914397        24.8820 
 431   0.0000       0.917678        24.9713 
 432   0.0000       0.924103        25.1461 
 433   0.0000       0.926666        25.2159 
 434   0.0000       0.929517        25.2934 
 435   0.0000       0.936492        25.4833 
 436   0.0000       0.943131        25.6639 
 437   0.0000       0.947558        25.7844 
 438   0.0000       0.951233        25.8844 
 439   0.0000       0.955189        25.9920 
 440   0.0000       0.963687        26.2233 
 441   0.0000       0.965138        26.2627 
 442   0.0000       0.970097        26.3977 
 443   0.0000       0.983462        26.7614 
 444   0.0000       0.985275        26.8107 
 445   0.0000       0.990775        26.9604 
 446   0.0000       0.992254        27.0006 
 447   0.0000       0.998912        27.1818 
 448   0.0000       1.012389        27.5485 
 449   0.0000       1.019626        27.7454 
 450   0.0000       1.032394        28.0929 
 451   0.0000       1.038979        28.2721 
 452   0.0000       1.041838        28.3499 
 453   0.0000       1.050370        28.5820 
 454   0.0000       1.059338        28.8260 
 455   0.0000       1.063164        28.9302 
 456   0.0000       1.068085        29.0641 
 457   0.0000       1.086544        29.5664 
 458   0.0000       1.087886        29.6029 
 459   0.0000       1.095443        29.8085 
 460   0.0000       1.099654        29.9231 
 461   0.0000       1.105337        30.0777 
 462   0.0000       1.108881        30.1742 
 463   0.0000       1.117631        30.4123 
 464   0.0000       1.123087        30.5608 
 465   0.0000       1.128481        30.7075 
 466   0.0000       1.133499        30.8441 
 467   0.0000       1.136832        30.9348 
 468   0.0000       1.147599        31.2278 
 469   0.0000       1.152168        31.3521 
 470   0.0000       1.155710        31.4485 
 471   0.0000       1.160436        31.5771 
 472   0.0000       1.161663        31.6105 
 473   0.0000       1.163865        31.6704 
 474   0.0000       1.167524        31.7699 
 475   0.0000       1.172537        31.9064 
 476   0.0000       1.178470        32.0678 
 477   0.0000       1.188548        32.3420 
 478   0.0000       1.192553        32.4510 
[...]
 71 H      0.9465     1.0000     0.0535     1.0002     1.0002     0.0000
 72 H      0.9508     1.0000     0.0492     1.0011     1.0011    -0.0000
 73 H      0.9717     1.0000     0.0283     0.9798     0.9798    -0.0000
 74 H      0.9836     1.0000     0.0164     0.9879     0.9879    -0.0000
 75 H      0.9715     1.0000     0.0285     0.9846     0.9846    -0.0000

  Mayer bond orders larger than 0.100000
B(  0-C ,  1-S ) :   1.2149 B(  0-C ,  4-C ) :   1.5643 B(  0-C , 48-H ) :   0.9669 
B(  1-S ,  2-C ) :   1.1490 B(  2-C ,  3-C ) :   1.5781 B(  2-C , 11-C ) :   1.0168 
B(  3-C ,  4-C ) :   1.2828 B(  3-C , 10-C ) :   1.0618 B(  4-C ,  5-S ) :   0.7955 
B(  5-S ,  6-O ) :   1.7047 B(  5-S ,  7-O ) :   1.7389 B(  5-S ,  8-C ) :   0.8911 
B(  8-C ,  9-C ) :   1.0128 B(  8-C , 49-H ) :   0.9339 B(  8-C , 50-H ) :   0.9392 
B(  9-C , 10-C ) :   1.0630 B(  9-C , 51-H ) :   0.9432 B(  9-C , 52-H ) :   0.9304 
B( 10-C , 53-H ) :   0.8985 B( 10-C , 54-H ) :   0.9148 B( 11-C , 12-N ) :   1.5824 
B( 11-C , 16-N ) :   1.5712 B( 12-N , 13-C ) :   1.5379 B( 13-C , 14-C ) :   1.3819 
B( 13-C , 55-H ) :   0.9790 B( 14-C , 15-C ) :   1.3185 B( 14-C , 56-H ) :   0.9756 
B( 15-C , 16-N ) :   1.4840 B( 15-C , 17-C ) :   1.0946 B( 17-C , 18-C ) :   1.6385 
B( 17-C , 57-H ) :   0.9733 B( 18-C , 19-C ) :   1.1429 B( 18-C , 58-H ) :   0.9609 
B( 19-C , 20-C ) :   1.3983 B( 19-C , 27-C ) :   1.0155 B( 20-C , 21-C ) :   1.1755 
B( 20-C , 25-C ) :   1.1215 B( 21-C , 22-C ) :   1.5801 B( 21-C , 59-H ) :   0.9899 
B( 22-C , 23-C ) :   1.1455 B( 22-C , 60-H ) :   0.9847 B( 23-C , 24-C ) :   1.5752 
B( 23-C , 61-H ) :   0.9787 B( 24-C , 25-C ) :   1.1761 B( 24-C , 62-H ) :   0.9918 
B( 25-C , 26-C ) :   1.4308 B( 26-C , 27-C ) :   1.0560 B( 26-C , 29-C ) :   1.0015 
B( 27-C , 28-C ) :   1.8751 B( 28-C , 63-H ) :   0.8930 B( 28-C , 64-H ) :   0.9291 
B( 29-C , 30-N ) :   1.5171 B( 29-C , 34-N ) :   1.5509 B( 30-N , 31-C ) :   1.5457 
B( 31-C , 32-C ) :   1.3665 B( 31-C , 65-H ) :   0.9767 B( 32-C , 33-C ) :   1.3200 
B( 32-C , 66-H ) :   0.9763 B( 33-C , 34-N ) :   1.5284 B( 33-C , 35-C ) :   1.0646 
B( 35-C , 36-C ) :   1.7174 B( 35-C , 67-H ) :   0.9756 B( 36-C , 37-C ) :   1.1226 
B( 36-C , 68-H ) :   0.9500 B( 37-C , 38-S ) :   1.1575 B( 37-C , 41-C ) :   1.5729 
B( 38-S , 39-C ) :   1.1557 B( 39-C , 40-C ) :   1.5923 B( 39-C , 69-H ) :   0.9696 
B( 40-C , 41-C ) :   1.2822 B( 40-C , 47-C ) :   1.0297 B( 41-C , 42-S ) :   0.8118 
B( 42-S , 43-O ) :   1.7001 B( 42-S , 44-O ) :   1.6816 B( 42-S , 45-C ) :   0.8709 
B( 45-C , 46-C ) :   1.0304 B( 45-C , 70-H ) :   0.9318 B( 45-C , 71-H ) :   0.9360 
B( 46-C , 47-C ) :   1.0815 B( 46-C , 72-H ) :   0.9491 B( 46-C , 73-H ) :   0.9347 
B( 47-C , 74-H ) :   0.9222 B( 47-C , 75-H ) :   0.9224 

-------
TIMINGS
-------

Total SCF time: 0 days 0 hours 4 min 22 sec 

Total time                  ....     262.974 sec
Sum of individual times     ....     261.860 sec  ( 99.6%)

Fock matrix formation       ....     242.198 sec  ( 92.1%)
  Split-RI-J                ....      25.545 sec  ( 10.5% of F)
  Chain of spheres X        ....     200.759 sec  ( 82.9% of F)
  COS-X 1 center corr.      ....       0.000 sec  (  0.0% of F)
  XC integration            ....      15.390 sec  (  6.4% of F)
    Basis function eval.    ....       5.237 sec  ( 34.0% of XC)
    Density eval.           ....       3.088 sec  ( 20.1% of XC)
    XC-Functional eval.     ....       3.101 sec  ( 20.1% of XC)
    XC-Potential eval.      ....       3.157 sec  ( 20.5% of XC)
Diagonalization             ....       1.282 sec  (  0.5%)
Density matrix formation    ....       0.144 sec  (  0.1%)
Population analysis         ....       0.138 sec  (  0.1%)
Initial guess               ....       1.785 sec  (  0.7%)
Orbital Transformation      ....       0.000 sec  (  0.0%)
Orbital Orthonormalization  ....       0.000 sec  (  0.0%)
DIIS solution               ....       0.562 sec  (  0.2%)
SOSCF solution              ....       1.097 sec  (  0.4%)
Grid generation             ....      14.653 sec  (  5.6%)


           ************************************************************
           *        Program running with 6 parallel MPI-processes     *
           *              working on a common directory               *
           ************************************************************

---------------------------------------------------------------------------------

                       ORCA sTD-DFT CALCULATION

                       please cite in your paper           
 orginal sTDA method:  S. Grimme, J. Chem. Phys. 138, 244104 (2013)           
 range-separated sTDA: T. Risthaus, A. Hansen, S. Grimme, Phys. Chem. Chem. Phys.
                       16, 14408-14419 (2014) 
 sTD-DFT approach:     C. Bannwarth, S. Grimme, Comp. Theor. Chem. 
                       1040-1041, 45-53 (2014)

---------------------------------------------------------------------------------


spectral range up to (eV)      ...    5.000000
occ. MO cut-off (eV)           ...   -15.282531
virt. MO cut-off (eV)          ...    6.898858
perturbation threshold         ...   1.000e-04 
MOs in sTD-DFT                 ...         124 
occ. MOs in sTD-DFT            ...          66 
virt. in sTD-DFT               ...          58 
calculate triplets           ...   no  

Calculating the dipole lengths integrals ... 
Transforming integrals ... 
Calculating the dipole velocity integrals ... 
Transforming integrals ... 
Calculating magnetic dipole integrals ... 
Transforming integrals ... 

















SCF atom population (using active MOs):

   2.144   3.733   2.248   2.059   2.101   1.827   4.722   4.753   2.363   2.470
   2.457   1.689   3.082   1.844   2.241   1.774   3.014   2.254   2.046   2.137
   2.179   2.329   2.379   2.430   2.421   2.177   2.209   2.191   2.438   1.637
   2.988   1.809   2.058   1.751   3.002   2.169   1.956   1.966   3.570   2.137
   1.950   2.013   1.545   4.482   4.352   1.809   2.135   2.114   0.388   0.631
   0.502   0.577   0.636   0.607   0.607   0.499   0.607   0.524   0.480   0.557
   0.583   0.612   0.608   0.577   0.514   0.507   0.496   0.506   0.436   0.389
   0.340   0.486   0.531   0.565   0.509   0.577

Number of electrons in sTDA:  132.000

ax(DF)   :  0.3800
s^k      :  2.0000
beta  (J):  1.8600
alpha (K):  0.9000

hardness table read
setting up gammas ...
















computing q(ij,n)
memory needed for q data:             3.4 MB 
memory available for q data:       2490.7 MB 

CSF included by energy:           17 
CSF considered in PT2:          3811 

ordered frontier orbitals
           eV         # centers 
  55      -9.141      20.1
  56      -9.112      16.2
  57      -9.013       4.7
  58      -8.666      14.0
  59      -8.632       9.1
  60      -8.511       6.3
  61      -8.421       4.5
  62      -8.294      10.8
  63      -7.737      10.7
  64      -7.699      12.5
  65      -6.141       9.7

  66      -2.243      12.2
  67      -1.476      10.7
  68      -0.578      11.4
  69      -0.318      10.7
  70       0.354       8.6
  71       0.611      13.5
  72       1.122      10.6
  73       1.510       6.6
  74       1.569      11.0
  75       1.677      12.7
  76       1.950      18.0

           eV        nm       excitation i->a                     eV 
   0      2.15     576.4    65 ->  66      gap,J,K:    3.899     2.910     0.581
   1      2.76     449.9    65 ->  67      gap,J,K:    4.665     2.026     0.058
   2      3.69     335.8    64 ->  66      gap,J,K:    5.457     1.861     0.048
   3      3.71     334.4    65 ->  69      gap,J,K:    5.824     2.475     0.179
   4      3.74     331.8    63 ->  66      gap,J,K:    5.495     1.884     0.063
   5      3.75     330.4    65 ->  68      gap,J,K:    5.564     2.003     0.096
   6      3.77     328.8    60 ->  66      gap,J,K:    6.269     2.742     0.122
   7      4.19     295.6    59 ->  66      gap,J,K:    6.390     2.412     0.109
   8      4.22     294.1    58 ->  66      gap,J,K:    6.423     2.543     0.168
   9      4.32     286.8    65 ->  70      gap,J,K:    6.495     2.521     0.174
  10      4.33     286.0    62 ->  66      gap,J,K:    6.052     2.828     0.556
  11      4.42     280.8    60 ->  67      gap,J,K:    7.035     2.634     0.007
  12      4.58     271.0    61 ->  66      gap,J,K:    6.178     1.689     0.043
  13      4.66     266.3    64 ->  67      gap,J,K:    6.223     2.711     0.572
  14      4.76     260.6    65 ->  71      gap,J,K:    6.752     2.268     0.137
  15      4.96     249.9    52 ->  66      gap,J,K:    7.580     2.637     0.009
  16      4.96     249.9    62 ->  67      gap,J,K:    6.818     1.876     0.010









average / max PT2 energy lowering (eV):       0.044       0.161

CSF included by PT:                   158 
total number of CSF included:         175 
 
sTD-DFT procedure...
setting up A+B and A-B matrices...  done
estimated time (min):    0.000
calculating (A-B)^0.5 ... done
calculating (A+B)*(A-B)^0.5 ... done
calculating (A-B)^0.5 *(A+B)*(A-B)^0.5 ... done
diagonalizing ...using LAPACKE_ssyevr ...done

   19 roots found, lowest/highest eigenvalue :     1.666     4.819

excitation energies, transition moments and amplitudes

molecular weight:  708.884
state   eV        nm        fL         fV        Rl        RV
   0   1.666     744.0   0.311007   0.474582   3.333101  24.139706     0.98 (  65->  66)    0.01 (  65->  69)    0.00 (  65->  68)
   1   2.630     471.4   0.008284   0.009248   3.663786   1.617446     0.95 (  65->  67)    0.01 (  65->  70)    0.01 (  65->  71)
   2   3.293     376.5   0.198487   0.208062  -31.201422  -30.653627     0.41 (  65->  69)    0.23 (  65->  68)    0.18 (  62->  66)
   3   3.450     359.4   0.037270   0.039578   7.730551   9.310152     0.71 (  60->  66)    0.08 (  58->  66)    0.06 (  59->  66)
   4   3.570     347.3   0.220297   0.216998  -16.422997  -12.503651     0.63 (  64->  66)    0.17 (  65->  69)    0.12 (  63->  66)
   5   3.597     344.7   0.028885   0.031106  -7.642115  -9.206682     0.57 (  63->  66)    0.25 (  64->  66)    0.08 (  65->  69)
   6   3.749     330.7   0.295729   0.284590  -90.594834  -87.062134     0.59 (  65->  68)    0.12 (  62->  66)    0.09 (  63->  66)
   7   3.839     322.9   0.348333   0.343203  147.627802  142.697795     0.30 (  62->  66)    0.17 (  59->  66)    0.11 (  65->  69)
   8   3.892     318.5   0.103911   0.100190  -41.819756  -31.890118     0.47 (  59->  66)    0.16 (  65->  70)    0.04 (  65->  71)
   9   3.947     314.1   0.026763   0.025064   1.362277   0.680979     0.44 (  58->  66)    0.15 (  60->  67)    0.08 (  65->  70)
  10   3.954     313.6   0.025041   0.024293  -13.720129  -10.747550     0.54 (  60->  67)    0.13 (  58->  66)    0.06 (  58->  67)
  11   4.055     305.8   0.291138   0.272269  260.460694  244.534617     0.57 (  64->  67)    0.11 (  62->  66)    0.09 (  63->  67)
  12   4.407     281.4   0.585016   0.541923  -42.349961  -39.290295     0.47 (  65->  70)    0.13 (  64->  67)    0.08 (  62->  66)
  13   4.485     276.5   0.003099   0.004230  11.694288  11.439946     0.77 (  61->  66)    0.05 (  55->  66)    0.05 (  56->  66)
  14   4.584     270.4   0.008143   0.007389   6.544968   5.503024     0.26 (  55->  66)    0.22 (  56->  66)    0.12 (  52->  66)
  15   4.705     263.5   0.252826   0.234875  83.688010  67.636817     0.57 (  65->  71)    0.09 (  59->  68)    0.07 (  58->  68)
  16   4.721     262.6   0.106266   0.100958  -35.089705  -20.108829     0.35 (  59->  68)    0.23 (  58->  68)    0.13 (  65->  71)
  17   4.738     261.7   0.046281   0.037878  -6.119349  -7.839794     0.63 (  52->  66)    0.09 (  53->  66)    0.04 (  51->  66)
  18   4.819     257.3   0.024772   0.019913   5.010953   1.779224     0.71 (  62->  67)    0.09 (  63->  67)    0.06 (  60->  67)

-----------------------------------------------------------------------------
         ABSORPTION SPECTRUM VIA TRANSITION ELECTRIC DIPOLE MOMENTS
-----------------------------------------------------------------------------
State   Energy  Wavelength   fosc         T2         TX        TY        TZ  
        (cm-1)    (nm)                  (au**2)     (au)      (au)      (au) 
-----------------------------------------------------------------------------
   0   13440.5    744.0   0.311007495   7.61784   1.53343   0.49339  -2.24120
   1   21211.9    471.4   0.008283764   0.12857  -0.29424  -0.11705  -0.16818
   2   26559.8    376.5   0.198487112   2.46027   0.88170   0.29003  -1.26442
   3   27823.4    359.4   0.037270419   0.44099  -0.44792  -0.23088   0.43250
   4   28797.2    347.3   0.220296845   2.51845   1.17691   0.63377  -0.85538
   5   29008.4    344.7   0.028884874   0.32781   0.20798   0.16035  -0.50876
   6   30237.4    330.7   0.295729371   3.21978   1.34467   0.93529  -0.73273
   7   30965.2    322.9   0.348332985   3.70336   1.64447   0.38543  -0.92224
   8   31395.0    318.5   0.103910838   1.08962   0.88427   0.20951  -0.51361
   9   31833.8    314.1   0.026762885   0.27677   0.27366   0.06909  -0.44397
  10   31889.4    313.6   0.025041319   0.25852  -0.08116  -0.33170   0.37670
  11   32702.8    305.8   0.291138458   2.93083   1.59703  -0.10714  -0.60733
  12   35542.7    281.4   0.585015672   5.41867   1.74307   1.09124   1.09068
  13   36172.1    276.5   0.003099476   0.02821  -0.10969  -0.03831  -0.12128
  14   36976.1    270.4   0.008142996   0.07250   0.16894   0.01468  -0.20915
  15   37948.3    263.5   0.252825959   2.19334   0.92424   0.69906   0.92219
  16   38079.5    262.6   0.106265618   0.91871  -0.57988  -0.49413  -0.58162
  17   38215.4    261.7   0.046280693   0.39869   0.32021   0.20585   0.50377
  18   38865.4    257.3   0.024772269   0.20983   0.37237   0.22249   0.14721

-----------------------------------------------------------------------------
         ABSORPTION SPECTRUM VIA TRANSITION VELOCITY DIPOLE MOMENTS
-----------------------------------------------------------------------------
State   Energy  Wavelength   fosc         P2         PX        PY        PZ  
        (cm-1)    (nm)                  (au**2)     (au)      (au)      (au) 
-----------------------------------------------------------------------------
   0   13440.5    744.0   0.474581644   0.04359   0.11493   0.03948  -0.16979
   1   21211.9    471.4   0.009247851   0.00134  -0.02839  -0.01179  -0.01990
   2   26559.8    376.5   0.208061804   0.03777   0.10883   0.03581  -0.15697
   3   27823.4    359.4   0.039578474   0.00753  -0.05935  -0.02753   0.05697
   4   28797.2    347.3   0.216998337   0.04271   0.15258   0.08151  -0.11306
   5   29008.4    344.7   0.031106313   0.00617   0.02909   0.02004  -0.07014
   6   30237.4    330.7   0.284589586   0.05881   0.18139   0.12616  -0.09997
   7   30965.2    322.9   0.343202779   0.07263   0.22933   0.05592  -0.13005
   8   31395.0    318.5   0.100190058   0.02150   0.12161   0.02914  -0.07654
   9   31833.8    314.1   0.025063809   0.00545   0.03965   0.00932  -0.06160
  10   31889.4    313.6   0.024292725   0.00529  -0.00967  -0.04991   0.05205
  11   32702.8    305.8   0.272268514   0.06085   0.23080  -0.01539  -0.08572
  12   35542.7    281.4   0.541923001   0.13164   0.27208   0.17042   0.16903
  13   36172.1    276.5   0.004230264   0.00105  -0.02173  -0.00990  -0.02181
  14   36976.1    270.4   0.007389129   0.00187   0.02970   0.00335  -0.03121
  15   37948.3    263.5   0.234874538   0.06092   0.15182   0.11688   0.15559
  16   38079.5    262.6   0.100957644   0.02627  -0.10027  -0.08082  -0.09843
  17   38215.4    261.7   0.037877644   0.00989   0.04889   0.03208   0.08046
  18   38865.4    257.3   0.019913146   0.00529   0.05766   0.03581   0.02612

-------------------------------------------------------------------
                             CD SPECTRUM
-------------------------------------------------------------------
State   Energy Wavelength       R         MX        MY        MZ   
        (cm-1)   (nm)       (1e40*cgs)   (au)      (au)      (au)  
-------------------------------------------------------------------
   0   13440.5    744.0      3.33310   2.06517  -1.25970   1.14199
   1   21211.9    471.4      3.66379   0.50646  -1.00963  -0.09099
   2   26559.8    376.5    -31.20142   1.13586  -0.07614   0.66990
   3   27823.4    359.4      7.73055  -0.22279  -0.26622  -0.44868
   4   28797.2    347.3    -16.42300  -0.04486   1.05471   0.63828
   5   29008.4    344.7     -7.64211   0.32990  -0.26909  -0.01367
   6   30237.4    330.7    -90.59483  -0.03105   1.12091   0.84929
   7   30965.2    322.9    147.62780   0.01647   1.87254   1.49105
   8   31395.0    318.5    -41.81976   0.36659   1.61621   0.94500
   9   31833.8    314.1      1.36228   0.23891   0.07383   0.17177
  10   31889.4    313.6    -13.72013   0.10589   0.38790   0.51890
  11   32702.8    305.8    260.46069   0.46072   4.18379   2.29276
  12   35542.7    281.4    -42.34996  -3.86813   5.10549   1.23846
  13   36172.1    276.5     11.69429   0.68226  -0.76257   0.03289
  14   36976.1    270.4      6.54497   0.00535   0.16064   0.14835
  15   37948.3    263.5     83.68801  -3.53511   4.01250   0.11632
  16   38079.5    262.6    -35.08971   2.01773  -2.16576  -0.42767
  17   38215.4    261.7     -6.11935  -1.15806   1.21005   0.29318
  18   38865.4    257.3      5.01095  -0.72914   1.00809   0.17634

sTD-DFT done

Total run time:        1.273 sec

           *** ORCA-CIS/TD-DFT FINISHED WITHOUT ERROR ***

-------------------------   --------------------
FINAL SINGLE POINT ENERGY     -3498.303318559629
-------------------------   --------------------


                            ***************************************
                            *     ORCA property calculations      *
                            ***************************************

                                    ---------------------
                                    Active property flags
                                    ---------------------
   (+) Dipole Moment


------------------------------------------------------------------------------
                       ORCA ELECTRIC PROPERTIES CALCULATION
------------------------------------------------------------------------------

Dipole Moment Calculation                       ... on
Quadrupole Moment Calculation                   ... off
Polarizability Calculation                      ... off
GBWName                                         ... xtbopt.gbw
Electron density file                           ... xtbopt.scfp
The origin for moment calculation is the CENTER OF MASS  = (11.456059, 12.446280 -7.606904)

-------------
DIPOLE MOMENT
-------------
                                X             Y             Z
Electronic contribution:    -19.41997      -7.33486       7.42088
Nuclear contribution   :     22.63125       6.66610     -11.91256
                        -----------------------------------------
Total Dipole Moment    :      3.21128      -0.66875      -4.49168
                        -----------------------------------------
Magnitude (a.u.)       :      5.56190
Magnitude (Debye)      :     14.13724



--------------------
Rotational spectrum 
--------------------
 
Rotational constants in cm-1:     0.003361     0.000620     0.000549 
Rotational constants in MHz :   100.747788    18.598528    16.473491 

 Dipole components along the rotational axes: 
x,y,z [a.u.] :    -5.434806     1.175029     0.130225 
x,y,z [Debye]:   -13.814180     2.986686     0.331007 

 

Timings for individual modules:

Sum of individual times         ...      267.272 sec (=   4.455 min)
GTO integral calculation        ...        1.795 sec (=   0.030 min)   0.7 %
SCF iterations                  ...      263.551 sec (=   4.393 min)  98.6 %
CIS module                      ...        1.926 sec (=   0.032 min)   0.7 %
                             ****ORCA TERMINATED NORMALLY****
TOTAL RUN TIME: 0 days 0 hours 4 minutes 28 seconds 75 msec
