
                                 *****************
                                 * O   R   C   A *
                                 *****************

           --- An Ab Initio, DFT and Semiempirical electronic structure package ---

                  #######################################################
                  #                        -***-                        #
                  #          Department of theory and spectroscopy      #
                  #               Directorship: Frank Neese             #
                  #        Max Planck Institute fuer Kohlenforschung    #
                  #                Kaiser Wilhelm Platz 1               #
                  #                 D-45470 Muelheim/Ruhr               #
                  #                      Germany                        #
                  #                                                     #
                  #                  All rights reserved                #
                  #                        -***-                        #
                  #######################################################


                         Program Version 4.2.0 -  RELEASE  -


 With contributions from (in alphabetic order):
   Daniel Aravena         : Magnetic Suceptibility
   Michael Atanasov       : Ab Initio Ligand Field Theory (pilot matlab implementation)
   Alexander A. Auer      : GIAO ZORA, VPT2
   Ute Becker             : Parallelization
   Giovanni Bistoni       : ED, misc. LED, open-shell LED, HFLED
   Martin Brehm           : Molecular dynamics
   Dmytro Bykov           : SCF Hessian
   Vijay G. Chilkuri      : MRCI spin determinant printing, contributions to CSF-ICE
   Dipayan Datta          : RHF DLPNO-CCSD density
   Achintya Kumar Dutta   : EOM-CC, STEOM-CC
   Dmitry Ganyushin       : Spin-Orbit,Spin-Spin,Magnetic field MRCI
   Miquel Garcia          : C-PCM Hessian, Gaussian charge scheme
   Yang Guo               : DLPNO-NEVPT2, CIM, IAO-localization
   Andreas Hansen         : Spin unrestricted coupled pair/coupled cluster methods
   Benjamin Helmich-Paris : CASSCF linear response (MC-RPA)
   Lee Huntington         : MR-EOM, pCC
   Robert Izsak           : Overlap fitted RIJCOSX, COSX-SCS-MP3, EOM
   Christian Kollmar      : KDIIS, OOCD, Brueckner-CCSD(T), CCSD density
   Simone Kossmann        : Meta GGA functionals, TD-DFT gradient, OOMP2, MP2 Hessian
   Martin Krupicka        : AUTO-CI
   Lucas Lang             : DCDCAS
   Dagmar Lenk            : GEPOL surface, SMD
   Dimitrios Liakos       : Extrapolation schemes; Compound Job, initial MDCI parallelization
   Dimitrios Manganas     : Further ROCIS development; embedding schemes
   Dimitrios Pantazis     : SARC Basis sets
   Taras Petrenko         : DFT Hessian,TD-DFT gradient, ASA, ECA, R-Raman, ABS, FL, XAS/XES, NRVS
   Peter Pinski           : DLPNO-MP2, DLPNO-MP2 Gradient
   Christoph Reimann      : Effective Core Potentials
   Marius Retegan         : Local ZFS, SOC
   Christoph Riplinger    : Optimizer, TS searches, QM/MM, DLPNO-CCSD(T), (RO)-DLPNO pert. Triples
   Tobias Risthaus        : Range-separated hybrids, TD-DFT gradient, RPA, STAB
   Michael Roemelt        : Original ROCIS implementation
   Masaaki Saitow         : Open-shell DLPNO-CCSD energy and density
   Barbara Sandhoefer     : DKH picture change effects
   Avijit Sen             : IP-ROCIS
   Kantharuban Sivalingam : CASSCF convergence, NEVPT2, FIC-MRCI
   Bernardo de Souza      : ESD, SOC TD-DFT
   Georgi Stoychev        : AutoAux, RI-MP2 NMR
   Willem Van den Heuvel  : Paramagnetic NMR
   Boris Wezisla          : Elementary symmetry handling
   Frank Wennmohs         : Technical directorship


 We gratefully acknowledge several colleagues who have allowed us to
 interface, adapt or use parts of their codes:
   Stefan Grimme, W. Hujo, H. Kruse,             : VdW corrections, initial TS optimization,
                  C. Bannwarth                     DFT functionals, gCP, sTDA/sTD-DF
   Ed Valeev, F. Pavosevic, A. Kumar             : LibInt (2-el integral package), F12 methods
   Garnet Chan, S. Sharma, J. Yang, R. Olivares  : DMRG
   Ulf Ekstrom                                   : XCFun DFT Library
   Mihaly Kallay                                 : mrcc  (arbitrary order and MRCC methods)
   Andreas Klamt, Michael Diedenhofen            : otool_cosmo (COSMO solvation model)
   Jiri Pittner, Ondrej Demel                    : Mk-CCSD
   Frank Weinhold                                : gennbo (NPA and NBO analysis)
   Christopher J. Cramer and Donald G. Truhlar   : smd solvation model
   Lars Goerigk                                  : TD-DFT with DH, B97 family of functionals
   V. Asgeirsson, H. Jonsson                     : NEB implementation
   FAccTs GmbH                                   : IRC, NEB, NEB-TS, Multilevel, MM, QM/MM, CI optimization
   S Lehtola, MJT Oliveira, MAL Marques          : LibXC Library


 Your calculation uses the libint2 library for the computation of 2-el integrals
 For citations please refer to: http://libint.valeyev.net

 Your ORCA version has been built with support for libXC version: 4.2.3
 For citations please refer to: https://tddft.org/programs/libxc/

 This ORCA versions uses:
   CBLAS   interface :  Fast vector & matrix operations
   LAPACKE interface :  Fast linear algebra routines
   SCALAPACK package :  Parallel linear algebra routines


XCFun DFT library Copyright 2009-2010 Ulf Ekstrom and contributors.
See http://admol.org/xcfun for more information. This is free soft-
ware; see the source code for copying conditions. There is ABSOLUTELY
NO WARRANTY; not even for MERCHANTABILITY or FITNESS FOR A PARTICULAR
PURPOSE. For details see the documentation. Scientific users of this 
library should cite U. Ekstrom, L. Visscher, R. Bast, A. J. Thorvald-
sen and K. Ruud; J.Chem.Theor.Comp. 2010, DOI: 10.1021/ct100117s
XCFun Version 0.99 
----- Orbital basis set information -----
Your calculation utilizes the basis: def2-SVP
   F. Weigend and R. Ahlrichs, Phys. Chem. Chem. Phys. 7, 3297 (2005).

----- AuxJ basis set information -----
Your calculation utilizes the auxiliary basis: def2/J
   F. Weigend, Phys. Chem. Chem. Phys. 8, 1057 (2006).

================================================================================
                                        WARNINGS
                       Please study these warnings very carefully!
================================================================================

INFO   : Checking CIS options ...

WARNING: CIS/ROCIS methods need fully converged wavefunctions
  ===> : Setting SCFConvForced true
         You can overwrite this default with %scf ConvForced false 


INFO   : the flag for use of LIBINT has been found!

================================================================================
                                       INPUT FILE
================================================================================
NAME = xtbopt.inp
|  1> # ORCA input file
|  2> # SCF done       -206.900863971522          0.000770518764
|  3> ! CAM-B3LYP def2-SVP def2/J RIJCOSX Grid4 TightSCF
|  4> %maxcore 5000
|  5> %tddft
|  6>     Mode sTDDFT
|  7>     Ethresh 5.0
|  8>     maxcore 5000
|  9> end
| 10> 
| 11> %pal
| 12>   nprocs 6
| 13>   end
| 14> * xyz 0 1
| 15>    C       -7.37627         0.57221         5.43791
| 16>    C       -6.94312        -0.71655         5.25954
| 17>    C       -6.90260        -1.68479         6.28513
| 18>    N       -6.84636        -2.51885         7.07188
| 19>    C       -6.45771        -1.26671         4.05448
| 20>    N       -6.04064        -1.79133         3.12184
| 21>    C       -7.83148         1.14062         6.70283
| 22>    C       -8.13159         2.51249         6.50377
| 23>    C       -8.58046         3.32996         7.51301
| 24>    C       -8.74610         2.76741         8.78198
| 25>    C       -8.44865         1.39640         8.97226
| 26>    C       -7.99164         0.57051         7.95115
| 27>    S       -8.73012         0.91497        10.61508
| 28>    C       -9.23198         2.51853        11.02509
| 29>    C       -9.19366         3.38086         9.98570
| 30>    C       -7.88831         2.85808         5.09743
| 31>    O       -8.03850         3.95543         4.58487
| 32>    C       -7.44096         1.62489         4.44022
| 33>    C       -7.16778         1.48839         3.10362
| 34>    C       -7.19558         2.44419         2.07873
| 35>    S       -7.55783         4.13819         2.23257
| 36>    C       -7.29626         4.41727         0.54130
| 37>    C       -6.95442         3.23296        -0.12195
| 38>    C       -6.90075         2.13650         0.73561
| 39>    S       -6.53574         0.47195         0.30243
| 40>    C       -6.28973         0.35130        -1.44592
| 41>    O       -6.10890        -0.74782        -1.88903
| 42>    C       -6.27352         1.54439        -2.37100
| 43>    O       -6.01368         1.39314        -3.53360
| 44>    S       -6.62659         3.19330        -1.85112
| 45>    C       -7.45923         5.75625         0.09967
| 46>    C       -7.24420         6.26030        -1.13667
| 47>    C       -7.39420         7.63783        -1.52399
| 48>    C       -6.96779         8.01516        -2.81093
| 49>    C       -7.05781         9.32597        -3.20408
| 50>    C       -7.58836        10.29598        -2.33392
| 51>    C       -8.03505         9.93436        -1.06932
| 52>    C       -7.93293         8.61787        -0.67511
| 53>    C       -7.54382        11.57983        -2.99261
| 54>    C       -6.98430        11.41016        -4.27152
| 55>    C       -6.63931         9.95829        -4.51135
| 56>    C       -5.13123         9.77386        -4.76381
| 57>    C       -4.27053        10.31520        -3.62868
| 58>    C       -7.43488         9.37903        -5.69612
| 59>    C       -8.94203         9.52779        -5.52700
| 60>    C       -6.81205        12.48774        -5.10403
| 61>    C       -7.18765        13.77244        -4.67542
| 62>    C       -7.75478        13.91846        -3.40039
| 63>    C       -7.93575        12.83992        -2.56156
| 64>    C       -6.96659        14.88711        -5.56225
| 65>    C       -7.15843        16.19016        -5.27097
| 66>    C       -6.91900        17.26718        -6.16765
| 67>    S       -6.36514        17.01161        -7.80007
| 68>    C       -6.36991        18.72147        -8.12986
| 69>    C       -6.78949        19.43350        -7.01760
| 70>    C       -7.08473        18.61854        -5.91351
| 71>    C       -7.54827        19.16943        -4.59868
| 72>    C       -7.25969        20.67445        -4.50304
| 73>    C       -7.91936        21.21295        -3.33530
| 74>    N       -8.46928        21.60985        -2.41619
| 75>    C       -7.75732        21.37779        -5.78245
| 76>    C       -7.66430        22.81324        -5.64327
| 77>    N       -7.55607        23.94678        -5.55145
| 78>    C       -6.90775        20.92743        -6.97961
| 79>    C       -5.97565        19.24779        -9.38942
| 80>    C       -5.58640        18.50215       -10.44738
| 81>    C       -5.18824        19.01793       -11.71668
| 82>    C       -4.80243        18.25342       -12.80930
| 83>    C       -4.48022        19.12433       -13.89066
| 84>    C       -4.05145        18.87715       -15.17199
| 85>    C       -3.81589        19.98474       -16.00720
| 86>    C       -3.38400        20.06980       -17.32315
| 87>    C       -3.30662        21.44755       -17.70189
| 88>    C       -3.69331        22.21020       -16.61577
| 89>    C       -4.02065        21.33734       -15.52987
| 90>    C       -4.44875        21.58670       -14.25327
| 91>    C       -4.68458        20.47728       -13.41442
| 92>    C       -5.11223        20.39810       -12.10057
| 93>    C       -2.89863        21.97212       -18.98318
| 94>    C       -2.51371        21.24817       -20.03048
| 95>    H       -8.79720         4.37047         7.32693
| 96>    H       -7.78096        -0.46690         8.14967
| 97>    H       -9.52972         2.71927        12.03589
| 98>    H       -9.46965         4.41771        10.05251
| 99>    H       -6.88748         0.49931         2.76145
|100>    H       -7.77260         6.41894         0.89557
|101>    H       -6.90088         5.60295        -1.92209
|102>    H       -6.55939         7.26434        -3.47222
|103>    H       -8.45215        10.67368        -0.40211
|104>    H       -8.28189         8.33830         0.30639
|105>    H       -4.86811        10.28404        -5.69263
|106>    H       -4.92672         8.70977        -4.89821
|107>    H       -4.44571        11.37946        -3.48720
|108>    H       -3.21730        10.16692        -3.85516
|109>    H       -4.49699         9.80353        -2.69581
|110>    H       -7.18458         8.32137        -5.80103
|111>    H       -7.12092         9.88882        -6.60934
|112>    H       -9.28173         9.01215        -4.63139
|113>    H       -9.45762         9.10259        -6.38490
|114>    H       -9.21829        10.57675        -5.44455
|115>    H       -6.38036        12.36518        -6.08730
|116>    H       -8.06355        14.89582        -3.06361
|117>    H       -8.37360        12.97559        -1.58386
|118>    H       -6.59506        14.63678        -6.54891
|119>    H       -7.51825        16.48075        -4.29430
|120>    H       -7.04910        18.65527        -3.77358
|121>    H       -8.62604        19.00006        -4.48811
|122>    H       -6.18042        20.84366        -4.39953
|123>    H       -8.80942        21.11380        -5.94862
|124>    H       -5.90952        21.37502        -6.90404
|125>    H       -7.36314        21.29577        -7.90224
|126>    H       -5.99577        20.32512        -9.47232
|127>    H       -5.56902        17.42386       -10.34501
|128>    H       -4.75338        17.18031       -12.84154
|129>    H       -3.89666        17.87093       -15.53596
|130>    H       -3.14520        19.23679       -17.95899
|131>    H       -3.74300        23.28347       -16.58012
|132>    H       -4.60392        22.59275       -13.88874
|133>    H       -5.34771        21.23529       -11.46874
|134>    H       -2.92047        23.05241       -19.05915
|135>    H       -2.47585        20.17270       -20.00406
|136>    H       -2.22269        21.71054       -20.95765
|137> *
|138> 
|139>                          ****END OF INPUT****
================================================================================

                       ****************************
                       * Single Point Calculation *
                       ****************************

---------------------------------
CARTESIAN COORDINATES (ANGSTROEM)
---------------------------------
  C     -7.376270    0.572210    5.437910
  C     -6.943120   -0.716550    5.259540
  C     -6.902600   -1.684790    6.285130
  N     -6.846360   -2.518850    7.071880
  C     -6.457710   -1.266710    4.054480
  N     -6.040640   -1.791330    3.121840
  C     -7.831480    1.140620    6.702830
  C     -8.131590    2.512490    6.503770
  C     -8.580460    3.329960    7.513010
  C     -8.746100    2.767410    8.781980
  C     -8.448650    1.396400    8.972260
  C     -7.991640    0.570510    7.951150
  S     -8.730120    0.914970   10.615080
  C     -9.231980    2.518530   11.025090
  C     -9.193660    3.380860    9.985700
  C     -7.888310    2.858080    5.097430
  O     -8.038500    3.955430    4.584870
  C     -7.440960    1.624890    4.440220
  C     -7.167780    1.488390    3.103620
  C     -7.195580    2.444190    2.078730
  S     -7.557830    4.138190    2.232570
  C     -7.296260    4.417270    0.541300
  C     -6.954420    3.232960   -0.121950
  C     -6.900750    2.136500    0.735610
  S     -6.535740    0.471950    0.302430
  C     -6.289730    0.351300   -1.445920
  O     -6.108900   -0.747820   -1.889030
  C     -6.273520    1.544390   -2.371000
  O     -6.013680    1.393140   -3.533600
  S     -6.626590    3.193300   -1.851120
  C     -7.459230    5.756250    0.099670
  C     -7.244200    6.260300   -1.136670
  C     -7.394200    7.637830   -1.523990
  C     -6.967790    8.015160   -2.810930
  C     -7.057810    9.325970   -3.204080
  C     -7.588360   10.295980   -2.333920
  C     -8.035050    9.934360   -1.069320
  C     -7.932930    8.617870   -0.675110
  C     -7.543820   11.579830   -2.992610
  C     -6.984300   11.410160   -4.271520
  C     -6.639310    9.958290   -4.511350
  C     -5.131230    9.773860   -4.763810
  C     -4.270530   10.315200   -3.628680
  C     -7.434880    9.379030   -5.696120
  C     -8.942030    9.527790   -5.527000
  C     -6.812050   12.487740   -5.104030
  C     -7.187650   13.772440   -4.675420
  C     -7.754780   13.918460   -3.400390
  C     -7.935750   12.839920   -2.561560
  C     -6.966590   14.887110   -5.562250
  C     -7.158430   16.190160   -5.270970
  C     -6.919000   17.267180   -6.167650
  S     -6.365140   17.011610   -7.800070
  C     -6.369910   18.721470   -8.129860
  C     -6.789490   19.433500   -7.017600
  C     -7.084730   18.618540   -5.913510
  C     -7.548270   19.169430   -4.598680
  C     -7.259690   20.674450   -4.503040
  C     -7.919360   21.212950   -3.335300
  N     -8.469280   21.609850   -2.416190
  C     -7.757320   21.377790   -5.782450
  C     -7.664300   22.813240   -5.643270
  N     -7.556070   23.946780   -5.551450
  C     -6.907750   20.927430   -6.979610
  C     -5.975650   19.247790   -9.389420
  C     -5.586400   18.502150  -10.447380
  C     -5.188240   19.017930  -11.716680
  C     -4.802430   18.253420  -12.809300
  C     -4.480220   19.124330  -13.890660
  C     -4.051450   18.877150  -15.171990
  C     -3.815890   19.984740  -16.007200
  C     -3.384000   20.069800  -17.323150
  C     -3.306620   21.447550  -17.701890
  C     -3.693310   22.210200  -16.615770
  C     -4.020650   21.337340  -15.529870
  C     -4.448750   21.586700  -14.253270
  C     -4.684580   20.477280  -13.414420
  C     -5.112230   20.398100  -12.100570
  C     -2.898630   21.972120  -18.983180
  C     -2.513710   21.248170  -20.030480
  H     -8.797200    4.370470    7.326930
  H     -7.780960   -0.466900    8.149670
  H     -9.529720    2.719270   12.035890
  H     -9.469650    4.417710   10.052510
  H     -6.887480    0.499310    2.761450
  H     -7.772600    6.418940    0.895570
  H     -6.900880    5.602950   -1.922090
  H     -6.559390    7.264340   -3.472220
  H     -8.452150   10.673680   -0.402110
  H     -8.281890    8.338300    0.306390
  H     -4.868110   10.284040   -5.692630
  H     -4.926720    8.709770   -4.898210
  H     -4.445710   11.379460   -3.487200
  H     -3.217300   10.166920   -3.855160
  H     -4.496990    9.803530   -2.695810
  H     -7.184580    8.321370   -5.801030
  H     -7.120920    9.888820   -6.609340
  H     -9.281730    9.012150   -4.631390
  H     -9.457620    9.102590   -6.384900
  H     -9.218290   10.576750   -5.444550
  H     -6.380360   12.365180   -6.087300
  H     -8.063550   14.895820   -3.063610
  H     -8.373600   12.975590   -1.583860
  H     -6.595060   14.636780   -6.548910
  H     -7.518250   16.480750   -4.294300
  H     -7.049100   18.655270   -3.773580
  H     -8.626040   19.000060   -4.488110
  H     -6.180420   20.843660   -4.399530
  H     -8.809420   21.113800   -5.948620
  H     -5.909520   21.375020   -6.904040
  H     -7.363140   21.295770   -7.902240
  H     -5.995770   20.325120   -9.472320
  H     -5.569020   17.423860  -10.345010
  H     -4.753380   17.180310  -12.841540
  H     -3.896660   17.870930  -15.535960
  H     -3.145200   19.236790  -17.958990
  H     -3.743000   23.283470  -16.580120
  H     -4.603920   22.592750  -13.888740
  H     -5.347710   21.235290  -11.468740
  H     -2.920470   23.052410  -19.059150
  H     -2.475850   20.172700  -20.004060
  H     -2.222690   21.710540  -20.957650

----------------------------
CARTESIAN COORDINATES (A.U.)
----------------------------
  NO LB      ZA    FRAG     MASS         X           Y           Z
   0 C     6.0000    0    12.011  -13.939130    1.081320   10.276161
   1 C     6.0000    0    12.011  -13.120595   -1.354083    9.939090
   2 C     6.0000    0    12.011  -13.044024   -3.183792   11.877174
   3 N     7.0000    0    14.007  -12.937745   -4.759937   13.363916
   4 C     6.0000    0    12.011  -12.203303   -2.393735    7.661857
   5 N     7.0000    0    14.007  -11.415155   -3.385123    5.899423
   6 C     6.0000    0    12.011  -14.799352    2.155459   12.666513
   7 C     6.0000    0    12.011  -15.366478    4.747918   12.290344
   8 C     6.0000    0    12.011  -16.214720    6.292712   14.197531
   9 C     6.0000    0    12.011  -16.527734    5.229647   16.595537
  10 C     6.0000    0    12.011  -15.965635    2.638814   16.955114
  11 C     6.0000    0    12.011  -15.102011    1.078108   15.025496
  12 S    16.0000    0    32.060  -16.497536    1.729043   20.059594
  13 C     6.0000    0    12.011  -17.445914    4.759332   20.834401
  14 C     6.0000    0    12.011  -17.373500    6.388899   18.870238
  15 C     6.0000    0    12.011  -14.906746    5.400988    9.632747
  16 O     8.0000    0    15.999  -15.190564    7.474679    8.664149
  17 C     6.0000    0    12.011  -14.061377    3.070597    8.390800
  18 C     6.0000    0    12.011  -13.545141    2.812649    5.864992
  19 C     6.0000    0    12.011  -13.597676    4.618850    3.928230
  20 S    16.0000    0    32.060  -14.282229    7.820046    4.218946
  21 C     6.0000    0    12.011  -13.787933    8.347431    1.022909
  22 C     6.0000    0    12.011  -13.141949    6.109409   -0.230452
  23 C     6.0000    0    12.011  -13.040528    4.037400    1.390101
  24 S    16.0000    0    32.060  -12.350759    0.891856    0.571510
  25 C     6.0000    0    12.011  -11.885867    0.663861   -2.732393
  26 O     8.0000    0    15.999  -11.544148   -1.413175   -3.569749
  27 C     6.0000    0    12.011  -11.855235    2.918474   -4.480541
  28 O     8.0000    0    15.999  -11.364208    2.632653   -6.677536
  29 S    16.0000    0    32.060  -12.522440    6.034462   -3.498110
  30 C     6.0000    0    12.011  -14.095902   10.877736    0.188349
  31 C     6.0000    0    12.011  -13.689554   11.830253   -2.147995
  32 C     6.0000    0    12.011  -13.973013   14.433407   -2.879924
  33 C     6.0000    0    12.011  -13.167215   15.146457   -5.311888
  34 C     6.0000    0    12.011  -13.337328   17.623529   -6.054834
  35 C     6.0000    0    12.011  -14.339922   19.456582   -4.410470
  36 C     6.0000    0    12.011  -15.184044   18.773220   -2.020722
  37 C     6.0000    0    12.011  -14.991065   16.285414   -1.275773
  38 C     6.0000    0    12.011  -14.255754   21.882707   -5.655213
  39 C     6.0000    0    12.011  -13.198414   21.562078   -8.072003
  40 C     6.0000    0    12.011  -12.546478   18.818441   -8.525216
  41 C     6.0000    0    12.011   -9.696619   18.469919   -9.002296
  42 C     6.0000    0    12.011   -8.070132   19.492903   -6.857211
  43 C     6.0000    0    12.011  -14.049887   17.723798  -10.764107
  44 C     6.0000    0    12.011  -16.897988   18.004914  -10.444516
  45 C     6.0000    0    12.011  -12.872909   23.598409   -9.645219
  46 C     6.0000    0    12.011  -13.582690   26.026140   -8.835263
  47 C     6.0000    0    12.011  -14.654410   26.302078   -6.425806
  48 C     6.0000    0    12.011  -14.996394   24.263932   -4.840647
  49 C     6.0000    0    12.011  -13.164947   28.132561  -10.511129
  50 C     6.0000    0    12.011  -13.527472   30.594968   -9.960690
  51 C     6.0000    0    12.011  -13.075015   32.630241  -11.655169
  52 S    16.0000    0    32.060  -12.028371   32.147284  -14.739996
  53 C     6.0000    0    12.011  -12.037385   35.378451  -15.363209
  54 C     6.0000    0    12.011  -12.830277   36.723993  -13.261342
  55 C     6.0000    0    12.011  -13.388199   35.183942  -11.174914
  56 C     6.0000    0    12.011  -14.264163   36.224973   -8.690246
  57 C     6.0000    0    12.011  -13.718826   39.069048   -8.509512
  58 C     6.0000    0    12.011  -14.965422   40.086666   -6.302804
  59 N     7.0000    0    14.007  -16.004620   40.836698   -4.565937
  60 C     6.0000    0    12.011  -14.659210   40.398168  -10.927247
  61 C     6.0000    0    12.011  -14.483428   43.110776  -10.664235
  62 N     7.0000    0    14.007  -14.278903   45.252856  -10.490720
  63 C     6.0000    0    12.011  -13.053756   39.547111  -13.189551
  64 C     6.0000    0    12.011  -11.292342   36.373052  -17.743432
  65 C     6.0000    0    12.011  -10.556766   34.963996  -19.742687
  66 C     6.0000    0    12.011   -9.804353   35.938679  -22.141316
  67 C     6.0000    0    12.011   -9.075277   34.493965  -24.206069
  68 C     6.0000    0    12.011   -8.466389   36.139746  -26.249543
  69 C     6.0000    0    12.011   -7.656131   35.672644  -28.670906
  70 C     6.0000    0    12.011   -7.210987   37.765685  -30.249224
  71 C     6.0000    0    12.011   -6.394833   37.926426  -32.736009
  72 C     6.0000    0    12.011   -6.248606   40.529996  -33.451724
  73 C     6.0000    0    12.011   -6.979344   41.971195  -31.399255
  74 C     6.0000    0    12.011   -7.597927   40.321729  -29.347201
  75 C     6.0000    0    12.011   -8.406919   40.792951  -26.934777
  76 C     6.0000    0    12.011   -8.852573   38.696451  -25.349580
  77 C     6.0000    0    12.011   -9.660715   38.546823  -22.866763
  78 C     6.0000    0    12.011   -5.477617   41.521289  -35.873011
  79 C     6.0000    0    12.011   -4.750223   40.153222  -37.852122
  80 H     1.0000    0     1.008  -16.624299    8.258991   13.845891
  81 H     1.0000    0     1.008  -14.703883   -0.882313   15.400644
  82 H     1.0000    0     1.008  -18.008561    5.138676   22.744536
  83 H     1.0000    0     1.008  -17.895045    8.348262   18.996491
  84 H     1.0000    0     1.008  -13.015451    0.943559    5.218384
  85 H     1.0000    0     1.008  -14.688085   12.130039    1.692382
  86 H     1.0000    0     1.008  -13.040773   10.588041   -3.632224
  87 H     1.0000    0     1.008  -12.395451   13.727613   -6.561545
  88 H     1.0000    0     1.008  -15.972249   20.170332   -0.759878
  89 H     1.0000    0     1.008  -15.650504   15.757103    0.578993
  90 H     1.0000    0     1.008   -9.199395   19.434019  -10.757512
  91 H     1.0000    0     1.008   -9.310152   16.459080   -9.256275
  92 H     1.0000    0     1.008   -8.401174   21.504063   -6.589853
  93 H     1.0000    0     1.008   -6.079816   19.212694   -7.285197
  94 H     1.0000    0     1.008   -8.498080   18.525987   -5.094343
  95 H     1.0000    0     1.008  -13.576889   15.725110  -10.962358
  96 H     1.0000    0     1.008  -13.456589   18.687162  -12.489843
  97 H     1.0000    0     1.008  -17.539928   17.030495   -8.752059
  98 H     1.0000    0     1.008  -17.872312   17.201402  -12.065712
  99 H     1.0000    0     1.008  -17.420044   19.987161  -10.288708
 100 H     1.0000    0     1.008  -12.057133   23.366804  -11.503330
 101 H     1.0000    0     1.008  -15.237901   28.149020   -5.789384
 102 H     1.0000    0     1.008  -15.823811   24.520312   -2.993062
 103 H     1.0000    0     1.008  -12.462857   27.659506  -12.375646
 104 H     1.0000    0     1.008  -14.207434   31.144104   -8.115051
 105 H     1.0000    0     1.008  -13.320868   35.253351   -7.131033
 106 H     1.0000    0     1.008  -16.300853   35.904910   -8.481299
 107 H     1.0000    0     1.008  -11.679301   39.388809   -8.313907
 108 H     1.0000    0     1.008  -16.647391   39.899300  -11.241263
 109 H     1.0000    0     1.008  -11.167374   40.392934  -13.046745
 110 H     1.0000    0     1.008  -13.914318   40.243173  -14.933069
 111 H     1.0000    0     1.008  -11.330363   38.408910  -17.900091
 112 H     1.0000    0     1.008  -10.523923   32.926324  -19.549236
 113 H     1.0000    0     1.008   -8.982586   32.466081  -24.266994
 114 H     1.0000    0     1.008   -7.363620   33.771163  -29.358710
 115 H     1.0000    0     1.008   -5.943567   36.352265  -33.937573
 116 H     1.0000    0     1.008   -7.073245   43.999382  -31.331886
 117 H     1.0000    0     1.008   -8.700148   42.694110  -26.245915
 118 H     1.0000    0     1.008  -10.105707   40.128882  -21.672778
 119 H     1.0000    0     1.008   -5.518888   43.562742  -36.016574
 120 H     1.0000    0     1.008   -4.678678   38.120878  -37.802195
 121 H     1.0000    0     1.008   -4.200275   41.026975  -39.604219

--------------------------------
INTERNAL COORDINATES (ANGSTROEM)
--------------------------------
 C      0   0   0     0.000000000000     0.00000000     0.00000000
 C      1   0   0     1.371253848490     0.00000000     0.00000000
 C      2   1   0     1.411015739140   124.01733705     0.00000000
 N      3   2   1     1.147952343828   176.48521017   178.15912553
 C      2   1   3     1.410839642660   125.89337624   181.08088259
 N      5   2   1     1.148473290460   175.34286759   173.24362450
 C      1   2   3     1.459564551022   125.25786467     1.22231896
 C      7   1   2     1.418350518243   108.72565656   177.03165116
 C      8   7   1     1.374156779774   122.78128582   180.32328413
 C      9   8   7     1.397921304294   117.77528268   359.80666837
 C     10   9   8     1.415751179057   119.13118475     0.00000000
 C      7   1   2     1.381658228398   131.18298030   357.10151734
 S     11  10   9     1.734894163400   111.21760056   180.17393000
 C     13  11  10     1.729559577841    90.81784228   359.97057964
 C     14  13  11     1.351078466781   113.65037821     0.00000000
 C      8   7   1     1.468471927583   109.08567197     0.55056220
 O     16   8   7     1.220430994444   126.40086851   180.37419584
 C      1   2   3     1.451793826478   127.31179891   179.62113806
 C     18   1   2     1.371043078244   126.07758909     5.10217778
 C     19  18   1     1.401686838099   129.86449902   180.48217396
 S     20  19  18     1.739116962168   127.13207373     1.77513513
 C     21  20  19     1.733983484408    92.23917904   178.44358629
 C     22  21  20     1.399766167687   111.27364402     0.65325103
 C     23  22  21     1.393023386056   112.56112079   359.58231390
 S     24  23  22     1.758295741620   126.97571826   178.96055556
 C     25  24  23     1.769690669326   109.68152602   357.95961506
 O     26  25  24     1.198795535277   116.65699450   184.19144328
 C     26  25  24     1.509801152006   123.56933635     5.33187203
 O     28  26  25     1.200846429857   119.73526355   175.12277217
 S     23  22  21     1.760418789209   122.00256415   180.01095902
 C     22  21  20     1.419318046880   115.97685060   180.77824373
 C     31  22  21     1.352346441930   128.15804574   175.89618784
 C     32  31  22     1.438786184011   125.90080318   181.63247864
 C     33  32  31     1.407273243048   118.11895965   172.18895015
 C     34  33  32     1.371456663187   119.90323690   181.88710137
 C     35  34  33     1.406975880461   120.42442844   359.28360000
 C     36  35  34     1.389069523278   120.31963845   359.58173734
 C     37  36  35     1.378033359030   119.03272969     0.90975061
 C     36  35  34     1.443650633013   108.62043818   179.10444566
 C     39  36  35     1.406222360582   108.65891533   359.92247350
 C     35  34  33     1.511266252286   129.02771543   178.59783872
 C     41  35  34     1.540147967859   111.27495766   299.84165356
 C     42  41  35     1.523933595174   112.85453090   304.00359673
 C     41  35  34     1.540179770481   111.40781077    62.41675104
 C     44  41  35     1.523887211870   112.87898547    56.69912872
 C     40  39  36     1.372560242394   120.45306165   180.84386802
 C     46  40  39     1.405430888411   119.94269095     0.44336093
 C     47  46  40     1.403089369285   118.70404593   359.01365913
 C     48  47  46     1.378272266789   121.64780980     0.72576561
 C     47  46  40     1.441465983435   118.57132054   178.65687046
 C     50  47  46     1.348920281744   126.32277761   186.08669035
 C     51  50  47     1.421736201867   124.86457584   179.42726380
 S     52  51  50     1.742662325552   122.22343867     1.28010603
 C     53  52  51     1.741380319344    91.86431528   179.28522441
 C     54  53  52     1.385697082663   110.69281501   359.72431428
 C     52  51  50     1.385000874404   127.10358848   180.80362298
 C     56  52  51     1.499042044974   123.81518803     0.58265828
 C     57  56  52     1.535418713706   110.89983607   164.18829916
 C     58  57  56     1.445255502152   109.25440218   170.21650351
 N     59  58  57     1.142236756763   177.96018637   330.76357235
 C     58  57  56     1.542469682230   109.55146177    48.82547464
 C     61  58  57     1.445178361068   110.62597670   172.21693462
 N     62  61  58     1.142391166326   178.03387950    95.64584113
 C     55  54  53     1.499084891726   123.80055984   180.22221216
 C     54  53  52     1.420895873595   122.06154747   179.33122529
 C     65  54  53     1.351582011459   124.71116093     1.14451744
 C     66  65  54     1.426773592411   125.26086261   180.00636820
 C     67  66  65     1.388215891207   125.35717699   180.76352527
 C     68  67  66     1.425357134826   108.87158424   179.93476633
 C     69  68  67     1.373589543568   131.93703656   179.99388524
 C     70  69  68     1.407060718590   117.66636433   180.11645538
 C     71  70  69     1.387619752742   131.55094047   179.82869685
 C     72  71  70     1.430953079070   109.07813638   180.10440428
 C     73  72  71     1.382324431167   107.94559675   359.94408722
 C     74  73  72     1.431158574442   108.88457392     0.08432813
 C     75  74  73     1.369363932488   131.89744639   179.84237596
 C     76  75  74     1.410708278773   117.60692726   180.09899151
 C     77  76  75     1.383963806391   131.38805796   179.95030920
 C     73  72  71     1.443375761574   126.88136112   179.86851690
 C     79  73  72     1.330076801880   125.65933830   359.46245848
 H      9   8   7     1.079010219646   120.83840427   179.85531567
 H     12   7   1     1.077040278216   122.77229007   359.65296784
 H     14  13  11     1.072689281759   118.51748144   179.99310184
 H     15  14  13     1.075031152432   124.08991847   179.99997133
 H     19  18   1     1.083479416187   116.76323209     0.65944265
 H     31  22  21     1.082042329579   112.46747629   357.49036440
 H     32  31  22     1.080213970147   119.23847433   359.74260216
 H     34  33  32     1.080659843105   119.19786263     1.03683458
 H     37  36  35     1.079692389757   120.56766487   180.62542110
 H     38  37  36     1.078552138981   118.94576481   180.11311758
 H     42  41  35     1.091889353002   108.62943475   182.55239514
 H     42  41  35     1.091867770474   108.67997360    65.53194214
 H     43  42  41     1.087820743689   110.69883591   300.18680420
 H     43  42  41     1.087461990922   110.08679299   180.29425822
 H     43  42  41     1.087812831971   110.73889749    60.40361213
 H     44  41  35     1.091925305916   108.65068375   295.18767914
 H     44  41  35     1.091983284716   108.61566004   178.16027106
 H     45  44  41     1.087840968019   110.72830347   300.03819973
 H     45  44  41     1.087483562221   110.07117690   180.16377062
 H     45  44  41     1.087857836162   110.71372889    60.27568626
 H     46  40  39     1.080831671723   120.85638036   179.84287588
 H     48  47  46     1.078884725492   119.57894324   181.02606925
 H     49  48  47     1.079822328626   120.39605947   179.94933301
 H     50  47  46     1.083603989195   115.72966775     5.02642064
 H     51  50  47     1.080646690366   120.15045478   359.54125711
 H     57  56  52     1.092850037517   110.36995827    43.08167925
 H     57  56  52     1.096585653153   109.60892944   284.90843792
 H     58  57  56     1.097346835372   109.99112040   289.05966728
 H     61  58  57     1.097368488248   108.97873390    53.16245892
 H     64  55  54     1.096590518790   109.67569519   284.64972150
 H     64  55  54     1.092840576022   110.32635882    42.82321946
 H     65  54  53     1.080702157535   115.60039237   181.41922720
 H     66  65  54     1.083277898510   118.67163140     0.07001969
 H     68  67  66     1.074714097888   125.88690764     0.00000000
 H     70  69  68     1.081162704407   121.74936229     0.08161793
 H     72  71  70     1.074813288762   125.63857407     0.11609670
 H     74  73  72     1.075010935526   126.14344632   180.02203593
 H     76  75  74     1.081247636899   121.91088245     0.07174661
 H     78  77  76     1.074963755389   125.52962050   359.94182578
 H     79  73  72     1.083178152752   114.77301766   179.50586687
 H     80  79  73     1.076460457657   122.31976943     0.07364284
 H     80  79  73     1.076161171108   121.51968979   179.96943589

---------------------------
INTERNAL COORDINATES (A.U.)
---------------------------
 C      0   0   0     0.000000000000     0.00000000     0.00000000
 C      1   0   0     2.591294233733     0.00000000     0.00000000
 C      2   1   0     2.666433317627   124.01733705     0.00000000
 N      3   2   1     2.169315544628   176.48521017   178.15912553
 C      2   1   3     2.666100543506   125.89337624   181.08088259
 N      5   2   1     2.170299991093   175.34286759   173.24362450
 C      1   2   3     2.758177276211   125.25786467     1.22231896
 C      7   1   2     2.680294041384   108.72565656   177.03165116
 C      8   7   1     2.596779978845   122.78128582   180.32328413
 C      9   8   7     2.641688421890   117.77528268   359.80666837
 C     10   9   8     2.675382002193   119.13118475     0.00000000
 C      7   1   2     2.610955662351   131.18298030   357.10151734
 S     11  10   9     3.278474840165   111.21760056   180.17393000
 C     13  11  10     3.268393934419    90.81784228   359.97057964
 C     14  13  11     2.553168287655   113.65037821     0.00000000
 C      8   7   1     2.775009778484   109.08567197     0.55056220
 O     16   8   7     2.306280344849   126.40086851   180.37419584
 C      1   2   3     2.743492734961   127.31179891   179.62113806
 C     18   1   2     2.590895935689   126.07758909     5.10217778
 C     19  18   1     2.648804249529   129.86449902   180.48217396
 S     20  19  18     3.286454773354   127.13207373     1.77513513
 C     21  20  19     3.276753906274    92.23917904   178.44358629
 C     22  21  20     2.645174708456   111.27364402     0.65325103
 C     23  22  21     2.632432697794   112.56112079   359.58231390
 S     24  23  22     3.322697414102   126.97571826   178.96055556
 C     25  24  23     3.344230706782   109.68152602   357.95961506
 O     26  25  24     2.265395252241   116.65699450   184.19144328
 C     26  25  24     2.853110693971   123.56933635     5.33187203
 O     28  26  25     2.269270881327   119.73526355   175.12277217
 S     23  22  21     3.326709392614   122.00256415   180.01095902
 C     22  21  20     2.682122405536   115.97685060   180.77824373
 C     31  22  21     2.555564413430   128.15804574   175.89618784
 C     32  31  22     2.718911853050   125.90080318   181.63247864
 C     33  32  31     2.659361024957   118.11895965   172.18895015
 C     34  33  32     2.591677497965   119.90323690   181.88710137
 C     35  34  33     2.658799091105   120.42442844   359.28360000
 C     36  35  34     2.624960979972   120.31963845   359.58173734
 C     37  36  35     2.604105651975   119.03272969     0.90975061
 C     36  35  34     2.728104329457   108.62043818   179.10444566
 C     39  36  35     2.657375144896   108.65891533   359.92247350
 C     35  34  33     2.855879332259   129.02771543   178.59783872
 C     41  35  34     2.910457864969   111.27495766   299.84165356
 C     42  41  35     2.879817141161   112.85453090   304.00359673
 C     41  35  34     2.910517963215   111.40781077    62.41675104
 C     44  41  35     2.879729489419   112.87898547    56.69912872
 C     40  39  36     2.593762960433   120.45306165   180.84386802
 C     46  40  39     2.655879479251   119.94269095     0.44336093
 C     47  46  40     2.651454649365   118.70404593   359.01365913
 C     48  47  46     2.604557122210   121.64780980     0.72576561
 C     47  46  40     2.723975940055   118.57132054   178.65687046
 C     50  47  46     2.549089908988   126.32277761   186.08669035
 C     51  50  47     2.686692056211   124.86457584   179.42726380
 S     52  51  50     3.293154539197   122.22343867     1.28010603
 C     53  52  51     3.290731898561    91.86431528   179.28522441
 C     54  53  52     2.618587990806   110.69281501   359.72431428
 C     52  51  50     2.617272347865   127.10358848   180.80362298
 C     56  52  51     2.832778928234   123.81518803     0.58265828
 C     57  56  52     2.901520869803   110.89983607   164.18829916
 C     58  57  56     2.731137092610   109.25440218   170.21650351
 N     59  58  57     2.158514650380   177.96018637   330.76357235
 C     58  57  56     2.914845269292   109.55146177    48.82547464
 C     61  58  57     2.730991317088   110.62597670   172.21693462
 N     62  61  58     2.158806442167   178.03387950    95.64584113
 C     55  54  53     2.832859896860   123.80055984   180.22221216
 C     54  53  52     2.685104065914   122.06154747   179.33122529
 C     65  54  53     2.554119849192   124.71116093     1.14451744
 C     66  65  54     2.696211344767   125.26086261   180.00636820
 C     67  66  65     2.623347849139   125.35717699   180.76352527
 C     68  67  66     2.693534627852   108.87158424   179.93476633
 C     69  68  67     2.595708057762   131.93703656   179.99388524
 C     70  69  68     2.658959411934   117.66636433   180.11645538
 C     71  70  69     2.622221310702   131.55094047   179.82869685
 C     72  71  70     2.704109429934   109.07813638   180.10440428
 C     73  72  71     2.612214603133   107.94559675   359.94408722
 C     74  73  72     2.704497759909   108.88457392     0.08432813
 C     75  74  73     2.587722810072   131.89744639   179.84237596
 C     76  75  74     2.665852301737   117.60692726   180.09899151
 C     77  76  75     2.615312573338   131.38805796   179.95030920
 C     73  72  71     2.727584897715   126.88136112   179.86851690
 C     79  73  72     2.513480892636   125.65933830   359.46245848
 H      9   8   7     2.039033810833   120.83840427   179.85531567
 H     12   7   1     2.035311161031   122.77229007   359.65296784
 H     14  13  11     2.027088969317   118.51748144   179.99310184
 H     15  14  13     2.031514463531   124.08991847   179.99997133
 H     19  18   1     2.047479368334   116.76323209     0.65944265
 H     31  22  21     2.044763668214   112.46747629   357.49036440
 H     32  31  22     2.041308569613   119.23847433   359.74260216
 H     34  33  32     2.042151147395   119.19786263     1.03683458
 H     37  36  35     2.040322925520   120.56766487   180.62542110
 H     38  37  36     2.038168163829   118.94576481   180.11311758
 H     42  41  35     2.063371845719   108.62943475   182.55239514
 H     42  41  35     2.063331060651   108.67997360    65.53194214
 H     43  42  41     2.055683288371   110.69883591   300.18680420
 H     43  42  41     2.055005343891   110.08679299   180.29425822
 H     43  42  41     2.055668337390   110.73889749    60.40361213
 H     44  41  35     2.063439786880   108.65068375   295.18767914
 H     44  41  35     2.063549350934   108.61566004   178.16027106
 H     45  44  41     2.055721506815   110.72830347   300.03819973
 H     45  44  41     2.055046107738   110.07117690   180.16377062
 H     45  44  41     2.055753382987   110.71372889    60.27568626
 H     46  40  39     2.042475856425   120.85638036   179.84287588
 H     48  47  46     2.038796661251   119.57894324   181.02606925
 H     49  48  47     2.040568474397   120.39605947   179.94933301
 H     50  47  46     2.047714777204   115.72966775     5.02642064
 H     51  50  47     2.042126292321   120.15045478   359.54125711
 H     57  56  52     2.065187276352   110.36995827    43.08167925
 H     57  56  52     2.072246566845   109.60892944   284.90843792
 H     58  57  56     2.073684992777   109.99112040   289.05966728
 H     61  58  57     2.073725910784   108.97873390    53.16245892
 H     64  55  54     2.072255761568   109.67569519   284.64972150
 H     64  55  54     2.065169396718   110.32635882    42.82321946
 H     65  54  53     2.042231110078   115.60039237   181.41922720
 H     66  65  54     2.047098555113   118.67163140     0.07001969
 H     68  67  66     2.030915317273   125.88690764     0.00000000
 H     70  69  68     2.043101417538   121.74936229     0.08161793
 H     72  71  70     2.031102760860   125.63857407     0.11609670
 H     74  73  72     2.031476259114   126.14344632   180.02203593
 H     76  75  74     2.043261916689   121.91088245     0.07174661
 H     78  77  76     2.031387101577   125.52962050   359.94182578
 H     79  73  72     2.046910062949   114.77301766   179.50586687
 H     80  79  73     2.034215458968   122.31976943     0.07364284
 H     80  79  73     2.033649889354   121.51968979   179.96943589

---------------------
BASIS SET INFORMATION
---------------------
There are 5 groups of distinct atoms

 Group   1 Type C   : 7s4p1d contracted to 3s2p1d pattern {511/31/1}
 Group   2 Type N   : 7s4p1d contracted to 3s2p1d pattern {511/31/1}
 Group   3 Type S   : 10s7p1d contracted to 4s3p1d pattern {5311/511/1}
 Group   4 Type O   : 7s4p1d contracted to 3s2p1d pattern {511/31/1}
 Group   5 Type H   : 4s1p contracted to 2s1p pattern {31/1}

Atom   0C    basis set group =>   1
Atom   1C    basis set group =>   1
Atom   2C    basis set group =>   1
Atom   3N    basis set group =>   2
Atom   4C    basis set group =>   1
Atom   5N    basis set group =>   2
Atom   6C    basis set group =>   1
Atom   7C    basis set group =>   1
Atom   8C    basis set group =>   1
Atom   9C    basis set group =>   1
Atom  10C    basis set group =>   1
Atom  11C    basis set group =>   1
Atom  12S    basis set group =>   3
Atom  13C    basis set group =>   1
Atom  14C    basis set group =>   1
Atom  15C    basis set group =>   1
Atom  16O    basis set group =>   4
Atom  17C    basis set group =>   1
Atom  18C    basis set group =>   1
Atom  19C    basis set group =>   1
Atom  20S    basis set group =>   3
Atom  21C    basis set group =>   1
Atom  22C    basis set group =>   1
Atom  23C    basis set group =>   1
Atom  24S    basis set group =>   3
Atom  25C    basis set group =>   1
Atom  26O    basis set group =>   4
Atom  27C    basis set group =>   1
Atom  28O    basis set group =>   4
Atom  29S    basis set group =>   3
Atom  30C    basis set group =>   1
Atom  31C    basis set group =>   1
Atom  32C    basis set group =>   1
Atom  33C    basis set group =>   1
Atom  34C    basis set group =>   1
Atom  35C    basis set group =>   1
Atom  36C    basis set group =>   1
Atom  37C    basis set group =>   1
Atom  38C    basis set group =>   1
Atom  39C    basis set group =>   1
Atom  40C    basis set group =>   1
Atom  41C    basis set group =>   1
Atom  42C    basis set group =>   1
Atom  43C    basis set group =>   1
Atom  44C    basis set group =>   1
Atom  45C    basis set group =>   1
Atom  46C    basis set group =>   1
Atom  47C    basis set group =>   1
Atom  48C    basis set group =>   1
Atom  49C    basis set group =>   1
Atom  50C    basis set group =>   1
Atom  51C    basis set group =>   1
Atom  52S    basis set group =>   3
Atom  53C    basis set group =>   1
Atom  54C    basis set group =>   1
Atom  55C    basis set group =>   1
Atom  56C    basis set group =>   1
Atom  57C    basis set group =>   1
Atom  58C    basis set group =>   1
Atom  59N    basis set group =>   2
Atom  60C    basis set group =>   1
Atom  61C    basis set group =>   1
Atom  62N    basis set group =>   2
Atom  63C    basis set group =>   1
Atom  64C    basis set group =>   1
Atom  65C    basis set group =>   1
Atom  66C    basis set group =>   1
Atom  67C    basis set group =>   1
Atom  68C    basis set group =>   1
Atom  69C    basis set group =>   1
Atom  70C    basis set group =>   1
Atom  71C    basis set group =>   1
Atom  72C    basis set group =>   1
Atom  73C    basis set group =>   1
Atom  74C    basis set group =>   1
Atom  75C    basis set group =>   1
Atom  76C    basis set group =>   1
Atom  77C    basis set group =>   1
Atom  78C    basis set group =>   1
Atom  79C    basis set group =>   1
Atom  80H    basis set group =>   5
Atom  81H    basis set group =>   5
Atom  82H    basis set group =>   5
Atom  83H    basis set group =>   5
Atom  84H    basis set group =>   5
Atom  85H    basis set group =>   5
Atom  86H    basis set group =>   5
Atom  87H    basis set group =>   5
Atom  88H    basis set group =>   5
Atom  89H    basis set group =>   5
Atom  90H    basis set group =>   5
Atom  91H    basis set group =>   5
Atom  92H    basis set group =>   5
Atom  93H    basis set group =>   5
Atom  94H    basis set group =>   5
Atom  95H    basis set group =>   5
Atom  96H    basis set group =>   5
Atom  97H    basis set group =>   5
Atom  98H    basis set group =>   5
Atom  99H    basis set group =>   5
Atom 100H    basis set group =>   5
Atom 101H    basis set group =>   5
Atom 102H    basis set group =>   5
Atom 103H    basis set group =>   5
Atom 104H    basis set group =>   5
Atom 105H    basis set group =>   5
Atom 106H    basis set group =>   5
Atom 107H    basis set group =>   5
Atom 108H    basis set group =>   5
Atom 109H    basis set group =>   5
Atom 110H    basis set group =>   5
Atom 111H    basis set group =>   5
Atom 112H    basis set group =>   5
Atom 113H    basis set group =>   5
Atom 114H    basis set group =>   5
Atom 115H    basis set group =>   5
Atom 116H    basis set group =>   5
Atom 117H    basis set group =>   5
Atom 118H    basis set group =>   5
Atom 119H    basis set group =>   5
Atom 120H    basis set group =>   5
Atom 121H    basis set group =>   5
---------------------------------
AUXILIARY/J BASIS SET INFORMATION
---------------------------------
There are 5 groups of distinct atoms

 Group   1 Type C   : 12s5p4d2f1g contracted to 6s4p3d1f1g pattern {711111/2111/211/2/1}
 Group   2 Type N   : 12s5p4d2f1g contracted to 6s4p3d1f1g pattern {711111/2111/211/2/1}
 Group   3 Type S   : 14s5p5d2f1g contracted to 8s4p3d1f1g pattern {71111111/2111/311/2/1}
 Group   4 Type O   : 12s5p4d2f1g contracted to 6s4p3d1f1g pattern {711111/2111/211/2/1}
 Group   5 Type H   : 5s2p1d contracted to 3s1p1d pattern {311/2/1}

Atom   0C    basis set group =>   1
Atom   1C    basis set group =>   1
Atom   2C    basis set group =>   1
Atom   3N    basis set group =>   2
Atom   4C    basis set group =>   1
Atom   5N    basis set group =>   2
Atom   6C    basis set group =>   1
Atom   7C    basis set group =>   1
Atom   8C    basis set group =>   1
Atom   9C    basis set group =>   1
Atom  10C    basis set group =>   1
Atom  11C    basis set group =>   1
Atom  12S    basis set group =>   3
Atom  13C    basis set group =>   1
Atom  14C    basis set group =>   1
Atom  15C    basis set group =>   1
Atom  16O    basis set group =>   4
Atom  17C    basis set group =>   1
Atom  18C    basis set group =>   1
Atom  19C    basis set group =>   1
Atom  20S    basis set group =>   3
Atom  21C    basis set group =>   1
Atom  22C    basis set group =>   1
Atom  23C    basis set group =>   1
Atom  24S    basis set group =>   3
Atom  25C    basis set group =>   1
Atom  26O    basis set group =>   4
Atom  27C    basis set group =>   1
Atom  28O    basis set group =>   4
Atom  29S    basis set group =>   3
Atom  30C    basis set group =>   1
Atom  31C    basis set group =>   1
Atom  32C    basis set group =>   1
Atom  33C    basis set group =>   1
Atom  34C    basis set group =>   1
Atom  35C    basis set group =>   1
Atom  36C    basis set group =>   1
Atom  37C    basis set group =>   1
Atom  38C    basis set group =>   1
Atom  39C    basis set group =>   1
Atom  40C    basis set group =>   1
Atom  41C    basis set group =>   1
Atom  42C    basis set group =>   1
Atom  43C    basis set group =>   1
Atom  44C    basis set group =>   1
Atom  45C    basis set group =>   1
Atom  46C    basis set group =>   1
Atom  47C    basis set group =>   1
Atom  48C    basis set group =>   1
Atom  49C    basis set group =>   1
Atom  50C    basis set group =>   1
Atom  51C    basis set group =>   1
Atom  52S    basis set group =>   3
Atom  53C    basis set group =>   1
Atom  54C    basis set group =>   1
Atom  55C    basis set group =>   1
Atom  56C    basis set group =>   1
Atom  57C    basis set group =>   1
Atom  58C    basis set group =>   1
Atom  59N    basis set group =>   2
Atom  60C    basis set group =>   1
Atom  61C    basis set group =>   1
Atom  62N    basis set group =>   2
Atom  63C    basis set group =>   1
Atom  64C    basis set group =>   1
Atom  65C    basis set group =>   1
Atom  66C    basis set group =>   1
Atom  67C    basis set group =>   1
Atom  68C    basis set group =>   1
Atom  69C    basis set group =>   1
Atom  70C    basis set group =>   1
Atom  71C    basis set group =>   1
Atom  72C    basis set group =>   1
Atom  73C    basis set group =>   1
Atom  74C    basis set group =>   1
Atom  75C    basis set group =>   1
Atom  76C    basis set group =>   1
Atom  77C    basis set group =>   1
Atom  78C    basis set group =>   1
Atom  79C    basis set group =>   1
Atom  80H    basis set group =>   5
Atom  81H    basis set group =>   5
Atom  82H    basis set group =>   5
Atom  83H    basis set group =>   5
Atom  84H    basis set group =>   5
Atom  85H    basis set group =>   5
Atom  86H    basis set group =>   5
Atom  87H    basis set group =>   5
Atom  88H    basis set group =>   5
Atom  89H    basis set group =>   5
Atom  90H    basis set group =>   5
Atom  91H    basis set group =>   5
Atom  92H    basis set group =>   5
Atom  93H    basis set group =>   5
Atom  94H    basis set group =>   5
Atom  95H    basis set group =>   5
Atom  96H    basis set group =>   5
Atom  97H    basis set group =>   5
Atom  98H    basis set group =>   5
Atom  99H    basis set group =>   5
Atom 100H    basis set group =>   5
Atom 101H    basis set group =>   5
Atom 102H    basis set group =>   5
Atom 103H    basis set group =>   5
Atom 104H    basis set group =>   5
Atom 105H    basis set group =>   5
Atom 106H    basis set group =>   5
Atom 107H    basis set group =>   5
Atom 108H    basis set group =>   5
Atom 109H    basis set group =>   5
Atom 110H    basis set group =>   5
Atom 111H    basis set group =>   5
Atom 112H    basis set group =>   5
Atom 113H    basis set group =>   5
Atom 114H    basis set group =>   5
Atom 115H    basis set group =>   5
Atom 116H    basis set group =>   5
Atom 117H    basis set group =>   5
Atom 118H    basis set group =>   5
Atom 119H    basis set group =>   5
Atom 120H    basis set group =>   5
Atom 121H    basis set group =>   5


           ************************************************************
           *        Program running with 6 parallel MPI-processes     *
           *              working on a common directory               *
           ************************************************************
------------------------------------------------------------------------------
                           ORCA GTO INTEGRAL CALCULATION
                           -- RI-GTO INTEGRALS CHOSEN --
------------------------------------------------------------------------------

                         BASIS SET STATISTICS AND STARTUP INFO

Gaussian basis set:
 # of primitive gaussian shells          ... 1200
 # of primitive gaussian functions       ... 2274
 # of contracted shells                  ...  616
 # of contracted basis functions         ... 1350
 Highest angular momentum                ...    2
 Maximum contraction depth               ...    5
Auxiliary gaussian basis set:
 # of primitive gaussian shells          ... 2271
 # of primitive gaussian functions       ... 6307
 # of contracted shells                  ... 1420
 # of contracted aux-basis functions     ... 4392
 Highest angular momentum                ...    4
 Maximum contraction depth               ...    7
Ratio of auxiliary to basis functions    ...  3.25
Integral package used                  ... LIBINT
 One Electron integrals                  ... done
 Ordering auxiliary basis shells         ... done
 Integral threshhold             Thresh  ...  2.500e-11
 Primitive cut-off               TCut    ...  2.500e-12
 Pre-screening matrix                    ... done
 Shell pair data                         ... 
 Ordering of the shell pairs             ... done (   0.011 sec) 49312 of 190036 pairs
 Determination of significant pairs      ... done (   0.000 sec)
 Creation of shell pair data             ... done (   0.007 sec)
 Storage of shell pair data              ... done (   0.011 sec)
 Shell pair data done in (   0.029 sec)
 Computing two index integrals           ... done
 Cholesky decomposition of the V-matrix  ... done


Timings:
 Total evaluation time                   ...   2.892 sec (  0.048 min)
 One electron matrix time                ...   0.750 sec (  0.012 min) = 25.9%
 Schwartz matrix evaluation time         ...   0.874 sec (  0.015 min) = 30.2%
 Two index repulsion integral time       ...   0.476 sec (  0.008 min) = 16.5%
 Cholesky decomposition of V             ...   0.745 sec (  0.012 min) = 25.8%
 Three index repulsion integral time     ...   0.000 sec (  0.000 min) =  0.0%



           ************************************************************
           *        Program running with 6 parallel MPI-processes     *
           *              working on a common directory               *
           ************************************************************
-------------------------------------------------------------------------------
                                 ORCA SCF
-------------------------------------------------------------------------------

------------
SCF SETTINGS
------------
Hamiltonian:
 Density Functional     Method          .... DFT(GTOs)
 Exchange Functional    Exchange        .... WB88
 Correlation Functional Correlation     .... LYP
 LDA part of GGA corr.  LDAOpt          .... VWN-5
 Gradients option       PostSCFGGA      .... off
 Hybrid DFT is turned on
   Fraction HF Exchange ScalHFX         ....  0.190000
   Scaling of DF-GGA-X  ScalDFX         ....  0.350000
   Scaling of DF-GGA-C  ScalDFC         ....  0.810000
   Scaling of DF-LDA-C  ScalLDAC        ....  1.000000
   Perturbative correction              ....  0.000000
   Density functional embedding theory  .... OFF
 Long-range corrected/Screened/Range-Separated Hybrid DFT is turned on
   Amount of maximum screened exact exchange              ....  0.460000
   Range separation parameter mu (erf(mu*r12)/r12)        ....  0.330000
 RI-approximation to the Coulomb term is turned on
   Number of auxiliary basis functions  .... 4392
   RIJ-COSX (HFX calculated with COS-X)).... on


General Settings:
 Integral files         IntName         .... xtbopt
 Hartree-Fock type      HFTyp           .... RHF
 Total Charge           Charge          ....    0
 Multiplicity           Mult            ....    1
 Number of Electrons    NEL             ....  582
 Basis Dimension        Dim             .... 1350
 Nuclear Repulsion      ENuc            ....  11307.1697432131 Eh

Convergence Acceleration:
 DIIS                   CNVDIIS         .... on
   Start iteration      DIISMaxIt       ....    12
   Startup error        DIISStart       ....  0.200000
   # of expansion vecs  DIISMaxEq       ....     5
   Bias factor          DIISBfac        ....   1.050
   Max. coefficient     DIISMaxC        ....  10.000
 Newton-Raphson         CNVNR           .... off
 SOSCF                  CNVSOSCF        .... on
   Start iteration      SOSCFMaxIt      ....   150
   Startup grad/error   SOSCFStart      ....  0.003300
 Level Shifting         CNVShift        .... on
   Level shift para.    LevelShift      ....    0.2500
   Turn off err/grad.   ShiftErr        ....    0.0010
 Zerner damping         CNVZerner       .... off
 Static damping         CNVDamp         .... on
   Fraction old density DampFac         ....    0.7000
   Max. Damping (<1)    DampMax         ....    0.9800
   Min. Damping (>=0)   DampMin         ....    0.0000
   Turn off err/grad.   DampErr         ....    0.1000
 Fernandez-Rico         CNVRico         .... off

SCF Procedure:
 Maximum # iterations   MaxIter         ....   125
 SCF integral mode      SCFMode         .... Direct
   Integral package                     .... LIBINT
 Reset frequency        DirectResetFreq ....    20
 Integral Threshold     Thresh          ....  2.500e-11 Eh
 Primitive CutOff       TCut            ....  2.500e-12 Eh

Convergence Tolerance:
 Convergence Check Mode ConvCheckMode   .... Total+1el-Energy
 Convergence forced     ConvForced      .... 1
 Energy Change          TolE            ....  1.000e-08 Eh
 1-El. energy change                    ....  1.000e-05 Eh
 Orbital Gradient       TolG            ....  1.000e-05
 Orbital Rotation angle TolX            ....  1.000e-05
 DIIS Error             TolErr          ....  5.000e-07


Diagonalization of the overlap matrix:
Smallest eigenvalue                        ... 1.838e-04
Time for diagonalization                   ...    0.300 sec
Threshold for overlap eigenvalues          ... 1.000e-08
Number of eigenvalues below threshold      ... 0
Time for construction of square roots      ...    0.218 sec
Total time needed                          ...    0.523 sec

-------------------
DFT GRID GENERATION
-------------------

General Integration Accuracy     IntAcc      ...  4.670
Radial Grid Type                 RadialGrid  ... Gauss-Chebyshev
Angular Grid (max. acc.)         AngularGrid ... Lebedev-302
Angular grid pruning method      GridPruning ... 3 (G Style)
Weight generation scheme         WeightScheme... Becke
Basis function cutoff            BFCut       ...    1.0000e-11
Integration weight cutoff        WCut        ...    1.0000e-14
Grids for H and He will be reduced by one unit

# of grid points (after initial pruning)     ... 642678 (   0.1 sec)
# of grid points (after weights+screening)   ... 551876 (  10.5 sec)
nearest neighbour list constructed           ...    0.0 sec
Grid point re-assignment to atoms done       ...    0.1 sec
Grid point division into batches done        ...    1.9 sec
Reduced shell lists constructed in    3.0 sec

Total number of grid points                  ...   551876
Total number of batches                      ...     8689
Average number of points per batch           ...       63
Average number of grid points per atom       ...     4524
Average number of shells per batch           ...    81.52 (13.23%)
Average number of basis functions per batch  ...   176.74 (13.09%)
Average number of large shells per batch     ...    52.72 (64.66%)
Average number of large basis fcns per batch ...   115.50 (65.35%)
Maximum spatial batch extension              ...  22.81, 14.88, 16.45 au
Average spatial batch extension              ...   0.39,  0.34,  0.33 au

Time for grid setup =   14.164 sec

------------------------------
INITIAL GUESS: MODEL POTENTIAL
------------------------------
Loading Hartree-Fock densities                     ... done
Calculating cut-offs                               ... done
Setting up the integral package                    ... done
Initializing the effective Hamiltonian             ... done
Starting the Coulomb interaction                   ... done (   1.7 sec)
Reading the grid                                   ... done
Mapping shells                                     ... done
Starting the XC term evaluation                    ... done (   1.7 sec)
  promolecular density results
     # of electrons  =    581.977523620
     EX              =   -535.537658569
     EC              =    -20.091247020
     EX+EC           =   -555.628905589
Transforming the Hamiltonian                       ... done (   0.1 sec)
Diagonalizing the Hamiltonian                      ... done (   0.3 sec)
Back transforming the eigenvectors                 ... done (   0.1 sec)
Now organizing SCF variables                       ... done
                      ------------------
                      INITIAL GUESS DONE (  18.2 sec)
                      ------------------
--------------------
COSX GRID GENERATION
--------------------

General Integration Accuracy     IntAcc      ...  3.340
Radial Grid Type                 RadialGrid  ... Gauss-Chebyshev
Angular Grid (max. acc.)         AngularGrid ... Lebedev-50
Angular grid pruning method      GridPruning ... 3 (G Style)
Weight generation scheme         WeightScheme... Becke
Basis function cutoff            BFCut       ...    1.0000e-11
Integration weight cutoff        WCut        ...    1.0000e-14
Grids for H and He will be reduced by one unit

# of grid points (after initial pruning)     ...  60414 (   0.0 sec)
# of grid points (after weights+screening)   ...  54116 (   1.0 sec)
nearest neighbour list constructed           ...    0.0 sec
Grid point re-assignment to atoms done       ...    0.0 sec
Grid point division into batches done        ...    0.0 sec
Reduced shell lists constructed in    0.2 sec

Total number of grid points                  ...    54116
Total number of batches                      ...      906
Average number of points per batch           ...       59
Average number of grid points per atom       ...      444
Average number of shells per batch           ...    98.01 (15.91%)
Average number of basis functions per batch  ...   215.17 (15.94%)
Average number of large shells per batch     ...    63.26 (64.54%)
Average number of large basis fcns per batch ...   140.52 (65.31%)
Maximum spatial batch extension              ...  29.51, 14.43, 16.32 au
Average spatial batch extension              ...   0.99,  0.70,  0.64 au

Overlap Fitting                  UseSFitting ... on
Constructing numerical overlap ... done (      0.1 sec)
Inverting numerical overlap    ... done (      0.1 sec)
Obtaining analytic overlap     ... done (      0.0 sec)
Final contraction and storage  ... done (      0.1 sec)


General Integration Accuracy     IntAcc      ...  3.670
Radial Grid Type                 RadialGrid  ... Gauss-Chebyshev
Angular Grid (max. acc.)         AngularGrid ... Lebedev-50
Angular grid pruning method      GridPruning ... 3 (G Style)
Weight generation scheme         WeightScheme... Becke
Basis function cutoff            BFCut       ...    1.0000e-11
Integration weight cutoff        WCut        ...    1.0000e-14
Grids for H and He will be reduced by one unit

# of grid points (after initial pruning)     ...  75684 (   0.0 sec)
# of grid points (after weights+screening)   ...  67565 (   1.2 sec)
nearest neighbour list constructed           ...    0.0 sec
Grid point re-assignment to atoms done       ...    0.0 sec
Grid point division into batches done        ...    0.0 sec
Reduced shell lists constructed in    0.2 sec

Total number of grid points                  ...    67565
Total number of batches                      ...     1121
Average number of points per batch           ...       60
Average number of grid points per atom       ...      554
Average number of shells per batch           ...    96.71 (15.70%)
Average number of basis functions per batch  ...   211.90 (15.70%)
Average number of large shells per batch     ...    62.37 (64.49%)
Average number of large basis fcns per batch ...   138.35 (65.29%)
Maximum spatial batch extension              ...  30.31, 15.82, 17.29 au
Average spatial batch extension              ...   0.91,  0.65,  0.58 au

Overlap Fitting                  UseSFitting ... on
Constructing numerical overlap ... done (      0.1 sec)
Inverting numerical overlap    ... done (      0.1 sec)
Obtaining analytic overlap     ... done (      0.0 sec)
Final contraction and storage  ... done (      0.1 sec)


General Integration Accuracy     IntAcc      ...  4.010
Radial Grid Type                 RadialGrid  ... Gauss-Chebyshev
Angular Grid (max. acc.)         AngularGrid ... Lebedev-110
Angular grid pruning method      GridPruning ... 3 (G Style)
Weight generation scheme         WeightScheme... Becke
Basis function cutoff            BFCut       ...    1.0000e-11
Integration weight cutoff        WCut        ...    1.0000e-14
Grids for H and He will be reduced by one unit

# of grid points (after initial pruning)     ... 146178 (   0.0 sec)
# of grid points (after weights+screening)   ... 129245 (   2.5 sec)
nearest neighbour list constructed           ...    0.0 sec
Grid point re-assignment to atoms done       ...    0.0 sec
Grid point division into batches done        ...    0.1 sec
Reduced shell lists constructed in    0.4 sec

Total number of grid points                  ...   129245
Total number of batches                      ...     2079
Average number of points per batch           ...       62
Average number of grid points per atom       ...     1059
Average number of shells per batch           ...    90.58 (14.70%)
Average number of basis functions per batch  ...   197.80 (14.65%)
Average number of large shells per batch     ...    58.82 (64.93%)
Average number of large basis fcns per batch ...   129.95 (65.70%)
Maximum spatial batch extension              ...  27.99, 17.09, 17.35 au
Average spatial batch extension              ...   0.73,  0.54,  0.51 au

Overlap Fitting                  UseSFitting ... on
Constructing numerical overlap ... done (      0.2 sec)
Inverting numerical overlap    ... done (      0.1 sec)
Obtaining analytic overlap     ... done (      0.0 sec)
Final contraction and storage  ... done (      0.1 sec)

Time for X-Grid setup             =    6.699 sec
--------------
SCF ITERATIONS
--------------
ITER       Energy         Delta-E        Max-DP      RMS-DP      [F,P]     Damp
               ***  Starting incremental Fock matrix formation  ***
  0  -5045.9138103144   0.000000000000 0.10256662  0.00092700  0.2492748 0.7000
  1  -5046.6044585624  -0.690648248017 0.06060105  0.00064319  0.1040962 0.7000
                               ***Turning on DIIS***
  2  -5046.9036071022  -0.299148539871 0.10347238  0.00117332  0.0426279 0.0000
  3  -5047.4086358921  -0.505028789830 0.05001568  0.00046545  0.0550050 0.0000
  4  -5047.4929952603  -0.084359368269 0.01787317  0.00013916  0.0262300 0.0000
  5  -5047.5008174249  -0.007822164562 0.00609149  0.00005796  0.0068860 0.0000
                      *** Initiating the SOSCF procedure ***
                           *** Shutting down DIIS ***
                      *** Re-Reading the Fockian *** 
                      *** Removing any level shift *** 
ITER      Energy       Delta-E        Grad      Rot      Max-DP    RMS-DP
  6  -5047.50222394  -0.0014065182  0.002990  0.002990  0.003894  0.000034
               *** Restarting incremental Fock matrix formation ***
  7  -5047.50271187  -0.0004879241  0.001603  0.010486  0.004566  0.000037
  8  -5047.50315173  -0.0004398591  0.000798  0.013735  0.005183  0.000049
  9  -5047.50322027  -0.0000685416  0.001462  0.003318  0.002244  0.000016
 10  -5047.50332449  -0.0001042204  0.000526  0.002932  0.001337  0.000011
 11  -5047.50333013  -0.0000056418  0.000321  0.001951  0.000538  0.000006
 12  -5047.50334580  -0.0000156686  0.000163  0.002776  0.000632  0.000006
 13  -5047.50334848  -0.0000026816  0.000138  0.002175  0.000460  0.000004
 14  -5047.50334999  -0.0000015113  0.000054  0.000308  0.000178  0.000001
 15  -5047.50335009  -0.0000000942  0.000034  0.000209  0.000077  0.000001
 16  -5047.50335026  -0.0000001735  0.000009  0.000042  0.000036  0.000000
 17  -5047.50335028  -0.0000000243  0.000007  0.000040  0.000020  0.000000
                  ***Gradient check signals convergence***
              ***Rediagonalizing the Fockian in SOSCF/NRSCF***

               *****************************************************
               *                     SUCCESS                       *
               *           SCF CONVERGED AFTER  18 CYCLES          *
               *****************************************************

Setting up the final grid:

General Integration Accuracy     IntAcc      ...  5.010
Radial Grid Type                 RadialGrid  ... Gauss-Chebyshev
Angular Grid (max. acc.)         AngularGrid ... Lebedev-434
Angular grid pruning method      GridPruning ... 3 (G Style)
Weight generation scheme         WeightScheme... Becke
Basis function cutoff            BFCut       ...    1.0000e-11
Integration weight cutoff        WCut        ...    1.0000e-14
Grids for H and He will be reduced by one unit

# of grid points (after initial pruning)     ... 1142114 (   0.1 sec)
# of grid points (after weights+screening)   ... 977568 (  17.7 sec)
nearest neighbour list constructed           ...    0.0 sec
Grid point re-assignment to atoms done       ...    0.1 sec
Grid point division into batches done        ...    6.2 sec
Reduced shell lists constructed in    8.0 sec

Total number of grid points                  ...   977568
Total number of batches                      ...    15339
Average number of points per batch           ...       63
Average number of grid points per atom       ...     8013
Average number of shells per batch           ...    79.56 (12.92%)
Average number of basis functions per batch  ...   172.15 (12.75%)
Average number of large shells per batch     ...    51.34 (64.54%)
Average number of large basis fcns per batch ...   112.22 (65.19%)
Maximum spatial batch extension              ...  22.91, 19.74, 20.50 au
Average spatial batch extension              ...   0.31,  0.28,  0.27 au

Final grid set up in   26.6 sec
Final integration                            ... done (   3.5 sec)
Change in XC energy                          ...    -0.000058044
Integrated number of electrons               ...   582.000073376
Previous integrated no of electrons          ...   581.999239485
Old exchange energy                            =   -148.869956005 Eh
New exchange energy                            =   -148.866790718 Eh
Exchange energy change after final integration =      0.003165287 Eh
Total energy after final integration           =  -5047.500243014 Eh
Final COS-X integration done in                =    74.683 sec

----------------
TOTAL SCF ENERGY
----------------

Total Energy       :        -5047.50024301 Eh         -137349.46432 eV

Components:
Nuclear Repulsion  :        11307.16974321 Eh          307683.73105 eV
Electronic Energy  :       -16354.66998623 Eh         -445033.19538 eV
One Electron Energy:       -29413.40228466 Eh         -800379.36667 eV
Two Electron Energy:        13058.73229843 Eh          355346.17129 eV

Virial components:
Potential Energy   :       -10061.19469365 Eh         -273779.02627 eV
Kinetic Energy     :         5013.69445063 Eh          136429.56195 eV
Virial Ratio       :            2.00674269


DFT components:
N(Alpha)           :      291.000036687965 electrons
N(Beta)            :      291.000036687965 electrons
N(Total)           :      582.000073375930 electrons
E(XC)              :     -416.051994107219 Eh       
DFET-embed. en.    :        0.000000000000 Eh       

---------------
SCF CONVERGENCE
---------------

  Last Energy change         ...    2.6994e-08  Tolerance :   1.0000e-08
  Last MAX-Density change    ...    7.5495e-15  Tolerance :   1.0000e-07
  Last RMS-Density change    ...    3.3195e-17  Tolerance :   5.0000e-09
  Last Orbital Gradient      ...    1.4418e-06  Tolerance :   1.0000e-05
  Last Orbital Rotation      ...    9.4962e-06  Tolerance :   1.0000e-05

             **** THE GBW FILE WAS UPDATED (xtbopt.gbw) ****
             **** DENSITY FILE WAS UPDATED (xtbopt.scfp) ****
             **** ENERGY FILE WAS UPDATED (xtbopt.en.tmp) ****
             **** THE GBW FILE WAS UPDATED (xtbopt.gbw) ****
             **** DENSITY FILE WAS UPDATED (xtbopt.scfp) ****
----------------
ORBITAL ENERGIES
----------------

  NO   OCC          E(Eh)            E(eV) 
   0   2.0000     -88.977053     -2421.1887 
   1   2.0000     -88.974759     -2421.1263 
   2   2.0000     -88.974274     -2421.1131 
   3   2.0000     -88.968834     -2420.9651 
   4   2.0000     -88.956042     -2420.6170 
   5   2.0000     -19.243965      -523.6549 
   6   2.0000     -19.243809      -523.6507 
   7   2.0000     -19.225686      -523.1575 
   8   2.0000     -14.416885      -392.3034 
   9   2.0000     -14.414381      -392.2352 
  10   2.0000     -14.409696      -392.1078 
  11   2.0000     -14.409442      -392.1009 
  12   2.0000     -10.408635      -283.2334 
  13   2.0000     -10.408546      -283.2309 
  14   2.0000     -10.373144      -282.2676 
  15   2.0000     -10.343861      -281.4708 
  16   2.0000     -10.342930      -281.4454 
  17   2.0000     -10.342339      -281.4294 
  18   2.0000     -10.339098      -281.3412 
  19   2.0000     -10.338728      -281.3311 
  20   2.0000     -10.333340      -281.1845 
  21   2.0000     -10.330147      -281.0976 
  22   2.0000     -10.328674      -281.0575 
  23   2.0000     -10.328320      -281.0479 
  24   2.0000     -10.322560      -280.8911 
  25   2.0000     -10.318952      -280.7930 
  26   2.0000     -10.317393      -280.7505 
  27   2.0000     -10.316147      -280.7166 
  28   2.0000     -10.308335      -280.5041 
  29   2.0000     -10.307871      -280.4914 
  30   2.0000     -10.307597      -280.4840 
  31   2.0000     -10.305378      -280.4236 
  32   2.0000     -10.304830      -280.4087 
  33   2.0000     -10.304600      -280.4024 
  34   2.0000     -10.303928      -280.3841 
  35   2.0000     -10.303769      -280.3798 
  36   2.0000     -10.303598      -280.3752 
  37   2.0000     -10.302469      -280.3444 
  38   2.0000     -10.302039      -280.3327 
  39   2.0000     -10.301637      -280.3218 
  40   2.0000     -10.301434      -280.3163 
  41   2.0000     -10.297445      -280.2077 
  42   2.0000     -10.295432      -280.1529 
  43   2.0000     -10.293045      -280.0880 
  44   2.0000     -10.291172      -280.0370 
  45   2.0000     -10.289001      -279.9779 
  46   2.0000     -10.288386      -279.9612 
  47   2.0000     -10.287643      -279.9410 
  48   2.0000     -10.286821      -279.9186 
  49   2.0000     -10.286734      -279.9163 
  50   2.0000     -10.286234      -279.9026 
  51   2.0000     -10.285591      -279.8851 
  52   2.0000     -10.283746      -279.8349 
  53   2.0000     -10.282385      -279.7979 
  54   2.0000     -10.281688      -279.7789 
  55   2.0000     -10.281644      -279.7778 
  56   2.0000     -10.281135      -279.7639 
  57   2.0000     -10.281032      -279.7611 
  58   2.0000     -10.280670      -279.7512 
  59   2.0000     -10.280483      -279.7462 
  60   2.0000     -10.278570      -279.6941 
  61   2.0000     -10.276157      -279.6285 
  62   2.0000     -10.276093      -279.6267 
  63   2.0000     -10.276019      -279.6247 
  64   2.0000     -10.276016      -279.6246 
  65   2.0000     -10.275348      -279.6064 
  66   2.0000     -10.275132      -279.6005 
  67   2.0000     -10.274372      -279.5799 
  68   2.0000     -10.273647      -279.5601 
  69   2.0000     -10.271023      -279.4887 
  70   2.0000     -10.270541      -279.4756 
  71   2.0000     -10.268789      -279.4280 
  72   2.0000     -10.268111      -279.4095 
  73   2.0000     -10.268044      -279.4077 
  74   2.0000     -10.267974      -279.4058 
  75   2.0000     -10.267961      -279.4054 
  76   2.0000     -10.267875      -279.4031 
  77   2.0000     -10.259952      -279.1875 
  78   2.0000     -10.250526      -278.9310 
  79   2.0000     -10.250507      -278.9305 
  80   2.0000      -8.070872      -219.6196 
  81   2.0000      -8.070331      -219.6049 
  82   2.0000      -8.070278      -219.6034 
  83   2.0000      -8.064981      -219.4593 
  84   2.0000      -8.051375      -219.0890 
  85   2.0000      -6.040758      -164.3774 
  86   2.0000      -6.040253      -164.3636 
  87   2.0000      -6.039719      -164.3491 
  88   2.0000      -6.035999      -164.2479 
[...]
  10   3.429     361.6   0.007028   0.006430  16.742304   6.948485     0.31 ( 107-> 110)    0.18 ( 104-> 110)    0.16 ( 106-> 110)
  11   3.466     357.7   0.337243   0.328781   3.973562  -4.278981     0.28 ( 103-> 109)    0.19 ( 106-> 109)    0.18 ( 107-> 109)
  12   3.541     350.2   0.007401   0.007443  -3.680341  -6.768860     0.62 (  96-> 109)    0.11 (  94-> 109)    0.06 (  96-> 111)
  13   3.649     339.7   0.423755   0.402521  -13.868608  -68.456079     0.39 ( 107-> 113)    0.14 ( 108-> 114)    0.06 ( 107-> 111)
  14   3.672     337.6   0.096643   0.088735  -31.552179  -34.931414     0.41 ( 100-> 109)    0.13 ( 108-> 111)    0.09 ( 107-> 113)
  15   3.688     336.2   0.005261   0.004769  16.032415  15.147863     0.43 (  94-> 112)    0.28 (  96-> 112)    0.10 (  94-> 109)
  16   3.720     333.3   0.110424   0.102745  26.834264  17.463784     0.28 ( 108-> 111)    0.16 ( 100-> 109)    0.09 ( 107-> 111)
  17   3.810     325.4   0.004484   0.003135  -4.937244  -3.078423     0.33 ( 105-> 113)    0.13 ( 105-> 109)    0.07 ( 105-> 114)
  18   3.836     323.2   0.033919   0.029624  -17.385229  -9.315573     0.17 ( 106-> 110)    0.10 ( 101-> 110)    0.09 ( 107-> 110)
  19   3.874     320.0   0.042206   0.036263   0.031420  -10.188574     0.62 ( 108-> 112)    0.11 ( 106-> 112)    0.04 ( 107-> 112)
  20   3.913     316.9   0.039135   0.031816  -21.002452  -29.101164     0.24 ( 108-> 114)    0.12 ( 107-> 114)    0.08 ( 108-> 111)
  21   3.965     312.7   0.162198   0.151243  -7.794372  -4.654726     0.22 ( 104-> 109)    0.21 ( 106-> 109)    0.15 ( 101-> 109)
  22   4.054     305.8   0.023509   0.023072   2.976555   0.019136     0.74 ( 105-> 109)    0.08 ( 105-> 113)    0.04 ( 105-> 114)
  23   4.086     303.5   0.850741   0.763189  -30.440036  -46.833729     0.24 ( 103-> 111)    0.16 ( 100-> 109)    0.11 ( 104-> 111)
  24   4.121     300.9   0.072788   0.071190  -14.066745  -17.283335     0.18 (  96-> 111)    0.13 ( 106-> 113)    0.11 ( 107-> 114)
  25   4.133     300.0   0.068824   0.063747  35.749270  39.861850     0.24 (  96-> 111)    0.08 (  94-> 111)    0.08 (  96-> 109)
  26   4.167     297.5   0.124291   0.109626  76.775297  75.193700     0.71 ( 102-> 112)    0.05 ( 102-> 111)    0.04 ( 104-> 112)
  27   4.267     290.6   0.166273   0.142402  57.552429  28.631685     0.15 ( 108-> 115)    0.14 (  97-> 109)    0.14 (  98-> 109)
  28   4.309     287.8   0.024900   0.029778  24.262160  18.238002     0.25 (  97-> 109)    0.17 (  98-> 109)    0.08 ( 108-> 115)
  29   4.363     284.2   0.020936   0.018906  24.653156  14.043236     0.52 (  99-> 110)    0.05 (  95-> 110)    0.05 ( 107-> 111)
  30   4.410     281.2   0.055949   0.047568  -15.839429  -15.941992     0.19 ( 107-> 111)    0.15 ( 102-> 111)    0.09 ( 104-> 111)
  31   4.431     279.8   0.022980   0.021509   6.412252   3.523433     0.24 ( 104-> 110)    0.17 ( 101-> 110)    0.13 (  99-> 110)
  32   4.440     279.2   0.033654   0.026746  11.135965  12.407393     0.54 ( 102-> 111)    0.06 ( 102-> 113)    0.05 ( 107-> 111)
  33   4.495     275.8   0.017807   0.011112  10.712886   4.309026     0.26 (  98-> 109)    0.13 ( 108-> 117)    0.07 ( 107-> 117)
  34   4.514     274.7   0.000858   0.000931   1.142410   1.495997     0.66 (  94-> 109)    0.12 (  96-> 109)    0.06 (  94-> 112)
  35   4.547     272.7   0.034200   0.028098   6.793518   2.822046     0.32 ( 107-> 112)    0.24 ( 106-> 112)    0.19 ( 104-> 112)
  36   4.565     271.6   0.048565   0.044607  -16.858161  -17.247587     0.18 ( 106-> 113)    0.16 ( 107-> 114)    0.10 ( 108-> 114)
  37   4.661     266.0   0.072805   0.062011   4.218791  -2.986901     0.18 ( 101-> 109)    0.14 (  95-> 109)    0.07 ( 104-> 109)
  38   4.714     263.0   0.097976   0.084752  -9.395168  -5.325377     0.23 ( 100-> 111)    0.10 (  93-> 109)    0.06 ( 101-> 109)
  39   4.772     259.8   0.142723   0.123305   7.982148  -15.101041     0.14 ( 107-> 115)    0.11 ( 108-> 118)    0.09 ( 105-> 115)
  40   4.823     257.1   0.018446   0.011440  36.752011  36.938025     0.11 ( 104-> 113)    0.10 ( 107-> 114)    0.08 ( 100-> 111)
  41   4.836     256.4   0.094123   0.079143  -62.180204  -76.419569     0.14 ( 105-> 115)    0.12 ( 105-> 111)    0.07 ( 105-> 116)
  42   4.861     255.1   0.094431   0.072146  -19.379077  -21.780797     0.23 (  97-> 109)    0.16 ( 108-> 117)    0.14 (  98-> 109)
  43   4.877     254.2   0.328257   0.271886  159.978516  76.182686     0.20 (  93-> 109)    0.10 ( 102-> 114)    0.08 ( 102-> 113)
  44   4.893     253.4   0.006613   0.005039  11.184527   9.758697     0.34 ( 103-> 110)    0.16 ( 104-> 110)    0.04 ( 107-> 115)
  45   4.924     251.8   0.066235   0.053253  89.635020  65.065114     0.16 (  99-> 113)    0.15 ( 103-> 110)    0.12 (  99-> 109)
  46   4.941     250.9   0.066144   0.056668  11.239863  15.320030     0.24 ( 103-> 112)    0.17 ( 104-> 112)    0.13 ( 104-> 111)
  47   4.977     249.1   0.061212   0.053468  -9.062529  -4.195569     0.55 ( 102-> 110)    0.06 ( 103-> 110)    0.03 (  99-> 109)
  48   5.000     248.0   0.109102   0.084411  -70.256566  -40.294056     0.12 ( 102-> 110)    0.09 ( 106-> 111)    0.07 ( 103-> 112)

-----------------------------------------------------------------------------
         ABSORPTION SPECTRUM VIA TRANSITION ELECTRIC DIPOLE MOMENTS
-----------------------------------------------------------------------------
State   Energy  Wavelength   fosc         T2         TX        TY        TZ  
        (cm-1)    (nm)                  (au**2)     (au)      (au)      (au) 
-----------------------------------------------------------------------------
   0    8799.9   1136.4   0.009479107   0.35462  -0.15527  -0.21111   0.53474
   1   18038.1    554.4   2.448104551  44.68026   0.47193   4.59984  -4.82690
   2   20253.8    493.7   0.024556687   0.39915  -0.21513   0.27125   0.52848
   3   21627.9    462.4   0.221719121   3.37493  -0.79537  -1.02120   1.30364
   4   23041.2    434.0   0.892901280  12.75776  -0.86317  -1.60412   3.07238
   5   23120.2    432.5   0.554730762   7.89889  -0.52966  -1.45339   2.34649
   6   25428.1    393.3   0.054728498   0.70856  -0.20902   0.60521   0.54644
   7   26270.0    380.7   0.005409452   0.06779  -0.04363   0.04302   0.25305
   8   26405.7    378.7   0.066211292   0.82549   0.09891  -0.76359  -0.48232
   9   27174.1    368.0   0.129660918   1.57083  -0.37736   0.40921   1.12293
  10   27654.3    361.6   0.007027951   0.08366   0.06935   0.00508  -0.28077
  11   27952.8    357.7   0.337242954   3.97185  -0.51722   0.90589   1.69814
  12   28558.4    350.2   0.007401022   0.08532   0.17333  -0.16177  -0.17059
  13   29434.7    339.7   0.423755490   4.73948  -0.59039   1.83508   1.01163
  14   29620.5    337.6   0.096643431   1.07413   0.19795  -1.00571  -0.15326
  15   29746.7    336.2   0.005260869   0.05822   0.01949  -0.22757  -0.07781
  16   30003.0    333.3   0.110423839   1.21164   0.38059  -0.14734  -1.02229
  17   30732.3    325.4   0.004483849   0.04803   0.01367  -0.21748   0.02342
  18   30937.1    323.2   0.033918755   0.36094  -0.06577  -0.50823   0.31356
  19   31249.2    320.0   0.042206350   0.44465   0.18832  -0.51623  -0.37774
  20   31560.5    316.9   0.039135411   0.40823   0.16036  -0.59697  -0.16166
  21   31981.1    312.7   0.162197775   1.66965   0.32277  -0.92536  -0.84213
  22   32698.6    305.8   0.023508553   0.23669   0.14283  -0.24497  -0.39531
  23   32952.6    303.5   0.850740626   8.49929   0.97591  -1.20702  -2.46779
  24   33234.2    300.9   0.072788160   0.72103  -0.10689   0.81582  -0.20985
  25   33334.1    300.0   0.068823747   0.67971   0.15400  -0.80226  -0.11127
  26   33610.6    297.5   0.124291334   1.21742  -0.13716  -0.05041   1.09365
  27   34412.5    290.6   0.166272791   1.59067   0.37152  -0.00610  -1.20524
  28   34750.8    287.8   0.024899536   0.23589  -0.10674  -0.08247   0.46657
  29   35192.2    284.2   0.020935505   0.19584  -0.10587   0.14594   0.40415
  30   35566.1    281.2   0.055949059   0.51788  -0.22251   0.51057   0.45574
  31   35735.9    279.8   0.022980469   0.21170  -0.11739  -0.05661   0.44127
  32   35812.2    279.2   0.033654143   0.30937   0.02161   0.32938  -0.44767
  33   36256.1    275.8   0.017806965   0.16169  -0.16326   0.12170   0.34673
  34   36409.4    274.7   0.000857786   0.00776  -0.01645   0.01982   0.08422
  35   36671.2    272.7   0.034200258   0.30703  -0.15294   0.29846   0.44109
  36   36822.8    271.6   0.048564915   0.43419  -0.13747   0.64423  -0.01624
  37   37596.4    266.0   0.072804535   0.63751   0.06644   0.60132  -0.52106
  38   38021.4    263.0   0.097976319   0.84834   0.00356  -0.74400   0.54294
  39   38487.5    259.8   0.142723485   1.22082   0.48918  -0.07946  -0.98752
  40   38901.8    257.1   0.018445663   0.15610  -0.00052   0.12302  -0.37545
  41   39003.1    256.4   0.094123276   0.79446   0.41599  -0.40711  -0.67504
  42   39202.7    255.1   0.094430521   0.79300   0.04479  -0.77160   0.44230
  43   39339.5    254.2   0.328256632   2.74701   0.27715   0.64760  -1.50027
  44   39466.7    253.4   0.006613468   0.05517  -0.06844  -0.13596   0.17888
  45   39716.5    251.8   0.066235485   0.54903   0.11968   0.09254  -0.72536
  46   39850.0    250.9   0.066143932   0.54643  -0.15617   0.08552   0.71745
  47   40145.3    249.1   0.061211804   0.50197  -0.05011   0.65163  -0.27355
  48   40325.7    248.0   0.109102084   0.89069   0.12888  -0.93415   0.03801

-----------------------------------------------------------------------------
         ABSORPTION SPECTRUM VIA TRANSITION VELOCITY DIPOLE MOMENTS
-----------------------------------------------------------------------------
State   Energy  Wavelength   fosc         P2         PX        PY        PZ  
        (cm-1)    (nm)                  (au**2)     (au)      (au)      (au) 
-----------------------------------------------------------------------------
   0    8799.9   1136.4   0.018882400   0.00114  -0.00929  -0.01002   0.03080
   1   18038.1    554.4   2.726221002   0.33609   0.04047   0.39878  -0.41884
   2   20253.8    493.7   0.018316122   0.00254  -0.01734   0.02348   0.04103
   3   21627.9    462.4   0.226100681   0.03342  -0.08193  -0.09857   0.13036
   4   23041.2    434.0   1.050085141   0.16536  -0.10035  -0.17488   0.35314
   5   23120.2    432.5   0.569659154   0.09001  -0.05475  -0.16086   0.24727
   6   25428.1    393.3   0.054299344   0.00944  -0.02463   0.06749   0.06539
   7   26270.0    380.7   0.008316829   0.00149  -0.00688   0.00588   0.03757
   8   26405.7    378.7   0.057816704   0.01043   0.01083  -0.08265  -0.05904
   9   27174.1    368.0   0.118670354   0.02204  -0.04524   0.05114   0.13182
  10   27654.3    361.6   0.006429665   0.00122   0.00721   0.01029  -0.03252
  11   27952.8    357.7   0.328781216   0.06281  -0.06499   0.11246   0.21434
  12   28558.4    350.2   0.007443121   0.00145   0.02396  -0.01931  -0.02249
  13   29434.7    339.7   0.402521478   0.08098  -0.07919   0.23512   0.13936
  14   29620.5    337.6   0.088734712   0.01796   0.02482  -0.12994  -0.02151
  15   29746.7    336.2   0.004768516   0.00097   0.00589  -0.02912  -0.00931
  16   30003.0    333.3   0.102744855   0.02107   0.05043  -0.01705  -0.13503
  17   30732.3    325.4   0.003135242   0.00066   0.00149  -0.02526   0.00430
  18   30937.1    323.2   0.029623970   0.00626  -0.00952  -0.06507   0.04403
  19   31249.2    320.0   0.036263333   0.00774   0.02584  -0.06433  -0.05421
  20   31560.5    316.9   0.031815690   0.00686   0.02221  -0.07662  -0.02232
  21   31981.1    312.7   0.151243084   0.03306   0.04544  -0.13075  -0.11789
  22   32698.6    305.8   0.023072414   0.00516   0.02124  -0.03412  -0.05951
  23   32952.6    303.5   0.763189224   0.17188   0.13939  -0.16968  -0.35165
  24   33234.2    300.9   0.071189748   0.01617  -0.01491   0.12193  -0.03287
  25   33334.1    300.0   0.063747081   0.01452   0.02205  -0.11761  -0.01430
  26   33610.6    297.5   0.109625929   0.02518  -0.02127  -0.00458   0.15719
  27   34412.5    290.6   0.142401535   0.03349   0.05248   0.00761  -0.17516
  28   34750.8    287.8   0.029778179   0.00707  -0.02035  -0.01327   0.08051
  29   35192.2    284.2   0.018905564   0.00455  -0.01610   0.01541   0.06364
  30   35566.1    281.2   0.047568054   0.01156  -0.03347   0.07603   0.06828
  31   35735.9    279.8   0.021508869   0.00525  -0.01914  -0.00861   0.06938
  32   35812.2    279.2   0.026746272   0.00655   0.00433   0.04562  -0.06668
  33   36256.1    275.8   0.011111851   0.00275  -0.02045   0.00989   0.04730
  34   36409.4    274.7   0.000931153   0.00023   0.00196   0.00512   0.01420
  35   36671.2    272.7   0.028098207   0.00704  -0.02301   0.04298   0.06830
  36   36822.8    271.6   0.044606753   0.01123  -0.02226   0.10357  -0.00189
  37   37596.4    266.0   0.062011361   0.01593   0.00916   0.09743  -0.07973
  38   38021.4    263.0   0.084752065   0.02202  -0.00078  -0.11860   0.08921
  39   38487.5    259.8   0.123305422   0.03243   0.07944  -0.00554  -0.16153
  40   38901.8    257.1   0.011439801   0.00304  -0.00191   0.01641  -0.05262
  41   39003.1    256.4   0.079142741   0.02110   0.06838  -0.05723  -0.11465
  42   39202.7    255.1   0.072145952   0.01933   0.00755  -0.12159   0.06700
  43   39339.5    254.2   0.271886322   0.07310   0.04262   0.11884  -0.23909
  44   39466.7    253.4   0.005038868   0.00136  -0.01078  -0.02145   0.02798
  45   39716.5    251.8   0.053252870   0.01446   0.01840   0.02184  -0.11679
  46   39850.0    250.9   0.056668481   0.01543  -0.02662   0.01702   0.12015
  47   40145.3    249.1   0.053468159   0.01467  -0.00775   0.11055  -0.04887
  48   40325.7    248.0   0.084410785   0.02326   0.01841  -0.15069   0.01479

-------------------------------------------------------------------
                             CD SPECTRUM
-------------------------------------------------------------------
State   Energy Wavelength       R         MX        MY        MZ   
        (cm-1)   (nm)       (1e40*cgs)   (au)      (au)      (au)  
-------------------------------------------------------------------
   0    8799.9   1136.4     -7.66659   0.66395  -0.45979   0.07209
   1   18038.1    554.4    431.25741   5.37064   6.02472   6.64544
   2   20253.8    493.7    -25.03366  -3.29000  -0.79489  -0.73032
   3   21627.9    462.4    -691.33820  -7.32392  -2.76881  -4.38761
   4   23041.2    434.0    -18.35476  -9.24850  -5.82300  -5.61322
   5   23120.2    432.5    180.99063  -5.42239  -3.90223  -3.96817
   6   25428.1    393.3     36.94034  -2.20120  -1.16116   0.15726
   7   26270.0    380.7      4.83890  -0.87392  -0.61939  -0.12648
   8   26405.7    378.7     87.73839   1.88093   1.11481  -0.60747
   9   27174.1    368.0    -19.38451   0.62229  -1.44101   0.80748
  10   27654.3    361.6     16.74230   2.89941   0.70973   0.98200
  11   27952.8    357.7      3.97356  -2.52391  -2.75783   0.69254
  12   28558.4    350.2     -3.68034   0.53996   0.53526  -0.05047
  13   29434.7    339.7    -13.86861  -6.96694  -2.58994   0.69037
  14   29620.5    337.6    -31.55218  -0.07424   0.08856  -1.55038
  15   29746.7    336.2     16.03241   0.12971   0.54437  -0.68549
  16   30003.0    333.3     26.83426   2.11665   1.89008   0.62694
  17   30732.3    325.4     -4.93724  -0.11531  -0.14555  -0.38996
  18   30937.1    323.2    -17.38523  -1.15617  -0.81122  -1.32214
  19   31249.2    320.0      0.03142   1.90965   0.86585  -0.23091
  20   31560.5    316.9    -21.00245   4.27115   0.88884   0.40339
  21   31981.1    312.7     -7.79437  -0.55524   1.32648  -1.70967
  22   32698.6    305.8      2.97656   0.37266   0.71995  -0.27956
  23   32952.6    303.5    -30.44004   4.19362   4.33499  -0.51420
  24   33234.2    300.9    -14.06674   6.53862   1.75193   3.19590
  25   33334.1    300.0     35.74927  -4.94154  -0.34242  -3.00726
  26   33610.6    297.5     76.77530  -2.78716  -2.38318  -0.75721
  27   34412.5    290.6     57.55243   5.86800   2.97913   1.99631
  28   34750.8    287.8     24.26216  -3.56031  -1.42639  -1.28726
  29   35192.2    284.2     24.65316  -2.70150  -1.11607  -0.56342
  30   35566.1    281.2    -15.83943  -2.68109  -1.13154   0.10611
  31   35735.9    279.8      6.41225  -3.25158  -1.28170  -1.09105
  32   35812.2    279.2     11.13596   2.62208   1.29340   1.18374
  33   36256.1    275.8     10.71289  -0.86693  -0.70940  -0.29028
  34   36409.4    274.7      1.14241  -0.01803  -0.08451  -0.04118
  35   36671.2    272.7      6.79352  -1.33001  -1.03727   0.17536
  36   36822.8    271.6    -16.85816  -0.74111  -0.02410   0.91346
  37   37596.4    266.0      4.21879   3.59165   1.56846   2.30239
  38   38021.4    263.0     -9.39517  -2.56534  -1.68019  -2.21218
  39   38487.5    259.8      7.98215   3.88458   2.54735   1.75361
  40   38901.8    257.1     36.75201   2.73449   1.08214   0.76605
  41   39003.1    256.4    -62.18020   4.15121   1.86732   1.04125
  42   39202.7    255.1    -19.37908   0.37553  -0.79778  -1.24390
  43   39339.5    254.2    159.97852   4.61511   3.66951   2.88890
  44   39466.7    253.4     11.18453   0.91719  -0.24754  -0.10249
  45   39716.5    251.8     89.63502   4.76908   2.22305   1.59471
  46   39850.0    250.9     11.23986  -2.36833  -1.82503  -0.36444
  47   40145.3    249.1     -9.06253   1.13883   0.85064   1.67717
  48   40325.7    248.0    -70.25657  -0.13525  -0.41756  -1.96249

sTD-DFT done

Total run time:        4.875 sec

           *** ORCA-CIS/TD-DFT FINISHED WITHOUT ERROR ***

-------------------------   --------------------
FINAL SINGLE POINT ENERGY     -5047.500243014256
-------------------------   --------------------


                            ***************************************
                            *     ORCA property calculations      *
                            ***************************************

                                    ---------------------
                                    Active property flags
                                    ---------------------
   (+) Dipole Moment


------------------------------------------------------------------------------
                       ORCA ELECTRIC PROPERTIES CALCULATION
------------------------------------------------------------------------------

Dipole Moment Calculation                       ... on
Quadrupole Moment Calculation                   ... off
Polarizability Calculation                      ... off
GBWName                                         ... xtbopt.gbw
Electron density file                           ... xtbopt.scfp
The origin for moment calculation is the CENTER OF MASS  = (-12.702595, 19.209719 -5.507751)

-------------
DIPOLE MOMENT
-------------
                                X             Y             Z
Electronic contribution:    -11.83691    -127.31862     107.06534
Nuclear contribution   :     11.43171     129.68457    -107.71571
                        -----------------------------------------
Total Dipole Moment    :     -0.40520       2.36595      -0.65037
                        -----------------------------------------
Magnitude (a.u.)       :      2.48694
Magnitude (Debye)      :      6.32130



--------------------
Rotational spectrum 
--------------------
 
Rotational constants in cm-1:     0.001260     0.000131     0.000119 
Rotational constants in MHz :    37.780158     3.912536     3.569339 

 Dipole components along the rotational axes: 
x,y,z [a.u.] :     2.158575     1.203638     0.276920 
x,y,z [Debye]:     5.486663     3.059403     0.703874 

 

Timings for individual modules:

Sum of individual times         ...      836.895 sec (=  13.948 min)
GTO integral calculation        ...        3.647 sec (=   0.061 min)   0.4 %
SCF iterations                  ...      827.615 sec (=  13.794 min)  98.9 %
CIS module                      ...        5.632 sec (=   0.094 min)   0.7 %
                             ****ORCA TERMINATED NORMALLY****
TOTAL RUN TIME: 0 days 0 hours 13 minutes 58 seconds 33 msec
