
                                 *****************
                                 * O   R   C   A *
                                 *****************

           --- An Ab Initio, DFT and Semiempirical electronic structure package ---

                  #######################################################
                  #                        -***-                        #
                  #          Department of theory and spectroscopy      #
                  #               Directorship: Frank Neese             #
                  #        Max Planck Institute fuer Kohlenforschung    #
                  #                Kaiser Wilhelm Platz 1               #
                  #                 D-45470 Muelheim/Ruhr               #
                  #                      Germany                        #
                  #                                                     #
                  #                  All rights reserved                #
                  #                        -***-                        #
                  #######################################################


                         Program Version 4.2.0 -  RELEASE  -


 With contributions from (in alphabetic order):
   Daniel Aravena         : Magnetic Suceptibility
   Michael Atanasov       : Ab Initio Ligand Field Theory (pilot matlab implementation)
   Alexander A. Auer      : GIAO ZORA, VPT2
   Ute Becker             : Parallelization
   Giovanni Bistoni       : ED, misc. LED, open-shell LED, HFLED
   Martin Brehm           : Molecular dynamics
   Dmytro Bykov           : SCF Hessian
   Vijay G. Chilkuri      : MRCI spin determinant printing, contributions to CSF-ICE
   Dipayan Datta          : RHF DLPNO-CCSD density
   Achintya Kumar Dutta   : EOM-CC, STEOM-CC
   Dmitry Ganyushin       : Spin-Orbit,Spin-Spin,Magnetic field MRCI
   Miquel Garcia          : C-PCM Hessian, Gaussian charge scheme
   Yang Guo               : DLPNO-NEVPT2, CIM, IAO-localization
   Andreas Hansen         : Spin unrestricted coupled pair/coupled cluster methods
   Benjamin Helmich-Paris : CASSCF linear response (MC-RPA)
   Lee Huntington         : MR-EOM, pCC
   Robert Izsak           : Overlap fitted RIJCOSX, COSX-SCS-MP3, EOM
   Christian Kollmar      : KDIIS, OOCD, Brueckner-CCSD(T), CCSD density
   Simone Kossmann        : Meta GGA functionals, TD-DFT gradient, OOMP2, MP2 Hessian
   Martin Krupicka        : AUTO-CI
   Lucas Lang             : DCDCAS
   Dagmar Lenk            : GEPOL surface, SMD
   Dimitrios Liakos       : Extrapolation schemes; Compound Job, initial MDCI parallelization
   Dimitrios Manganas     : Further ROCIS development; embedding schemes
   Dimitrios Pantazis     : SARC Basis sets
   Taras Petrenko         : DFT Hessian,TD-DFT gradient, ASA, ECA, R-Raman, ABS, FL, XAS/XES, NRVS
   Peter Pinski           : DLPNO-MP2, DLPNO-MP2 Gradient
   Christoph Reimann      : Effective Core Potentials
   Marius Retegan         : Local ZFS, SOC
   Christoph Riplinger    : Optimizer, TS searches, QM/MM, DLPNO-CCSD(T), (RO)-DLPNO pert. Triples
   Tobias Risthaus        : Range-separated hybrids, TD-DFT gradient, RPA, STAB
   Michael Roemelt        : Original ROCIS implementation
   Masaaki Saitow         : Open-shell DLPNO-CCSD energy and density
   Barbara Sandhoefer     : DKH picture change effects
   Avijit Sen             : IP-ROCIS
   Kantharuban Sivalingam : CASSCF convergence, NEVPT2, FIC-MRCI
   Bernardo de Souza      : ESD, SOC TD-DFT
   Georgi Stoychev        : AutoAux, RI-MP2 NMR
   Willem Van den Heuvel  : Paramagnetic NMR
   Boris Wezisla          : Elementary symmetry handling
   Frank Wennmohs         : Technical directorship


 We gratefully acknowledge several colleagues who have allowed us to
 interface, adapt or use parts of their codes:
   Stefan Grimme, W. Hujo, H. Kruse,             : VdW corrections, initial TS optimization,
                  C. Bannwarth                     DFT functionals, gCP, sTDA/sTD-DF
   Ed Valeev, F. Pavosevic, A. Kumar             : LibInt (2-el integral package), F12 methods
   Garnet Chan, S. Sharma, J. Yang, R. Olivares  : DMRG
   Ulf Ekstrom                                   : XCFun DFT Library
   Mihaly Kallay                                 : mrcc  (arbitrary order and MRCC methods)
   Andreas Klamt, Michael Diedenhofen            : otool_cosmo (COSMO solvation model)
   Jiri Pittner, Ondrej Demel                    : Mk-CCSD
   Frank Weinhold                                : gennbo (NPA and NBO analysis)
   Christopher J. Cramer and Donald G. Truhlar   : smd solvation model
   Lars Goerigk                                  : TD-DFT with DH, B97 family of functionals
   V. Asgeirsson, H. Jonsson                     : NEB implementation
   FAccTs GmbH                                   : IRC, NEB, NEB-TS, Multilevel, MM, QM/MM, CI optimization
   S Lehtola, MJT Oliveira, MAL Marques          : LibXC Library


 Your calculation uses the libint2 library for the computation of 2-el integrals
 For citations please refer to: http://libint.valeyev.net

 Your ORCA version has been built with support for libXC version: 4.2.3
 For citations please refer to: https://tddft.org/programs/libxc/

 This ORCA versions uses:
   CBLAS   interface :  Fast vector & matrix operations
   LAPACKE interface :  Fast linear algebra routines
   SCALAPACK package :  Parallel linear algebra routines


XCFun DFT library Copyright 2009-2010 Ulf Ekstrom and contributors.
See http://admol.org/xcfun for more information. This is free soft-
ware; see the source code for copying conditions. There is ABSOLUTELY
NO WARRANTY; not even for MERCHANTABILITY or FITNESS FOR A PARTICULAR
PURPOSE. For details see the documentation. Scientific users of this 
library should cite U. Ekstrom, L. Visscher, R. Bast, A. J. Thorvald-
sen and K. Ruud; J.Chem.Theor.Comp. 2010, DOI: 10.1021/ct100117s
XCFun Version 0.99 
----- Orbital basis set information -----
Your calculation utilizes the basis: def2-SVP
   F. Weigend and R. Ahlrichs, Phys. Chem. Chem. Phys. 7, 3297 (2005).

----- AuxJ basis set information -----
Your calculation utilizes the auxiliary basis: def2/J
   F. Weigend, Phys. Chem. Chem. Phys. 8, 1057 (2006).

================================================================================
                                        WARNINGS
                       Please study these warnings very carefully!
================================================================================

INFO   : Checking CIS options ...

WARNING: CIS/ROCIS methods need fully converged wavefunctions
  ===> : Setting SCFConvForced true
         You can overwrite this default with %scf ConvForced false 


INFO   : the flag for use of LIBINT has been found!

================================================================================
                                       INPUT FILE
================================================================================
NAME = xtbopt.inp
|  1> # ORCA input file
|  2> # SCF done       -177.217957355146          0.000619578100
|  3> ! CAM-B3LYP def2-SVP def2/J RIJCOSX Grid4 TightSCF
|  4> %maxcore 5000
|  5> %tddft
|  6>     Mode sTDDFT
|  7>     Ethresh 5.0
|  8>     maxcore 5000
|  9> end
| 10> 
| 11> %pal
| 12>   nprocs 6
| 13>   end
| 14> * xyz 0 1
| 15>    C       -2.98515         3.16661         5.38804
| 16>    C       -1.84877         2.40921         5.57382
| 17>    C       -1.27703         2.15658         6.83525
| 18>    N       -0.80065         1.85523         7.83668
| 19>    C       -1.13456         1.72775         4.57387
| 20>    N       -0.49029         1.15224         3.81313
| 21>    C       -3.63451         3.94613         6.43522
| 22>    C       -4.82183         4.50710         5.91198
| 23>    C       -5.66218         5.29336         6.65965
| 24>    C       -5.30956         5.54588         7.99046
| 25>    C       -4.10774         4.99998         8.49547
| 26>    C       -3.26002         4.19954         7.74081
| 27>    S       -3.84595         5.45871        10.15034
| 28>    C       -5.35715         6.32559        10.15683
| 29>    C       -6.01040         6.30032         8.97097
| 30>   Br       -5.92490         7.16454        11.73652
| 31>    C       -4.97331         4.10668         4.49409
| 32>    O       -5.87318         4.44715         3.75914
| 33>    C       -3.80122         3.25043         4.20107
| 34>    C       -3.58797         2.47098         3.08727
| 35>    C       -4.41116         2.26295         1.96306
| 36>    O       -5.48938         3.02827         1.67789
| 37>    C       -6.00044         2.62051         0.52344
| 38>    C       -5.29981         1.57039         0.01182
| 39>    C       -4.26900         1.29851         0.94792
| 40>    N       -3.34823         0.29676         0.77221
| 41>    C       -2.66230        -0.48084         1.65458
| 42>    C       -2.85188        -0.69949         2.98561
| 43>    C       -1.97547        -1.48643         3.79090
| 44>    C       -2.26726        -1.47190         5.11415
| 45>    C       -3.39192        -0.67683         5.44807
| 46>    S       -4.14695        -0.05626         3.99044
| 47>    C       -3.82274        -0.31726         6.70591
| 48>    C       -3.30169        -0.75353         7.94551
| 49>    C       -3.86611        -0.14468         9.02119
| 50>    C       -4.86312         0.81083         8.69972
| 51>    S       -5.07689         0.88653         6.96189
| 52>    C       -5.53197         1.57826         9.62044
| 53>    C       -6.52748         2.53693         9.39863
| 54>    S       -7.30404         2.72812         7.84983
| 55>    C       -8.44626         3.83103         8.52468
| 56>    C       -8.26969         4.05720         9.85073
| 57>    C       -9.12584         4.96918        10.66131
| 58>    C       -7.14070         3.34901        10.37401
| 59>    C       -6.70808         3.51257        11.71632
| 60>    C       -5.43503         3.35774        12.18180
| 61>    C       -5.05679         3.53347        13.53126
| 62>    C       -5.91172         3.45173        14.59489
| 63>    C       -5.49467         3.67770        15.91193
| 64>    C       -6.23590         3.61319        17.06425
| 65>    C       -7.64624         3.47047        17.32445
| 66>    C       -8.70698         3.84000        16.53101
| 67>    C      -10.05556         3.73364        16.93077
| 68>    N      -11.17392         3.66937        17.18485
| 69>    C       -8.64578         4.43779        15.25803
| 70>    N       -8.71535         4.93116        14.22146
| 71>    C       -7.78179         3.00364        18.70660
| 72>    C       -6.51402         3.05910        19.33604
| 73>    C       -5.51137         3.51734        18.35358
| 74>    O       -4.33243         3.72446        18.54313
| 75>    C       -6.31447         2.67832        20.63954
| 76>    C       -7.41860         2.20428        21.35646
| 77>    C       -8.67828         2.14139        20.71756
| 78>    C       -8.88152         2.53762        19.40050
| 79>    S       -9.89999         1.50237        21.77622
| 80>    C       -8.71580         1.33103        23.04475
| 81>    C       -7.47073         1.73234        22.69709
| 82>   Br       -9.23479         0.63264        24.70702
| 83>    H       -6.56463         5.70115         6.23225
| 84>    H       -2.35601         3.80758         8.17596
| 85>    H       -6.95156         6.78760         8.79418
| 86>    H       -2.65156         1.93622         3.03007
| 87>    H       -6.86278         3.14166         0.15616
| 88>    H       -5.49202         1.04275        -0.89975
| 89>    H       -3.23002         0.03423        -0.19788
| 90>    H       -1.84748        -1.02672         1.19640
| 91>    H       -1.13206        -1.99302         3.35898
| 92>    H       -1.68273        -1.96564         5.86823
| 93>    H       -2.52497        -1.49327         8.00673
| 94>    H       -3.59206        -0.33855        10.04288
| 95>    H       -5.27505         1.39079        10.65414
| 96>    H       -9.19885         4.24660         7.88345
| 97>    H       -9.92602         5.37891        10.05062
| 98>    H       -8.53993         5.78951        11.07173
| 99>    H       -9.56574         4.43507        11.50198
|100>    H       -7.45440         3.89630        12.40074
|101>    H       -4.63060         3.18348        11.48028
|102>    H       -4.01001         3.73105        13.72637
|103>    H       -6.93399         3.16163        14.41553
|104>    H       -4.43524         3.85286        16.07253
|105>    H       -5.33597         2.73457        21.09008
|106>    H       -9.86014         2.45833        18.95751
|107>    H       -6.62163         1.69496        23.35491
|108> *
|109> 
|110>                          ****END OF INPUT****
================================================================================

                       ****************************
                       * Single Point Calculation *
                       ****************************

---------------------------------
CARTESIAN COORDINATES (ANGSTROEM)
---------------------------------
  C     -2.985150    3.166610    5.388040
  C     -1.848770    2.409210    5.573820
  C     -1.277030    2.156580    6.835250
  N     -0.800650    1.855230    7.836680
  C     -1.134560    1.727750    4.573870
  N     -0.490290    1.152240    3.813130
  C     -3.634510    3.946130    6.435220
  C     -4.821830    4.507100    5.911980
  C     -5.662180    5.293360    6.659650
  C     -5.309560    5.545880    7.990460
  C     -4.107740    4.999980    8.495470
  C     -3.260020    4.199540    7.740810
  S     -3.845950    5.458710   10.150340
  C     -5.357150    6.325590   10.156830
  C     -6.010400    6.300320    8.970970
  Br    -5.924900    7.164540   11.736520
  C     -4.973310    4.106680    4.494090
  O     -5.873180    4.447150    3.759140
  C     -3.801220    3.250430    4.201070
  C     -3.587970    2.470980    3.087270
  C     -4.411160    2.262950    1.963060
  O     -5.489380    3.028270    1.677890
  C     -6.000440    2.620510    0.523440
  C     -5.299810    1.570390    0.011820
  C     -4.269000    1.298510    0.947920
  N     -3.348230    0.296760    0.772210
  C     -2.662300   -0.480840    1.654580
  C     -2.851880   -0.699490    2.985610
  C     -1.975470   -1.486430    3.790900
  C     -2.267260   -1.471900    5.114150
  C     -3.391920   -0.676830    5.448070
  S     -4.146950   -0.056260    3.990440
  C     -3.822740   -0.317260    6.705910
  C     -3.301690   -0.753530    7.945510
  C     -3.866110   -0.144680    9.021190
  C     -4.863120    0.810830    8.699720
  S     -5.076890    0.886530    6.961890
  C     -5.531970    1.578260    9.620440
  C     -6.527480    2.536930    9.398630
  S     -7.304040    2.728120    7.849830
  C     -8.446260    3.831030    8.524680
  C     -8.269690    4.057200    9.850730
  C     -9.125840    4.969180   10.661310
  C     -7.140700    3.349010   10.374010
  C     -6.708080    3.512570   11.716320
  C     -5.435030    3.357740   12.181800
  C     -5.056790    3.533470   13.531260
  C     -5.911720    3.451730   14.594890
  C     -5.494670    3.677700   15.911930
  C     -6.235900    3.613190   17.064250
  C     -7.646240    3.470470   17.324450
  C     -8.706980    3.840000   16.531010
  C    -10.055560    3.733640   16.930770
  N    -11.173920    3.669370   17.184850
  C     -8.645780    4.437790   15.258030
  N     -8.715350    4.931160   14.221460
  C     -7.781790    3.003640   18.706600
  C     -6.514020    3.059100   19.336040
  C     -5.511370    3.517340   18.353580
  O     -4.332430    3.724460   18.543130
  C     -6.314470    2.678320   20.639540
  C     -7.418600    2.204280   21.356460
  C     -8.678280    2.141390   20.717560
  C     -8.881520    2.537620   19.400500
  S     -9.899990    1.502370   21.776220
  C     -8.715800    1.331030   23.044750
  C     -7.470730    1.732340   22.697090
  Br    -9.234790    0.632640   24.707020
  H     -6.564630    5.701150    6.232250
  H     -2.356010    3.807580    8.175960
  H     -6.951560    6.787600    8.794180
  H     -2.651560    1.936220    3.030070
  H     -6.862780    3.141660    0.156160
  H     -5.492020    1.042750   -0.899750
  H     -3.230020    0.034230   -0.197880
  H     -1.847480   -1.026720    1.196400
  H     -1.132060   -1.993020    3.358980
  H     -1.682730   -1.965640    5.868230
  H     -2.524970   -1.493270    8.006730
  H     -3.592060   -0.338550   10.042880
  H     -5.275050    1.390790   10.654140
  H     -9.198850    4.246600    7.883450
  H     -9.926020    5.378910   10.050620
  H     -8.539930    5.789510   11.071730
  H     -9.565740    4.435070   11.501980
  H     -7.454400    3.896300   12.400740
  H     -4.630600    3.183480   11.480280
  H     -4.010010    3.731050   13.726370
  H     -6.933990    3.161630   14.415530
  H     -4.435240    3.852860   16.072530
  H     -5.335970    2.734570   21.090080
  H     -9.860140    2.458330   18.957510
  H     -6.621630    1.694960   23.354910

----------------------------
CARTESIAN COORDINATES (A.U.)
----------------------------
  NO LB      ZA    FRAG     MASS         X           Y           Z
   0 C     6.0000    0    12.011   -5.641116    5.984026   10.181920
   1 C     6.0000    0    12.011   -3.493669    4.552747   10.532993
   2 C     6.0000    0    12.011   -2.413237    4.075346   12.916751
   3 N     7.0000    0    14.007   -1.513009    3.505877   14.809179
   4 C     6.0000    0    12.011   -2.144008    3.264974    8.643362
   5 N     7.0000    0    14.007   -0.926514    2.177418    7.205771
   6 C     6.0000    0    12.011   -6.868229    7.457105   12.160803
   7 C     6.0000    0    12.011   -9.111938    8.517185   11.172023
   8 C     6.0000    0    12.011  -10.699970   10.003001   12.584915
   9 C     6.0000    0    12.011  -10.033614   10.480194   15.099781
  10 C     6.0000    0    12.011   -7.762504    9.448593   16.054112
  11 C     6.0000    0    12.011   -6.160545    7.935980   14.628011
  12 S    16.0000    0    32.060   -7.267792   10.315467   19.181363
  13 C     6.0000    0    12.011  -10.123546   11.953633   19.193627
  14 C     6.0000    0    12.011  -11.358010   11.905879   16.952676
  15 Br   35.0000    0    79.900  -11.196438   13.539018   22.178809
  16 C     6.0000    0    12.011   -9.398194    7.760501    8.492599
  17 O     8.0000    0    15.999  -11.098702    8.403896    7.103745
  18 C     6.0000    0    12.011   -7.183265    6.142423    7.938872
  19 C     6.0000    0    12.011   -6.780281    4.669475    5.834095
  20 C     6.0000    0    12.011   -8.335884    4.276356    3.709646
  21 O     8.0000    0    15.999  -10.373425    5.722601    3.170753
  22 C     6.0000    0    12.011  -11.339188    4.952046    0.989158
  23 C     6.0000    0    12.011  -10.015189    2.967607    0.022337
  24 C     6.0000    0    12.011   -8.067241    2.453828    1.791309
  25 N     7.0000    0    14.007   -6.327238    0.560795    1.459265
  26 C     6.0000    0    12.011   -5.031018   -0.908656    3.126703
  27 C     6.0000    0    12.011   -5.389272   -1.321845    5.641985
  28 C     6.0000    0    12.011   -3.733097   -2.808946    7.163763
  29 C     6.0000    0    12.011   -4.284500   -2.781488    9.664343
  30 C     6.0000    0    12.011   -6.409800   -1.279023   10.295360
  31 S    16.0000    0    32.060   -7.836600   -0.106316    7.540839
  32 C     6.0000    0    12.011   -7.223932   -0.599535   12.672333
  33 C     6.0000    0    12.011   -6.239290   -1.423965   15.014838
  34 C     6.0000    0    12.011   -7.305889   -0.273406   17.047579
  35 C     6.0000    0    12.011   -9.189965    1.532247   16.440088
  36 S    16.0000    0    32.060   -9.593932    1.675299   13.156065
  37 C     6.0000    0    12.011  -10.453908    2.982479   18.179997
  38 C     6.0000    0    12.011  -12.335150    4.794103   17.760837
  39 S    16.0000    0    32.060  -13.802635    5.155400   14.834029
  40 C     6.0000    0    12.011  -15.961118    7.239598   16.109311
  41 C     6.0000    0    12.011  -15.627449    7.666997   18.615182
  42 C     6.0000    0    12.011  -17.245338    9.390389   20.146956
  43 C     6.0000    0    12.011  -13.493967    6.328712   19.604038
  44 C     6.0000    0    12.011  -12.676434    6.637795   22.140636
  45 C     6.0000    0    12.011  -10.270718    6.345209   23.020266
  46 C     6.0000    0    12.011   -9.555948    6.677291   25.570376
  47 C     6.0000    0    12.011  -11.171532    6.522824   27.580345
  48 C     6.0000    0    12.011  -10.383421    6.949846   30.069190
  49 C     6.0000    0    12.011  -11.784143    6.827940   32.246759
  50 C     6.0000    0    12.011  -14.449300    6.558238   32.738466
  51 C     6.0000    0    12.011  -16.453808    7.256548   31.239082
  52 C     6.0000    0    12.011  -19.002255    7.055557   31.994519
  53 N     7.0000    0    14.007  -21.115649    6.934104   32.474660
  54 C     6.0000    0    12.011  -16.338156    8.386208   28.833498
  55 N     7.0000    0    14.007  -16.469625    9.318542   26.874665
  56 C     6.0000    0    12.011  -14.705452    5.676057   35.350351
  57 C     6.0000    0    12.011  -12.309714    5.780861   36.539820
  58 C     6.0000    0    12.011  -10.414980    6.646809   34.683240
  59 O     8.0000    0    15.999   -8.187106    7.038209   35.041437
  60 C     6.0000    0    12.011  -11.932619    5.061291   39.003078
  61 C     6.0000    0    12.011  -14.019122    4.165486   40.357861
  62 C     6.0000    0    12.011  -16.399573    4.046641   39.150515
  63 C     6.0000    0    12.011  -16.783640    4.795407   36.661632
  64 S    16.0000    0    32.060  -18.708270    2.839068   41.151092
  65 C     6.0000    0    12.011  -16.470475    2.515282   43.548266
  66 C     6.0000    0    12.011  -14.117634    3.273648   42.891284
  67 Br   35.0000    0    79.900  -17.451224    1.195516   46.689501
  68 H     1.0000    0     1.008  -12.405353   10.773612   11.777246
  69 H     1.0000    0     1.008   -4.452214    7.195283   15.450325
  70 H     1.0000    0     1.008  -13.136545   12.826705   16.618592
  71 H     1.0000    0     1.008   -5.010722    3.658926    5.726002
  72 H     1.0000    0     1.008  -12.968775    5.936877    0.295100
  73 H     1.0000    0     1.008  -10.378414    1.970512   -1.700281
  74 H     1.0000    0     1.008   -6.103853    0.064685   -0.373939
  75 H     1.0000    0     1.008   -3.491231   -1.940220    2.260868
  76 H     1.0000    0     1.008   -2.139283   -3.766262    6.347552
  77 H     1.0000    0     1.008   -3.179899   -3.714521   11.089348
  78 H     1.0000    0     1.008   -4.771502   -2.821871   15.130527
  79 H     1.0000    0     1.008   -6.788010   -0.639767   18.978293
  80 H     1.0000    0     1.008   -9.968400    2.628212   20.133407
  81 H     1.0000    0     1.008  -17.383307    8.024911   14.897561
  82 H     1.0000    0     1.008  -18.757459   10.164667   18.992919
  83 H     1.0000    0     1.008  -16.138129   10.940588   20.922538
  84 H     1.0000    0     1.008  -18.076629    8.381068   21.735592
  85 H     1.0000    0     1.008  -14.086774    7.362940   23.434002
  86 H     1.0000    0     1.008   -8.750566    6.015905   21.694585
  87 H     1.0000    0     1.008   -7.577821    7.050663   25.939080
  88 H     1.0000    0     1.008  -13.103342    5.974615   27.241404
  89 H     1.0000    0     1.008   -8.381389    7.280850   30.372680
  90 H     1.0000    0     1.008  -10.083522    5.167588   39.854475
  91 H     1.0000    0     1.008  -18.632964    4.645570   35.824502
  92 H     1.0000    0     1.008  -12.513067    3.203010   44.134384

--------------------------------
INTERNAL COORDINATES (ANGSTROEM)
--------------------------------
 C      0   0   0     0.000000000000     0.00000000     0.00000000
 C      1   0   0     1.378233823703     0.00000000     0.00000000
 C      2   1   0     1.407804741219   123.65913815     0.00000000
 N      3   2   1     1.149178737969   175.02705914   135.20710657
 C      2   1   3     1.405127630573   126.13467152   176.56911787
 N      5   2   1     1.151095539302   175.77136599   172.73740656
 C      1   2   3     1.458048624841   124.34693411     8.63367072
 C      7   1   2     1.413575686301   108.68696120   184.44708075
 C      8   7   1     1.372371428951   122.68533395   179.71241577
 C      9   8   7     1.399700850503   117.84527294     0.37309062
 C     10   9   8     1.413298702504   118.96554221     0.79187546
 C      7   1   2     1.381674576845   130.99563618     5.60442643
 S     11  10   9     1.737113103370   111.50369379   178.87760379
 C     13  11  10     1.742196456919    90.24208321     1.58845716
 C     14  13  11     1.354118929415   113.94790207   358.58069043
 Br    14  13  11     1.876592033741   119.21004862   178.07084986
 C      8   7   1     1.481112561185   109.44916663   359.76595698
 O     17   8   7     1.210717696369   125.52895728   181.58404912
 C      1   2   3     1.442876924135   127.52796691   194.31378031
 C     19   1   2     1.376069876496   123.04495690     5.12353904
 C     20  19   1     1.408817369676   129.71589047   167.66842025
 O     21  20  19     1.352625225146   123.39871129    13.24478835
 C     22  21  20     1.326727305704   108.45822285   176.63016883
 C     23  22  21     1.362126806028   111.44693148     0.75821038
 C     21  20  19     1.407431418862   128.15036169   191.44360120
 N     25  21  20     1.371930923735   131.33944350     1.73524860
 C     26  25  21     1.361520672557   132.23264347    32.44292517
 C     27  26  25     1.362126741460   130.90760352    14.60701021
 C     28  27  26     1.426836022744   123.67952630   184.38998885
 C     29  28  27     1.355117370378   114.38985335   173.79067612
 C     30  29  28     1.417215222505   114.01442508     0.07523468
 S     31  30  29     1.754953743749   110.12660805     4.80144302
 C     31  30  29     1.377337258227   127.57903707   189.62515553
 C     33  31  30     1.413659356210   127.22452720   354.31284325
 C     34  33  31     1.358806726985   113.75217920   175.13500328
 C     35  34  33     1.417875615525   114.49150139   359.83477537
 S     36  35  34     1.752564181935   109.85851156     0.97052057
 C     36  35  34     1.372601342634   124.56525470   182.35881863
 C     38  36  35     1.399745693010   128.54959879   180.23812743
 S     39  38  36     1.743095089116   122.19282039    11.02485109
 C     40  39  38     1.725253465146    91.00334913   171.75245715
 C     41  40  39     1.356738160553   113.74818425   359.95225712
 C     42  41  40     1.490550327664   123.96970792   179.97229074
 C     39  38  36     1.409566897738   126.46489600   183.34583145
 C     44  39  38     1.419756343215   126.01750630    11.63425587
 C     45  44  39     1.364294785521   126.42973836    26.09724604
 C     46  45  44     1.412440732243   124.17592655   179.97055031
 C     47  46  45     1.367075531710   124.64097151    22.10783412
 C     48  47  46     1.399852672605   122.41453437   182.15234812
 C     49  48  47     1.371650405679   128.44849122   180.87937906
 C     50  49  48     1.441225851142   133.24671159   351.16128818
 C     51  50  49     1.375234089928   128.60991305   333.20122405
 C     52  51  50     1.410598640152   123.61694625   184.52483705
 N     53  52  51     1.148658508391   176.13170279   185.30227507
 C     52  51  50     1.407684767446   127.03580572     0.76574857
 N     55  52  51     1.150100563733   174.03284233   183.00808184
 C     51  50  49     1.465142543884   107.00171718   160.63202733
 C     57  51  50     1.416513783237   108.89963284     8.76355480
 C     58  57  51     1.476657906118   108.91748444   357.83751097
 O     59  58  57     1.211910648728   127.55344396   177.46811291
 C     58  57  51     1.372561787644   122.76925306   180.30306553
 C     61  58  57     1.399210943675   117.76573488     0.71761192
 C     62  61  58     1.413839476214   119.11740345   359.83808774
 C     57  51  50     1.381331938131   130.92241645   189.97819551
 S     63  62  61     1.738298846603   111.55093999   179.09516786
 C     65  63  62     1.743798071051    90.10764348     0.00000000
 C     66  65  63     1.353556979443   114.12199894     0.08811051
 Br    66  65  63     1.876230466947   119.55280147   180.29522504
 H      9   8   7     1.078600689134   120.86770540   180.41502347
 H     12   7   1     1.077136130765   122.85248021   359.81254876
 H     15  14  13     1.074466680777   123.93098632   180.44163691
 H     20  19   1     1.079862855042   117.24271657   346.69566628
 H     23  22  21     1.072437502375   117.28316335   180.55469935
 H     24  23  22     1.070657983952   127.40073125   179.67892532
 H     26  25  21     1.011914133264   112.99306868   205.65406643
 H     27  26  25     1.082518138047   113.13581226   192.97167589
 H     29  28  27     1.074489991857   121.01710706   356.89851191
 H     30  29  28     1.074286346790   124.28714006   183.31778745
 H     34  33  31     1.074363585757   121.93292746   355.64244568
 H     35  34  33     1.075425234733   124.43379155   180.68327812
 H     38  36  35     1.081521417865   115.36941105   358.05044055
 H     41  40  39     1.072504566843   118.58172689   180.41568032
 H     43  42  41     1.086788379309   110.36491892     2.70317471
 H     43  42  41     1.088428414458   110.91585731   241.90968286
 H     43  42  41     1.088811990658   110.59769925   123.07881633
 H     45  44  39     1.082900268584   115.36392703   199.38767470
 H     46  45  44     1.081482539341   119.40924571     6.20906107
 H     47  46  45     1.082983904266   116.97902928   201.10007101
 H     48  47  46     1.077665983735   118.67427561     4.81804319
 H     49  48  47     1.085755640326   117.12333717   355.61693781
 H     61  58  57     1.078708767045   120.93488456   180.11770744
 H     64  57  51     1.077137014776   122.78987097   359.96580126
 H     67  66  65     1.074753565614   124.00046925   180.09420298

---------------------------
INTERNAL COORDINATES (A.U.)
---------------------------
 C      0   0   0     0.000000000000     0.00000000     0.00000000
 C      1   0   0     2.604484475306     0.00000000     0.00000000
 C      2   1   0     2.660365410941   123.65913815     0.00000000
 N      3   2   1     2.171633093687   175.02705914   135.20710657
 C      2   1   3     2.655306404989   126.13467152   176.56911787
 N      5   2   1     2.175255323258   175.77136599   172.73740656
 C      1   2   3     2.755312590890   124.34693411     8.63367072
 C      7   1   2     2.671270916678   108.68696120   184.44708075
 C      8   7   1     2.593406154735   122.68533395   179.71241577
 C      9   8   7     2.645051276868   117.84527294     0.37309062
 C     10   9   8     2.670747493159   118.96554221     0.79187546
 C      7   1   2     2.610986556439   130.99563618     5.60442643
 S     11  10   9     3.282668029015   111.50369379   178.87760379
 C     13  11  10     3.292274175064    90.24208321     1.58845716
 C     14  13  11     2.558913929353   113.94790207   358.58069043
 Br    14  13  11     3.546245008869   119.21004862   178.07084986
 C      8   7   1     2.798897114150   109.44916663   359.76595698
 O     17   8   7     2.287924871629   125.52895728   181.58404912
 C      1   2   3     2.726642231569   127.52796691   194.31378031
 C     19   1   2     2.600395207716   123.04495690     5.12353904
 C     20  19   1     2.662279001398   129.71589047   167.66842025
 O     21  20  19     2.556091237359   123.39871129    13.24478835
 C     22  21  20     2.507151262175   108.45822285   176.63016883
 C     23  22  21     2.574046623066   111.44693148     0.75821038
 C     21  20  19     2.659659933925   128.15036169   191.44360120
 N     25  21  20     2.592573720516   131.33944350     1.73524860
 C     26  25  21     2.572901196805   132.23264347    32.44292517
 C     27  26  25     2.574046501050   130.90760352    14.60701021
 C     28  27  26     2.696329321000   123.67952630   184.38998885
 C     29  28  27     2.560800709334   114.38985335   173.79067612
 C     30  29  28     2.678148643359   114.01442508     0.07523468
 S     31  30  29     3.316381953386   110.12660805     4.80144302
 C     31  30  29     2.602790212095   127.57903707   189.62515553
 C     33  31  30     2.671429029892   127.22452720   354.31284325
 C     34  33  31     2.567772582932   113.75217920   175.13500328
 C     35  34  33     2.679396605307   114.49150139   359.83477537
 S     36  35  34     3.311866335976   109.85851156     0.97052057
 C     36  35  34     2.593840628630   124.56525470   182.35881863
 C     38  36  35     2.645136016925   128.54959879   180.23812743
 S     39  38  36     3.293972343812   122.19282039    11.02485109
 C     40  39  38     3.260256560726    91.00334913   171.75245715
 C     41  40  39     2.563863558885   113.74818425   359.95225712
 C     42  41  40     2.816731908112   123.96970792   179.97229074
 C     39  38  36     2.663695404167   126.46489600   183.34583145
 C     44  39  38     2.682950665574   126.01750630    11.63425587
 C     45  44  39     2.578143510572   126.42973836    26.09724604
 C     46  45  44     2.669126164335   124.17592655   179.97055031
 C     47  46  45     2.583398359317   124.64097151    22.10783412
 C     48  47  46     2.645338179062   122.41453437   182.15234812
 C     49  48  47     2.592043618216   128.44849122   180.87937906
 C     50  49  48     2.723522155786   133.24671159   351.16128818
 C     51  50  49     2.598815799996   128.60991305   333.20122405
 C     52  51  50     2.665645114770   123.61694625   184.52483705
 N     53  52  51     2.170650002258   176.13170279   185.30227507
 C     52  51  50     2.660138693366   127.03580572     0.76574857
 N     55  52  51     2.173375091925   174.03284233   183.00808184
 C     51  50  49     2.768718155098   107.00171718   160.63202733
 C     57  51  50     2.676823115242   108.89963284     8.76355480
 C     58  57  51     2.790479036052   108.91748444   357.83751097
 O     59  58  57     2.290179224879   127.55344396   177.46811291
 C     58  57  51     2.593765880532   122.76925306   180.30306553
 C     61  58  57     2.644125487131   117.76573488     0.71761192
 C     62  61  58     2.671769407370   119.11740345   359.83808774
 C     57  51  50     2.610339063106   130.92241645   189.97819551
 S     63  62  61     3.284908758990   111.55093999   179.09516786
 C     65  63  62     3.295300787146    90.10764348     0.00000000
 C     66  65  63     2.557851997806   114.12199894     0.08811051
 Br    66  65  63     3.545561746649   119.55280147   180.29522504
 H      9   8   7     2.038259910322   120.86770540   180.41502347
 H     12   7   1     2.035492296098   122.85248021   359.81254876
 H     15  14  13     2.030447766692   123.93098632   180.44163691
 H     20  19   1     2.040645058224   117.24271657   346.69566628
 H     23  22  21     2.026613175235   117.28316335   180.55469935
 H     24  23  22     2.023250372765   127.40073125   179.67892532
 H     26  25  21     1.912240582914   112.99306868   205.65406643
 H     27  26  25     2.045662815911   113.13581226   192.97167589
 H     29  28  27     2.030491818248   121.01710706   356.89851191
 H     30  29  28     2.030106984844   124.28714006   183.31778745
 H     34  33  31     2.030252945338   121.93292746   355.64244568
 H     35  34  33     2.032259171153   124.43379155   180.68327812
 H     38  36  35     2.043779287734   115.36941105   358.05044055
 H     41  40  39     2.026739908714   118.58172689   180.41568032
 H     43  42  41     2.053732402421   110.36491892     2.70317471
 H     43  42  41     2.056831619704   110.91585731   241.90968286
 H     43  42  41     2.057556473673   110.59769925   123.07881633
 H     45  44  39     2.046384937974   115.36392703   199.38767470
 H     46  45  44     2.043705817973   119.40924571     6.20906107
 H     47  46  45     2.046542986508   116.97902928   201.10007101
 H     48  47  46     2.036493573102   118.67427561     4.81804319
 H     49  48  47     2.051780808577   117.12333717   355.61693781
 H     61  58  57     2.038464147975   120.93488456   180.11770744
 H     64  57  51     2.035493966636   122.78987097   359.96580126
 H     67  66  65     2.030989900466   124.00046925   180.09420298

---------------------
BASIS SET INFORMATION
---------------------
There are 6 groups of distinct atoms

 Group   1 Type C   : 7s4p1d contracted to 3s2p1d pattern {511/31/1}
 Group   2 Type N   : 7s4p1d contracted to 3s2p1d pattern {511/31/1}
 Group   3 Type S   : 10s7p1d contracted to 4s3p1d pattern {5311/511/1}
 Group   4 Type Br  : 14s10p6d contracted to 5s4p3d pattern {63311/5311/411}
 Group   5 Type O   : 7s4p1d contracted to 3s2p1d pattern {511/31/1}
 Group   6 Type H   : 4s1p contracted to 2s1p pattern {31/1}

Atom   0C    basis set group =>   1
Atom   1C    basis set group =>   1
Atom   2C    basis set group =>   1
Atom   3N    basis set group =>   2
Atom   4C    basis set group =>   1
Atom   5N    basis set group =>   2
Atom   6C    basis set group =>   1
Atom   7C    basis set group =>   1
Atom   8C    basis set group =>   1
Atom   9C    basis set group =>   1
Atom  10C    basis set group =>   1
Atom  11C    basis set group =>   1
Atom  12S    basis set group =>   3
Atom  13C    basis set group =>   1
Atom  14C    basis set group =>   1
Atom  15Br   basis set group =>   4
Atom  16C    basis set group =>   1
Atom  17O    basis set group =>   5
Atom  18C    basis set group =>   1
Atom  19C    basis set group =>   1
Atom  20C    basis set group =>   1
Atom  21O    basis set group =>   5
Atom  22C    basis set group =>   1
Atom  23C    basis set group =>   1
Atom  24C    basis set group =>   1
Atom  25N    basis set group =>   2
Atom  26C    basis set group =>   1
Atom  27C    basis set group =>   1
Atom  28C    basis set group =>   1
Atom  29C    basis set group =>   1
Atom  30C    basis set group =>   1
Atom  31S    basis set group =>   3
Atom  32C    basis set group =>   1
Atom  33C    basis set group =>   1
Atom  34C    basis set group =>   1
Atom  35C    basis set group =>   1
Atom  36S    basis set group =>   3
Atom  37C    basis set group =>   1
Atom  38C    basis set group =>   1
Atom  39S    basis set group =>   3
Atom  40C    basis set group =>   1
Atom  41C    basis set group =>   1
Atom  42C    basis set group =>   1
Atom  43C    basis set group =>   1
Atom  44C    basis set group =>   1
Atom  45C    basis set group =>   1
Atom  46C    basis set group =>   1
Atom  47C    basis set group =>   1
Atom  48C    basis set group =>   1
Atom  49C    basis set group =>   1
Atom  50C    basis set group =>   1
Atom  51C    basis set group =>   1
Atom  52C    basis set group =>   1
Atom  53N    basis set group =>   2
Atom  54C    basis set group =>   1
Atom  55N    basis set group =>   2
Atom  56C    basis set group =>   1
Atom  57C    basis set group =>   1
Atom  58C    basis set group =>   1
Atom  59O    basis set group =>   5
Atom  60C    basis set group =>   1
Atom  61C    basis set group =>   1
Atom  62C    basis set group =>   1
Atom  63C    basis set group =>   1
Atom  64S    basis set group =>   3
Atom  65C    basis set group =>   1
Atom  66C    basis set group =>   1
Atom  67Br   basis set group =>   4
Atom  68H    basis set group =>   6
Atom  69H    basis set group =>   6
Atom  70H    basis set group =>   6
Atom  71H    basis set group =>   6
Atom  72H    basis set group =>   6
Atom  73H    basis set group =>   6
Atom  74H    basis set group =>   6
Atom  75H    basis set group =>   6
Atom  76H    basis set group =>   6
Atom  77H    basis set group =>   6
Atom  78H    basis set group =>   6
Atom  79H    basis set group =>   6
Atom  80H    basis set group =>   6
Atom  81H    basis set group =>   6
Atom  82H    basis set group =>   6
Atom  83H    basis set group =>   6
Atom  84H    basis set group =>   6
Atom  85H    basis set group =>   6
Atom  86H    basis set group =>   6
Atom  87H    basis set group =>   6
Atom  88H    basis set group =>   6
Atom  89H    basis set group =>   6
Atom  90H    basis set group =>   6
Atom  91H    basis set group =>   6
Atom  92H    basis set group =>   6
---------------------------------
AUXILIARY/J BASIS SET INFORMATION
---------------------------------
There are 6 groups of distinct atoms

 Group   1 Type C   : 12s5p4d2f1g contracted to 6s4p3d1f1g pattern {711111/2111/211/2/1}
 Group   2 Type N   : 12s5p4d2f1g contracted to 6s4p3d1f1g pattern {711111/2111/211/2/1}
 Group   3 Type S   : 14s5p5d2f1g contracted to 8s4p3d1f1g pattern {71111111/2111/311/2/1}
 Group   4 Type Br  : 19s5p5d3f1g contracted to 8s4p3d2f1g pattern {121111111/2111/311/21/1}
 Group   5 Type O   : 12s5p4d2f1g contracted to 6s4p3d1f1g pattern {711111/2111/211/2/1}
 Group   6 Type H   : 5s2p1d contracted to 3s1p1d pattern {311/2/1}

Atom   0C    basis set group =>   1
Atom   1C    basis set group =>   1
Atom   2C    basis set group =>   1
Atom   3N    basis set group =>   2
Atom   4C    basis set group =>   1
Atom   5N    basis set group =>   2
Atom   6C    basis set group =>   1
Atom   7C    basis set group =>   1
Atom   8C    basis set group =>   1
Atom   9C    basis set group =>   1
Atom  10C    basis set group =>   1
Atom  11C    basis set group =>   1
Atom  12S    basis set group =>   3
Atom  13C    basis set group =>   1
Atom  14C    basis set group =>   1
Atom  15Br   basis set group =>   4
Atom  16C    basis set group =>   1
Atom  17O    basis set group =>   5
Atom  18C    basis set group =>   1
Atom  19C    basis set group =>   1
Atom  20C    basis set group =>   1
Atom  21O    basis set group =>   5
Atom  22C    basis set group =>   1
Atom  23C    basis set group =>   1
Atom  24C    basis set group =>   1
Atom  25N    basis set group =>   2
Atom  26C    basis set group =>   1
Atom  27C    basis set group =>   1
Atom  28C    basis set group =>   1
Atom  29C    basis set group =>   1
Atom  30C    basis set group =>   1
Atom  31S    basis set group =>   3
Atom  32C    basis set group =>   1
Atom  33C    basis set group =>   1
Atom  34C    basis set group =>   1
Atom  35C    basis set group =>   1
Atom  36S    basis set group =>   3
Atom  37C    basis set group =>   1
Atom  38C    basis set group =>   1
Atom  39S    basis set group =>   3
Atom  40C    basis set group =>   1
Atom  41C    basis set group =>   1
Atom  42C    basis set group =>   1
Atom  43C    basis set group =>   1
Atom  44C    basis set group =>   1
Atom  45C    basis set group =>   1
Atom  46C    basis set group =>   1
Atom  47C    basis set group =>   1
Atom  48C    basis set group =>   1
Atom  49C    basis set group =>   1
Atom  50C    basis set group =>   1
Atom  51C    basis set group =>   1
Atom  52C    basis set group =>   1
Atom  53N    basis set group =>   2
Atom  54C    basis set group =>   1
Atom  55N    basis set group =>   2
Atom  56C    basis set group =>   1
Atom  57C    basis set group =>   1
Atom  58C    basis set group =>   1
Atom  59O    basis set group =>   5
Atom  60C    basis set group =>   1
Atom  61C    basis set group =>   1
Atom  62C    basis set group =>   1
Atom  63C    basis set group =>   1
Atom  64S    basis set group =>   3
Atom  65C    basis set group =>   1
Atom  66C    basis set group =>   1
Atom  67Br   basis set group =>   4
Atom  68H    basis set group =>   6
Atom  69H    basis set group =>   6
Atom  70H    basis set group =>   6
Atom  71H    basis set group =>   6
Atom  72H    basis set group =>   6
Atom  73H    basis set group =>   6
Atom  74H    basis set group =>   6
Atom  75H    basis set group =>   6
Atom  76H    basis set group =>   6
Atom  77H    basis set group =>   6
Atom  78H    basis set group =>   6
Atom  79H    basis set group =>   6
Atom  80H    basis set group =>   6
Atom  81H    basis set group =>   6
Atom  82H    basis set group =>   6
Atom  83H    basis set group =>   6
Atom  84H    basis set group =>   6
Atom  85H    basis set group =>   6
Atom  86H    basis set group =>   6
Atom  87H    basis set group =>   6
Atom  88H    basis set group =>   6
Atom  89H    basis set group =>   6
Atom  90H    basis set group =>   6
Atom  91H    basis set group =>   6
Atom  92H    basis set group =>   6


           ************************************************************
           *        Program running with 6 parallel MPI-processes     *
           *              working on a common directory               *
           ************************************************************
------------------------------------------------------------------------------
                           ORCA GTO INTEGRAL CALCULATION
                           -- RI-GTO INTEGRALS CHOSEN --
------------------------------------------------------------------------------

                         BASIS SET STATISTICS AND STARTUP INFO

Gaussian basis set:
 # of primitive gaussian shells          ... 1007
 # of primitive gaussian functions       ... 1967
 # of contracted shells                  ...  505
 # of contracted basis functions         ... 1133
 Highest angular momentum                ...    2
 Maximum contraction depth               ...    6
Auxiliary gaussian basis set:
 # of primitive gaussian shells          ... 1865
 # of primitive gaussian functions       ... 5233
 # of contracted shells                  ... 1161
 # of contracted aux-basis functions     ... 3635
 Highest angular momentum                ...    4
 Maximum contraction depth               ...   12
Ratio of auxiliary to basis functions    ...  3.21
Integral package used                  ... LIBINT
 One Electron integrals                  ... done
 Ordering auxiliary basis shells         ... done
 Integral threshhold             Thresh  ...  2.500e-11
 Primitive cut-off               TCut    ...  2.500e-12
 Pre-screening matrix                    ... done
 Shell pair data                         ... 
 Ordering of the shell pairs             ... done (   0.010 sec) 51360 of 127765 pairs
 Determination of significant pairs      ... done (   0.000 sec)
 Creation of shell pair data             ... done (   0.007 sec)
 Storage of shell pair data              ... done (   0.010 sec)
 Shell pair data done in (   0.027 sec)
 Computing two index integrals           ... done
 Cholesky decomposition of the V-matrix  ... done


Timings:
 Total evaluation time                   ...   2.240 sec (  0.037 min)
 One electron matrix time                ...   0.588 sec (  0.010 min) = 26.3%
 Schwartz matrix evaluation time         ...   0.741 sec (  0.012 min) = 33.1%
 Two index repulsion integral time       ...   0.303 sec (  0.005 min) = 13.5%
 Cholesky decomposition of V             ...   0.564 sec (  0.009 min) = 25.2%
 Three index repulsion integral time     ...   0.000 sec (  0.000 min) =  0.0%



           ************************************************************
           *        Program running with 6 parallel MPI-processes     *
           *              working on a common directory               *
           ************************************************************
-------------------------------------------------------------------------------
                                 ORCA SCF
-------------------------------------------------------------------------------

------------
SCF SETTINGS
------------
Hamiltonian:
 Density Functional     Method          .... DFT(GTOs)
 Exchange Functional    Exchange        .... WB88
 Correlation Functional Correlation     .... LYP
 LDA part of GGA corr.  LDAOpt          .... VWN-5
 Gradients option       PostSCFGGA      .... off
 Hybrid DFT is turned on
   Fraction HF Exchange ScalHFX         ....  0.190000
   Scaling of DF-GGA-X  ScalDFX         ....  0.350000
   Scaling of DF-GGA-C  ScalDFC         ....  0.810000
   Scaling of DF-LDA-C  ScalLDAC        ....  1.000000
   Perturbative correction              ....  0.000000
   Density functional embedding theory  .... OFF
 Long-range corrected/Screened/Range-Separated Hybrid DFT is turned on
   Amount of maximum screened exact exchange              ....  0.460000
   Range separation parameter mu (erf(mu*r12)/r12)        ....  0.330000
 RI-approximation to the Coulomb term is turned on
   Number of auxiliary basis functions  .... 3635
   RIJ-COSX (HFX calculated with COS-X)).... on


General Settings:
 Integral files         IntName         .... xtbopt
 Hartree-Fock type      HFTyp           .... RHF
 Total Charge           Charge          ....    0
 Multiplicity           Mult            ....    1
 Number of Electrons    NEL             ....  552
 Basis Dimension        Dim             .... 1133
 Nuclear Repulsion      ENuc            ....  12484.8515758651 Eh

Convergence Acceleration:
 DIIS                   CNVDIIS         .... on
   Start iteration      DIISMaxIt       ....    12
   Startup error        DIISStart       ....  0.200000
   # of expansion vecs  DIISMaxEq       ....     5
   Bias factor          DIISBfac        ....   1.050
   Max. coefficient     DIISMaxC        ....  10.000
 Newton-Raphson         CNVNR           .... off
 SOSCF                  CNVSOSCF        .... on
   Start iteration      SOSCFMaxIt      ....   150
   Startup grad/error   SOSCFStart      ....  0.003300
 Level Shifting         CNVShift        .... on
   Level shift para.    LevelShift      ....    0.2500
   Turn off err/grad.   ShiftErr        ....    0.0010
 Zerner damping         CNVZerner       .... off
 Static damping         CNVDamp         .... on
   Fraction old density DampFac         ....    0.7000
   Max. Damping (<1)    DampMax         ....    0.9800
   Min. Damping (>=0)   DampMin         ....    0.0000
   Turn off err/grad.   DampErr         ....    0.1000
 Fernandez-Rico         CNVRico         .... off

SCF Procedure:
 Maximum # iterations   MaxIter         ....   125
 SCF integral mode      SCFMode         .... Direct
   Integral package                     .... LIBINT
 Reset frequency        DirectResetFreq ....    20
 Integral Threshold     Thresh          ....  2.500e-11 Eh
 Primitive CutOff       TCut            ....  2.500e-12 Eh

Convergence Tolerance:
 Convergence Check Mode ConvCheckMode   .... Total+1el-Energy
 Convergence forced     ConvForced      .... 1
 Energy Change          TolE            ....  1.000e-08 Eh
 1-El. energy change                    ....  1.000e-05 Eh
 Orbital Gradient       TolG            ....  1.000e-05
 Orbital Rotation angle TolX            ....  1.000e-05
 DIIS Error             TolErr          ....  5.000e-07


Diagonalization of the overlap matrix:
Smallest eigenvalue                        ... 1.952e-04
Time for diagonalization                   ...    0.199 sec
Threshold for overlap eigenvalues          ... 1.000e-08
Number of eigenvalues below threshold      ... 0
Time for construction of square roots      ...    0.145 sec
Total time needed                          ...    0.347 sec

-------------------
DFT GRID GENERATION
-------------------

General Integration Accuracy     IntAcc      ...  4.670
Radial Grid Type                 RadialGrid  ... Gauss-Chebyshev
Angular Grid (max. acc.)         AngularGrid ... Lebedev-302
Angular grid pruning method      GridPruning ... 3 (G Style)
Weight generation scheme         WeightScheme... Becke
Basis function cutoff            BFCut       ...    1.0000e-11
Integration weight cutoff        WCut        ...    1.0000e-14
Grids for H and He will be reduced by one unit

# of grid points (after initial pruning)     ... 517244 (   0.0 sec)
# of grid points (after weights+screening)   ... 438423 (   4.4 sec)
nearest neighbour list constructed           ...    0.0 sec
Grid point re-assignment to atoms done       ...    0.1 sec
Grid point division into batches done        ...    1.6 sec
Reduced shell lists constructed in    2.9 sec

Total number of grid points                  ...   438423
Total number of batches                      ...     6894
Average number of points per batch           ...       63
Average number of grid points per atom       ...     4714
Average number of shells per batch           ...   132.14 (26.17%)
Average number of basis functions per batch  ...   273.75 (24.16%)
Average number of large shells per batch     ...    75.12 (56.85%)
Average number of large basis fcns per batch ...   158.53 (57.91%)
Maximum spatial batch extension              ...  17.24, 19.59, 18.57 au
Average spatial batch extension              ...   0.32,  0.33,  0.31 au

Time for grid setup =    7.447 sec

------------------------------
INITIAL GUESS: MODEL POTENTIAL
------------------------------
Loading Hartree-Fock densities                     ... done
Calculating cut-offs                               ... done
Setting up the integral package                    ... done
Initializing the effective Hamiltonian             ... done
Starting the Coulomb interaction                   ... done (   1.5 sec)
Reading the grid                                   ... done
Mapping shells                                     ... done
Starting the XC term evaluation                    ... done (   1.4 sec)
  promolecular density results
     # of electrons  =    551.987937881
     EX              =   -638.891086739
     EC              =    -20.237335746
     EX+EC           =   -659.128422485
Transforming the Hamiltonian                       ... done (   0.1 sec)
Diagonalizing the Hamiltonian                      ... done (   0.2 sec)
Back transforming the eigenvectors                 ... done (   0.1 sec)
Now organizing SCF variables                       ... done
                      ------------------
                      INITIAL GUESS DONE (  10.8 sec)
                      ------------------
--------------------
COSX GRID GENERATION
--------------------

General Integration Accuracy     IntAcc      ...  3.340
Radial Grid Type                 RadialGrid  ... Gauss-Chebyshev
Angular Grid (max. acc.)         AngularGrid ... Lebedev-50
Angular grid pruning method      GridPruning ... 3 (G Style)
Weight generation scheme         WeightScheme... Becke
Basis function cutoff            BFCut       ...    1.0000e-11
Integration weight cutoff        WCut        ...    1.0000e-14
Grids for H and He will be reduced by one unit

# of grid points (after initial pruning)     ...  48924 (   0.0 sec)
# of grid points (after weights+screening)   ...  43495 (   0.4 sec)
nearest neighbour list constructed           ...    0.0 sec
Grid point re-assignment to atoms done       ...    0.0 sec
Grid point division into batches done        ...    0.0 sec
Reduced shell lists constructed in    0.2 sec

Total number of grid points                  ...    43495
Total number of batches                      ...      735
Average number of points per batch           ...       59
Average number of grid points per atom       ...      468
Average number of shells per batch           ...   161.27 (31.93%)
Average number of basis functions per batch  ...   339.59 (29.97%)
Average number of large shells per batch     ...    91.88 (56.97%)
Average number of large basis fcns per batch ...   195.99 (57.71%)
Maximum spatial batch extension              ...  18.19, 17.50, 14.37 au
Average spatial batch extension              ...   0.68,  0.73,  0.59 au

Overlap Fitting                  UseSFitting ... on
Constructing numerical overlap ... done (      0.1 sec)
Inverting numerical overlap    ... done (      0.1 sec)
Obtaining analytic overlap     ... done (      0.0 sec)
Final contraction and storage  ... done (      0.1 sec)


General Integration Accuracy     IntAcc      ...  3.670
Radial Grid Type                 RadialGrid  ... Gauss-Chebyshev
Angular Grid (max. acc.)         AngularGrid ... Lebedev-50
Angular grid pruning method      GridPruning ... 3 (G Style)
Weight generation scheme         WeightScheme... Becke
Basis function cutoff            BFCut       ...    1.0000e-11
Integration weight cutoff        WCut        ...    1.0000e-14
Grids for H and He will be reduced by one unit

# of grid points (after initial pruning)     ...  60800 (   0.0 sec)
# of grid points (after weights+screening)   ...  53836 (   0.5 sec)
nearest neighbour list constructed           ...    0.0 sec
Grid point re-assignment to atoms done       ...    0.0 sec
Grid point division into batches done        ...    0.0 sec
Reduced shell lists constructed in    0.2 sec

Total number of grid points                  ...    53836
Total number of batches                      ...      887
Average number of points per batch           ...       60
Average number of grid points per atom       ...      579
Average number of shells per batch           ...   157.74 (31.24%)
Average number of basis functions per batch  ...   330.76 (29.19%)
Average number of large shells per batch     ...    89.93 (57.01%)
Average number of large basis fcns per batch ...   191.96 (58.04%)
Maximum spatial batch extension              ...  18.88, 18.56, 14.78 au
Average spatial batch extension              ...   0.62,  0.67,  0.56 au

Overlap Fitting                  UseSFitting ... on
Constructing numerical overlap ... done (      0.1 sec)
Inverting numerical overlap    ... done (      0.1 sec)
Obtaining analytic overlap     ... done (      0.0 sec)
Final contraction and storage  ... done (      0.1 sec)


General Integration Accuracy     IntAcc      ...  4.010
Radial Grid Type                 RadialGrid  ... Gauss-Chebyshev
Angular Grid (max. acc.)         AngularGrid ... Lebedev-110
Angular grid pruning method      GridPruning ... 3 (G Style)
Weight generation scheme         WeightScheme... Becke
Basis function cutoff            BFCut       ...    1.0000e-11
Integration weight cutoff        WCut        ...    1.0000e-14
Grids for H and He will be reduced by one unit

# of grid points (after initial pruning)     ... 119434 (   0.0 sec)
# of grid points (after weights+screening)   ... 104587 (   1.0 sec)
nearest neighbour list constructed           ...    0.0 sec
Grid point re-assignment to atoms done       ...    0.0 sec
Grid point division into batches done        ...    0.1 sec
Reduced shell lists constructed in    0.4 sec

Total number of grid points                  ...   104587
Total number of batches                      ...     1676
Average number of points per batch           ...       62
Average number of grid points per atom       ...     1125
Average number of shells per batch           ...   149.75 (29.65%)
Average number of basis functions per batch  ...   313.70 (27.69%)
Average number of large shells per batch     ...    85.99 (57.42%)
Average number of large basis fcns per batch ...   182.75 (58.26%)
Maximum spatial batch extension              ...  15.23, 16.99, 14.63 au
Average spatial batch extension              ...   0.50,  0.52,  0.45 au

Overlap Fitting                  UseSFitting ... on
Constructing numerical overlap ... done (      0.2 sec)
Inverting numerical overlap    ... done (      0.1 sec)
Obtaining analytic overlap     ... done (      0.0 sec)
Final contraction and storage  ... done (      0.1 sec)

Time for X-Grid setup             =    3.691 sec
--------------
SCF ITERATIONS
--------------
ITER       Energy         Delta-E        Max-DP      RMS-DP      [F,P]     Damp
               ***  Starting incremental Fock matrix formation  ***
  0  -9667.6551895518   0.000000000000 0.07941401  0.00103045  0.2324342 0.7000
  1  -9668.2490896082  -0.593900056390 0.04801644  0.00073233  0.1022200 0.7000
                               ***Turning on DIIS***
  2  -9668.5036329683  -0.254543360166 0.10573652  0.00136148  0.0444584 0.0000
  3  -9668.9195583850  -0.415925416697 0.05847652  0.00058723  0.0572071 0.0000
  4  -9669.0018817403  -0.082323355276 0.01551858  0.00020400  0.0227804 0.0000
  5  -9669.0098148151  -0.007933074770 0.00802104  0.00009556  0.0083696 0.0000
  6  -9669.0119241999  -0.002109384843 0.00653405  0.00006194  0.0026087 0.0000
  7  -9669.0130433980  -0.001119198112 0.00622661  0.00010857  0.0009757 0.0000
               *** Restarting incremental Fock matrix formation ***
                                   *** Resetting DIIS ***
                      *** Initiating the SOSCF procedure ***
                           *** Shutting down DIIS ***
                      *** Re-Reading the Fockian *** 
                      *** Removing any level shift *** 
ITER      Energy       Delta-E        Grad      Rot      Max-DP    RMS-DP
  8  -9669.01442239  -0.0013789963  0.001797  0.001797  0.003417  0.000030
               *** Restarting incremental Fock matrix formation ***
  9  -9669.01457768  -0.0001552901  0.001559  0.012278  0.001977  0.000040
 10  -9669.01472543  -0.0001477466  0.000816  0.016102  0.003121  0.000048
 11  -9669.01485203  -0.0001265970  0.000339  0.001498  0.001672  0.000013
 12  -9669.01485485  -0.0000028196  0.000326  0.001123  0.000869  0.000007
 13  -9669.01486353  -0.0000086790  0.000082  0.000437  0.000345  0.000004
 14  -9669.01486337   0.0000001564  0.000068  0.000191  0.000174  0.000002
 15  -9669.01486448  -0.0000011059  0.000016  0.000122  0.000121  0.000001
 16  -9669.01486446   0.0000000117  0.000014  0.000069  0.000069  0.000001
 17  -9669.01486452  -0.0000000603  0.000004  0.000044  0.000025  0.000000
 18  -9669.01486451   0.0000000127  0.000004  0.000031  0.000015  0.000000
                  ***Gradient check signals convergence***
              ***Rediagonalizing the Fockian in SOSCF/NRSCF***

               *****************************************************
               *                     SUCCESS                       *
               *           SCF CONVERGED AFTER  19 CYCLES          *
               *****************************************************

Setting up the final grid:

General Integration Accuracy     IntAcc      ...  5.010
Radial Grid Type                 RadialGrid  ... Gauss-Chebyshev
Angular Grid (max. acc.)         AngularGrid ... Lebedev-434
Angular grid pruning method      GridPruning ... 3 (G Style)
Weight generation scheme         WeightScheme... Becke
Basis function cutoff            BFCut       ...    1.0000e-11
Integration weight cutoff        WCut        ...    1.0000e-14
Grids for H and He will be reduced by one unit

# of grid points (after initial pruning)     ... 910418 (   0.0 sec)
# of grid points (after weights+screening)   ... 768906 (   7.4 sec)
nearest neighbour list constructed           ...    0.0 sec
Grid point re-assignment to atoms done       ...    0.1 sec
Grid point division into batches done        ...    4.9 sec
Reduced shell lists constructed in    7.0 sec

Total number of grid points                  ...   768906
Total number of batches                      ...    12057
Average number of points per batch           ...       63
Average number of grid points per atom       ...     8268
Average number of shells per batch           ...   127.55 (25.26%)
Average number of basis functions per batch  ...   263.06 (23.22%)
Average number of large shells per batch     ...    72.50 (56.84%)
Average number of large basis fcns per batch ...   152.74 (58.06%)
Maximum spatial batch extension              ...  17.81, 20.00, 14.85 au
Average spatial batch extension              ...   0.26,  0.27,  0.25 au

Final grid set up in   14.7 sec
Final integration                            ... done (   3.0 sec)
Change in XC energy                          ...    -0.000265639
Integrated number of electrons               ...   551.999870541
Previous integrated no of electrons          ...   551.999908370
Old exchange energy                            =   -166.232798454 Eh
New exchange energy                            =   -166.230294886 Eh
Exchange energy change after final integration =      0.002503567 Eh
Total energy after final integration           =  -9669.012626569 Eh
Final COS-X integration done in                =    67.706 sec

----------------
TOTAL SCF ENERGY
----------------

Total Energy       :        -9669.01262657 Eh         -263107.20968 eV

Components:
Nuclear Repulsion  :        12484.85157587 Eh          339730.08292 eV
Electronic Energy  :       -22153.86420243 Eh         -602837.29260 eV
One Electron Energy:       -38239.81626276 Eh        -1040558.30147 eV
Two Electron Energy:        16085.95206032 Eh          437721.00887 eV

Virial components:
Potential Energy   :       -19303.67139949 Eh         -525279.60348 eV
Kinetic Energy     :         9634.65877292 Eh          262172.39380 eV
Virial Ratio       :            2.00356565


DFT components:
N(Alpha)           :      275.999935270330 electrons
N(Beta)            :      275.999935270330 electrons
N(Total)           :      551.999870540661 electrons
E(XC)              :     -501.062507555847 Eh       
DFET-embed. en.    :        0.000000000000 Eh       

---------------
SCF CONVERGENCE
---------------

  Last Energy change         ...    1.4432e-08  Tolerance :   1.0000e-08
  Last MAX-Density change    ...    9.3259e-15  Tolerance :   1.0000e-07
  Last RMS-Density change    ...    3.9998e-17  Tolerance :   5.0000e-09
  Last Orbital Gradient      ...    1.4399e-06  Tolerance :   1.0000e-05
  Last Orbital Rotation      ...    1.8895e-05  Tolerance :   1.0000e-05

             **** THE GBW FILE WAS UPDATED (xtbopt.gbw) ****
             **** DENSITY FILE WAS UPDATED (xtbopt.scfp) ****
             **** ENERGY FILE WAS UPDATED (xtbopt.en.tmp) ****
             **** THE GBW FILE WAS UPDATED (xtbopt.gbw) ****
             **** DENSITY FILE WAS UPDATED (xtbopt.scfp) ****
----------------
ORBITAL ENERGIES
----------------

  NO   OCC          E(Eh)            E(eV) 
   0   2.0000    -482.879198    -13139.8110 
   1   2.0000    -482.876423    -13139.7355 
   2   2.0000     -88.967597     -2420.9314 
   3   2.0000     -88.964601     -2420.8499 
   4   2.0000     -88.958465     -2420.6829 
   5   2.0000     -88.950767     -2420.4734 
   6   2.0000     -88.949336     -2420.4345 
   7   2.0000     -62.556902     -1702.2598 
   8   2.0000     -62.553601     -1702.1700 
   9   2.0000     -56.390843     -1534.4728 
  10   2.0000     -56.388145     -1534.3994 
  11   2.0000     -56.388107     -1534.3984 
  12   2.0000     -56.387611     -1534.3849 
  13   2.0000     -56.384855     -1534.3099 
  14   2.0000     -56.384782     -1534.3079 
  15   2.0000     -19.299429      -525.1642 
  16   2.0000     -19.200834      -522.4813 
  17   2.0000     -19.194217      -522.3012 
  18   2.0000     -14.486839      -394.2069 
  19   2.0000     -14.410327      -392.1249 
  20   2.0000     -14.407276      -392.0419 
  21   2.0000     -14.405050      -391.9813 
  22   2.0000     -14.402855      -391.9216 
  23   2.0000     -10.351279      -281.6726 
  24   2.0000     -10.351094      -281.6676 
  25   2.0000     -10.350744      -281.6581 
  26   2.0000     -10.348379      -281.5937 
  27   2.0000     -10.347267      -281.5635 
  28   2.0000     -10.346292      -281.5369 
  29   2.0000     -10.345181      -281.5067 
  30   2.0000     -10.340126      -281.3691 
  31   2.0000     -10.332605      -281.1645 
  32   2.0000     -10.331217      -281.1267 
  33   2.0000     -10.326499      -280.9983 
  34   2.0000     -10.323892      -280.9274 
  35   2.0000     -10.316499      -280.7262 
  36   2.0000     -10.316417      -280.7240 
  37   2.0000     -10.315921      -280.7105 
  38   2.0000     -10.315451      -280.6977 
  39   2.0000     -10.311962      -280.6028 
  40   2.0000     -10.311610      -280.5932 
  41   2.0000     -10.311280      -280.5842 
  42   2.0000     -10.309095      -280.5247 
  43   2.0000     -10.308896      -280.5193 
  44   2.0000     -10.308291      -280.5028 
  45   2.0000     -10.307512      -280.4816 
  46   2.0000     -10.305115      -280.4164 
  47   2.0000     -10.300485      -280.2904 
  48   2.0000     -10.298578      -280.2386 
  49   2.0000     -10.298302      -280.2310 
  50   2.0000     -10.295963      -280.1674 
  51   2.0000     -10.293921      -280.1118 
  52   2.0000     -10.292998      -280.0867 
  53   2.0000     -10.292001      -280.0596 
  54   2.0000     -10.291381      -280.0427 
  55   2.0000     -10.291355      -280.0420 
  56   2.0000     -10.290761      -280.0258 
  57   2.0000     -10.290016      -280.0056 
  58   2.0000     -10.289152      -279.9821 
  59   2.0000     -10.285786      -279.8905 
  60   2.0000     -10.285126      -279.8725 
  61   2.0000     -10.284539      -279.8565 
  62   2.0000     -10.283707      -279.8339 
  63   2.0000     -10.282209      -279.7931 
  64   2.0000     -10.281580      -279.7760 
  65   2.0000     -10.281461      -279.7728 
  66   2.0000     -10.280728      -279.7528 
  67   2.0000     -10.280181      -279.7379 
  68   2.0000     -10.279273      -279.7132 
  69   2.0000     -10.278827      -279.7011 
  70   2.0000     -10.273918      -279.5675 
  71   2.0000     -10.273631      -279.5597 
  72   2.0000     -10.272799      -279.5371 
  73   2.0000     -10.272406      -279.5264 
  74   2.0000     -10.269625      -279.4507 
  75   2.0000     -10.253906      -279.0230 
  76   2.0000      -8.786328      -239.0881 
  77   2.0000      -8.782835      -238.9931 
  78   2.0000      -8.063583      -219.4212 
  79   2.0000      -8.059965      -219.3228 
  80   2.0000      -8.053353      -219.1429 
  81   2.0000      -8.045591      -218.9317 
  82   2.0000      -8.044449      -218.9006 
  83   2.0000      -6.622568      -180.2092 
  84   2.0000      -6.619045      -180.1134 
  85   2.0000      -6.608079      -179.8150 
  86   2.0000      -6.607911      -179.8104 
  87   2.0000      -6.604589      -179.7200 
  88   2.0000      -6.604431      -179.7157 
  89   2.0000      -6.033272      -164.1737 
  90   2.0000      -6.029705      -164.0766 
  91   2.0000      -6.029017      -164.0579 
  92   2.0000      -6.025501      -163.9622 
  93   2.0000      -6.024803      -163.9432 
  94   2.0000      -6.023074      -163.8962 
  95   2.0000      -6.021150      -163.8438 
  96   2.0000      -6.018883      -163.7821 
  97   2.0000      -6.014934      -163.6747 
  98   2.0000      -6.014578      -163.6650 
  99   2.0000      -6.014221      -163.6553 
 100   2.0000      -6.010624      -163.5574 
 101   2.0000      -6.010181      -163.5453 
 102   2.0000      -6.007864      -163.4823 
 103   2.0000      -6.005471      -163.4172 
 104   2.0000      -2.738477       -74.5177 
 105   2.0000      -2.734944       -74.4216 
 106   2.0000      -2.734362       -74.4058 
 107   2.0000      -2.734242       -74.4025 
 108   2.0000      -2.730873       -74.3108 
 109   2.0000      -2.730754       -74.3076 
 110   2.0000      -2.722718       -74.0889 
 111   2.0000      -2.722708       -74.0887 
 112   2.0000      -2.719272       -73.9952 
 113   2.0000      -2.719235       -73.9941 
 114   2.0000      -1.228006       -33.4157 
 115   2.0000      -1.115481       -30.3538 
 116   2.0000      -1.110786       -30.2260 
 117   2.0000      -1.080136       -29.3920 
 118   2.0000      -1.013784       -27.5865 
 119   2.0000      -1.010776       -27.5046 
 120   2.0000      -1.005749       -27.3678 
 121   2.0000      -1.003308       -27.3014 
 122   2.0000      -0.996093       -27.1051 
 123   2.0000      -0.986615       -26.8472 
 124   2.0000      -0.985014       -26.8036 
 125   2.0000      -0.981906       -26.7190 
 126   2.0000      -0.979209       -26.6456 
 127   2.0000      -0.975973       -26.5576 
 128   2.0000      -0.969748       -26.3882 
 129   2.0000      -0.934957       -25.4415 
 130   2.0000      -0.932618       -25.3778 
 131   2.0000      -0.920181       -25.0394 
 132   2.0000      -0.918618       -24.9969 
 133   2.0000      -0.905796       -24.6480 
 134   2.0000      -0.899583       -24.4789 
 135   2.0000      -0.895372       -24.3643 
 136   2.0000      -0.892363       -24.2824 
 137   2.0000      -0.889036       -24.1919 
 138   2.0000      -0.876906       -23.8618 
 139   2.0000      -0.872247       -23.7350 
 140   2.0000      -0.868209       -23.6252 
 141   2.0000      -0.866063       -23.5668 
 142   2.0000      -0.864204       -23.5162 
 143   2.0000      -0.847698       -23.0670 
 144   2.0000      -0.841837       -22.9075 
 145   2.0000      -0.830323       -22.5942 
 146   2.0000      -0.824490       -22.4355 
 147   2.0000      -0.821132       -22.3441 
 148   2.0000      -0.820162       -22.3177 
 149   2.0000      -0.814913       -22.1749 
 150   2.0000      -0.800680       -21.7876 
 151   2.0000      -0.785002       -21.3610 
 152   2.0000      -0.765786       -20.8381 
 153   2.0000      -0.758833       -20.6489 
 154   2.0000      -0.754520       -20.5315 
 155   2.0000      -0.745527       -20.2868 
 156   2.0000      -0.744631       -20.2624 
 157   2.0000      -0.736705       -20.0468 
 158   2.0000      -0.726390       -19.7661 
 159   2.0000      -0.715421       -19.4676 
 160   2.0000      -0.702939       -19.1280 
 161   2.0000      -0.694226       -18.8909 
 162   2.0000      -0.691389       -18.8137 
 163   2.0000      -0.678710       -18.4686 
 164   2.0000      -0.677450       -18.4344 
 165   2.0000      -0.677182       -18.4271 
 166   2.0000      -0.666004       -18.1229 
 167   2.0000      -0.661558       -18.0019 
 168   2.0000      -0.656184       -17.8557 
 169   2.0000      -0.647527       -17.6201 
 170   2.0000      -0.645911       -17.5761 
 171   2.0000      -0.641560       -17.4577 
 172   2.0000      -0.635390       -17.2898 
 173   2.0000      -0.631330       -17.1794 
 174   2.0000      -0.626914       -17.0592 
 175   2.0000      -0.614250       -16.7146 
 176   2.0000      -0.613209       -16.6863 
 177   2.0000      -0.608152       -16.5487 
 178   2.0000      -0.604789       -16.4572 
 179   2.0000      -0.601866       -16.3776 
 180   2.0000      -0.595067       -16.1926 
 181   2.0000      -0.591711       -16.1013 
 182   2.0000      -0.587082       -15.9753 
 183   2.0000      -0.585422       -15.9301 
 184   2.0000      -0.580792       -15.8042 
 185   2.0000      -0.575204       -15.6521 
 186   2.0000      -0.573169       -15.5967 
 187   2.0000      -0.564459       -15.3597 
 188   2.0000      -0.556868       -15.1532 
 189   2.0000      -0.552575       -15.0363 
 190   2.0000      -0.547532       -14.8991 
 191   2.0000      -0.538853       -14.6629 
 192   2.0000      -0.536799       -14.6070 
 193   2.0000      -0.533134       -14.5073 
 194   2.0000      -0.530603       -14.4384 
 195   2.0000      -0.530190       -14.4272 
 196   2.0000      -0.527291       -14.3483 
 197   2.0000      -0.524561       -14.2740 
 198   2.0000      -0.522802       -14.2262 
 199   2.0000      -0.519673       -14.1410 
 200   2.0000      -0.517888       -14.0924 
 201   2.0000      -0.516191       -14.0463 
 202   2.0000      -0.511326       -13.9139 
 203   2.0000      -0.508872       -13.8471 
 204   2.0000      -0.504403       -13.7255 
 205   2.0000      -0.502063       -13.6618 
 206   2.0000      -0.501041       -13.6340 
 207   2.0000      -0.498146       -13.5552 
 208   2.0000      -0.496278       -13.5044 
 209   2.0000      -0.493116       -13.4184 
 210   2.0000      -0.490363       -13.3435 
 211   2.0000      -0.488700       -13.2982 
 212   2.0000      -0.486048       -13.2260 
 213   2.0000      -0.485028       -13.1983 
 214   2.0000      -0.484210       -13.1760 
 215   2.0000      -0.483806       -13.1650 
 216   2.0000      -0.480005       -13.0616 
 217   2.0000      -0.478489       -13.0204 
 218   2.0000      -0.476157       -12.9569 
 219   2.0000      -0.469675       -12.7805 
 220   2.0000      -0.466107       -12.6834 
 221   2.0000      -0.464975       -12.6526 
 222   2.0000      -0.462837       -12.5944 
 223   2.0000      -0.461759       -12.5651 
 224   2.0000      -0.455280       -12.3888 
 225   2.0000      -0.450442       -12.2572 
 226   2.0000      -0.449889       -12.2421 
 227   2.0000      -0.448263       -12.1979 
 228   2.0000      -0.445909       -12.1338 
 229   2.0000      -0.444471       -12.0947 
 230   2.0000      -0.442848       -12.0505 
 231   2.0000      -0.442144       -12.0313 
 232   2.0000      -0.439720       -11.9654 
 233   2.0000      -0.437214       -11.8972 
 234   2.0000      -0.436537       -11.8788 
 235   2.0000      -0.434343       -11.8191 
 236   2.0000      -0.434083       -11.8120 
 237   2.0000      -0.432039       -11.7564 
 238   2.0000      -0.431159       -11.7324 
 239   2.0000      -0.429369       -11.6837 
 240   2.0000      -0.427613       -11.6359 
 241   2.0000      -0.423524       -11.5247 
 242   2.0000      -0.418310       -11.3828 
 243   2.0000      -0.416282       -11.3276 
 244   2.0000      -0.414235       -11.2719 
 245   2.0000      -0.412856       -11.2344 
 246   2.0000      -0.409977       -11.1561 
 247   2.0000      -0.406276       -11.0553 
 248   2.0000      -0.399917       -10.8823 
 249   2.0000      -0.398965       -10.8564 
 250   2.0000      -0.397242       -10.8095 
 251   2.0000      -0.393476       -10.7070 
 252   2.0000      -0.390295       -10.6205 
 253   2.0000      -0.380521       -10.3545 
 254   2.0000      -0.379144       -10.3170 
 255   2.0000      -0.374715       -10.1965 
 256   2.0000      -0.368665       -10.0319 
 257   2.0000      -0.366252        -9.9662 
 258   2.0000      -0.363230        -9.8840 
 259   2.0000      -0.361439        -9.8353 
 260   2.0000      -0.347378        -9.4526 
 261   2.0000      -0.341436        -9.2909 
 262   2.0000      -0.335381        -9.1262 
 263   2.0000      -0.328063        -8.9270 
 264   2.0000      -0.324691        -8.8353 
 265   2.0000      -0.319319        -8.6891 
 266   2.0000      -0.315481        -8.5847 
 267   2.0000      -0.312818        -8.5122 
 268   2.0000      -0.306481        -8.3398 
 269   2.0000      -0.299720        -8.1558 
 270   2.0000      -0.290642        -7.9088 
 271   2.0000      -0.286369        -7.7925 
 272   2.0000      -0.279291        -7.5999 
 273   2.0000      -0.270750        -7.3675 
 274   2.0000      -0.256950        -6.9920 
 275   2.0000      -0.208266        -5.6672 
 276   0.0000      -0.093180        -2.5356 
 277   0.0000      -0.079845        -2.1727 
 278   0.0000      -0.063070        -1.7162 
 279   0.0000      -0.047440        -1.2909 
 280   0.0000      -0.037802        -1.0286 
 281   0.0000      -0.011331        -0.3083 
 282   0.0000       0.001428         0.0389 
 283   0.0000       0.005899         0.1605 
 284   0.0000       0.021132         0.5750 
 285   0.0000       0.031317         0.8522 
 286   0.0000       0.037554         1.0219 
 287   0.0000       0.043535         1.1846 
 288   0.0000       0.044421         1.2088 
 289   0.0000       0.045935         1.2500 
 290   0.0000       0.048043         1.3073 
 291   0.0000       0.048564         1.3215 
 292   0.0000       0.050649         1.3782 
 293   0.0000       0.054847         1.4925 
 294   0.0000       0.063201         1.7198 
 295   0.0000       0.063870         1.7380 
 296   0.0000       0.066107         1.7989 
 297   0.0000       0.076933         2.0935 
 298   0.0000       0.085492         2.3264 
 299   0.0000       0.087120         2.3706 
 300   0.0000       0.091085         2.4785 
 301   0.0000       0.094154         2.5621 
 302   0.0000       0.095899         2.6095 
 303   0.0000       0.099799         2.7157 
 304   0.0000       0.100446         2.7333 
 305   0.0000       0.107682         2.9302 
 306   0.0000       0.111519         3.0346 
 307   0.0000       0.113531         3.0893 
 308   0.0000       0.117995         3.2108 
 309   0.0000       0.119708         3.2574 
 310   0.0000       0.121560         3.3078 
 311   0.0000       0.123631         3.3642 
 312   0.0000       0.124257         3.3812 
 313   0.0000       0.126637         3.4460 
 314   0.0000       0.129005         3.5104 
 315   0.0000       0.131665         3.5828 
 316   0.0000       0.139523         3.7966 
 317   0.0000       0.140714         3.8290 
 318   0.0000       0.144826         3.9409 
 319   0.0000       0.148013         4.0276 
 320   0.0000       0.150010         4.0820 
 321   0.0000       0.151065         4.1107 
[...]
  32   4.177     296.8   0.873730   0.793168  310.907370  300.075757     0.19 (  84->  92)    0.14 (  84->  91)    0.13 (  81->  89)
  33   4.225     293.4   0.128843   0.115145  -175.106535  -177.365182     0.11 (  84->  92)    0.10 (  84->  91)    0.10 (  86->  93)
  34   4.263     290.8   0.028691   0.025526  158.540606  164.767704     0.17 (  80->  89)    0.14 (  76->  89)    0.07 (  80->  90)
  35   4.323     286.8   0.027926   0.027543  16.037894  14.479336     0.20 (  83->  91)    0.12 (  83->  92)    0.12 (  83->  93)
  36   4.380     283.1   0.018133   0.016662  60.420400  59.474658     0.19 (  79->  89)    0.11 (  85->  93)    0.05 (  85->  91)
  37   4.401     281.7   0.035579   0.032792   2.049052   3.583274     0.35 (  79->  89)    0.11 (  79->  93)    0.11 (  85->  93)
  38   4.427     280.0   0.128428   0.117193  -10.551745  -12.003014     0.17 (  78->  89)    0.09 (  80->  90)    0.08 (  78->  90)
  39   4.445     279.0   0.011836   0.011183  -9.262623  -10.635609     0.11 (  85->  93)    0.11 (  88->  98)    0.09 (  76->  89)
  40   4.496     275.8   0.017823   0.014959  51.488693  53.475851     0.29 (  88->  98)    0.15 (  88->  99)    0.07 (  78->  90)
  41   4.520     274.3   0.057192   0.053054  -56.216977  -55.476040     0.42 (  82->  91)    0.07 (  75->  89)    0.05 (  82->  92)
  42   4.581     270.6   0.081204   0.072104  -14.448959  -16.945207     0.23 (  75->  90)    0.07 (  84->  90)    0.06 (  75->  89)
  43   4.598     269.7   0.002099   0.002161  24.259254  19.236259     0.31 (  84->  90)    0.08 (  76->  90)    0.05 (  86->  92)
  44   4.614     268.7   0.016399   0.013535  -35.947314  -29.465585     0.33 (  88-> 104)    0.33 (  88-> 103)    0.12 (  88-> 102)
  45   4.629     267.8   0.033413   0.028334  -9.954072  -10.092460     0.24 (  86->  92)    0.09 (  82->  91)    0.07 (  83->  93)
  46   4.675     265.2   0.034101   0.030292  49.657672  49.063417     0.35 (  83->  93)    0.14 (  85->  92)    0.09 (  83->  91)
  47   4.701     263.7   0.129995   0.113981  -273.528714  -259.966590     0.10 (  84->  91)    0.08 (  76->  90)    0.07 (  80->  90)
  48   4.739     261.6   0.013217   0.009766  -1.891342   7.901906     0.21 (  88->  97)    0.08 (  86->  92)    0.07 (  75->  90)
  49   4.766     260.1   0.104191   0.092684  49.412884  45.892582     0.13 (  86->  92)    0.08 (  83->  93)    0.06 (  80->  91)
  50   4.789     258.9   0.025951   0.026375  -91.946126  -62.740231     0.46 (  88-> 105)    0.08 (  88-> 103)    0.05 (  84->  90)
  51   4.809     257.8   0.064530   0.052139  -0.346892  -33.337715     0.18 (  84->  90)    0.16 (  80->  90)    0.14 (  88-> 105)
  52   4.848     255.8   0.023179   0.017238  61.560858  51.181573     0.24 (  75->  90)    0.22 (  75->  89)    0.11 (  75->  91)
  53   4.880     254.1   0.095032   0.080440  75.614358  61.498528     0.38 (  74->  89)    0.10 (  88->  97)    0.07 (  74->  90)
  54   4.923     251.9   0.051098   0.038000  286.677665  283.570250     0.18 (  80->  91)    0.17 (  87->  94)    0.14 (  81->  92)
  55   4.961     249.9   0.010938   0.009544  -69.491086  -63.954195     0.21 (  84->  91)    0.17 (  87->  95)    0.13 (  87->  94)
  56   4.995     248.2   0.039142   0.034593  48.837153  43.072615     0.17 (  87->  95)    0.14 (  88-> 106)    0.12 (  88-> 103)

-----------------------------------------------------------------------------
         ABSORPTION SPECTRUM VIA TRANSITION ELECTRIC DIPOLE MOMENTS
-----------------------------------------------------------------------------
State   Energy  Wavelength   fosc         T2         TX        TY        TZ  
        (cm-1)    (nm)                  (au**2)     (au)      (au)      (au) 
-----------------------------------------------------------------------------
   0    9927.5   1007.3   0.313770630  10.40512   1.34709   0.09370  -2.92945
   1   11850.9    843.8   0.775870242  21.55321  -1.15228   1.30953   4.30239
   2   17489.0    571.8   0.022488660   0.42332  -0.00158  -0.53980  -0.36323
   3   20152.5    496.2   0.079015218   1.29080  -0.04157   0.07518  -1.13288
   4   21105.2    473.8   0.522168622   8.14510  -0.75724   1.00969   2.55973
   5   22674.2    441.0   0.211573434   3.07188  -0.58754  -1.29457  -1.02506
   6   23569.3    424.3   0.035995464   0.50278   0.30222  -0.57383  -0.28663
   7   23770.6    420.7   0.049761595   0.68917  -0.61824   0.40064   0.38268
   8   25522.1    391.8   0.028619385   0.36916  -0.43119  -0.22500   0.36416
   9   25793.4    387.7   0.078459545   1.00141  -0.31635   0.74327  -0.59067
  10   26965.0    370.9   0.281005571   3.43075  -0.74264   0.55200   1.60453
  11   27304.3    366.2   0.078615645   0.94788   0.47289  -0.34191   0.77933
  12   27618.4    362.1   0.173851879   2.07232   0.11343   0.83323   1.16841
  13   27773.8    360.1   0.004996637   0.05923   0.09995  -0.21776  -0.04264
  14   27957.7    357.7   0.072729033   0.85641  -0.12807   0.32276  -0.85781
  15   28612.2    349.5   0.107006981   1.23122   0.01681   0.37223   1.04517
  16   29230.9    342.1   0.100528256   1.13220   0.45317  -0.06313   0.96065
  17   29455.0    339.5   0.314730054   3.51767   0.21156   0.10587  -1.86057
  18   29738.0    336.3   0.069251756   0.76665  -0.04202   0.43833  -0.75680
  19   29981.5    333.5   0.157705565   1.73169  -0.28325   0.05011  -1.28411
  20   30401.5    328.9   0.387497043   4.19613  -1.31012   1.36782   0.78025
  21   30466.3    328.2   0.009175816   0.09915   0.06002  -0.04352   0.30603
  22   30590.3    326.9   0.028015331   0.30150  -0.32355   0.30206   0.32492
  23   30836.3    324.3   0.070598113   0.75371  -0.31798   0.04269  -0.80671
  24   31377.2    318.7   0.060492440   0.63469  -0.15158   0.53907   0.56667
  25   31712.7    315.3   0.011820181   0.12271   0.06123   0.29637  -0.17641
  26   31863.8    313.8   0.116670204   1.20542  -0.54992   0.63549  -0.70651
  27   32322.3    309.4   0.026822674   0.27320  -0.23808  -0.26396  -0.38320
  28   32441.1    308.3   0.093998839   0.95390   0.74230  -0.41118  -0.48356
  29   32549.5    307.2   0.083890608   0.84849  -0.12168   0.24850  -0.87859
  30   33083.8    302.3   0.066508186   0.66181  -0.17778   0.00537   0.79384
  31   33169.5    301.5   0.240018568   2.38222   0.89555  -0.63512  -1.08482
  32   33689.5    296.8   0.873730415   8.53804   0.72681  -0.88918   2.68685
  33   34077.7    293.4   0.128843472   1.24471   0.09426  -0.82839   0.74134
  34   34385.1    290.8   0.028691454   0.27470  -0.17018  -0.49340  -0.04792
  35   34866.7    286.8   0.027925978   0.26368   0.15325   0.18547   0.45364
  36   35328.0    283.1   0.018132568   0.16897   0.30869   0.03651  -0.26897
  37   35496.2    281.7   0.035578919   0.32998   0.42248  -0.22415   0.31819
  38   35709.9    280.0   0.128427532   1.18398  -0.48674   0.40599  -0.88445
  39   35847.9    279.0   0.011835505   0.10869  -0.29781   0.07299   0.12114
  40   36263.9    275.8   0.017822646   0.16180   0.08754   0.20297   0.33606
  41   36453.0    274.3   0.057192448   0.51651  -0.41355   0.07161  -0.58340
  42   36948.6    270.6   0.081203787   0.72353  -0.65620   0.40711   0.35664
  43   37084.7    269.7   0.002098854   0.01863   0.02960   0.13167  -0.02047
  44   37215.6    268.7   0.016399117   0.14507  -0.12707  -0.28955  -0.21232
  45   37335.5    267.8   0.033412781   0.29462  -0.42574   0.20353   0.26823
  46   37709.1    265.2   0.034100578   0.29771   0.13036   0.33055  -0.41407
  47   37916.9    263.7   0.129994612   1.12867  -0.90025   0.53642  -0.17458
  48   38224.5    261.6   0.013216973   0.11383  -0.12736  -0.29496   0.10300
  49   38444.0    260.1   0.104191095   0.89223  -0.75694   0.54923  -0.13276
  50   38624.6    258.9   0.025950564   0.22119   0.44229  -0.15989   0.00094
  51   38784.3    257.8   0.064529992   0.54775  -0.66685  -0.13269  -0.29232
  52   39099.4    255.8   0.023179349   0.19517  -0.44038   0.03043   0.01741
  53   39358.4    254.1   0.095031868   0.79489  -0.41389   0.07594  -0.78602
  54   39705.6    251.9   0.051097671   0.42367  -0.50009  -0.41660  -0.00456
  55   40012.2    249.9   0.010938009   0.09000   0.27302  -0.08151  -0.09387
  56   40283.5    248.2   0.039141656   0.31988  -0.03724   0.40646  -0.39152

-----------------------------------------------------------------------------
         ABSORPTION SPECTRUM VIA TRANSITION VELOCITY DIPOLE MOMENTS
-----------------------------------------------------------------------------
State   Energy  Wavelength   fosc         P2         PX        PY        PZ  
        (cm-1)    (nm)                  (au**2)     (au)      (au)      (au) 
-----------------------------------------------------------------------------
   0    9927.5   1007.3   0.581951872   0.03949   0.08232  -0.00137  -0.18085
   1   11850.9    843.8   1.277330905   0.10346  -0.08073   0.09338   0.29702
   2   17489.0    571.8   0.019517391   0.00233  -0.00239  -0.04423  -0.01926
   3   20152.5    496.2   0.080968174   0.01115  -0.00633   0.01131  -0.10480
   4   21105.2    473.8   0.617192339   0.08903  -0.08069   0.10782   0.26625
   5   22674.2    441.0   0.235082622   0.03643  -0.06043  -0.13930  -0.11565
   6   23569.3    424.3   0.045241288   0.00729   0.03552  -0.06756  -0.03822
   7   23770.6    420.7   0.055138880   0.00896  -0.06935   0.04573   0.04535
   8   25522.1    391.8   0.027769923   0.00484  -0.05188  -0.02603   0.03839
   9   25793.4    387.7   0.081382458   0.01435  -0.03866   0.08829  -0.07111
  10   26965.0    370.9   0.292994874   0.05400  -0.09226   0.07024   0.20137
  11   27304.3    366.2   0.076851632   0.01434   0.06006  -0.03974   0.09568
  12   27618.4    362.1   0.176058470   0.03323   0.01179   0.10534   0.14832
  13   27773.8    360.1   0.006125357   0.00116   0.01306  -0.03096  -0.00582
  14   27957.7    357.7   0.063772130   0.01219  -0.02135   0.04081  -0.10032
  15   28612.2    349.5   0.106703455   0.02087   0.00062   0.05063   0.13529
  16   29230.9    342.1   0.100153623   0.02001   0.05975  -0.00812   0.12795
  17   29455.0    339.5   0.289952820   0.05837   0.02356   0.01636  -0.23989
  18   29738.0    336.3   0.067822273   0.01378  -0.00492   0.05931  -0.10120
  19   29981.5    333.5   0.142925926   0.02929  -0.03896   0.00547  -0.16655
  20   30401.5    328.9   0.392269193   0.08151  -0.18380   0.18950   0.10868
  21   30466.3    328.2   0.010683028   0.00222   0.01087  -0.00517   0.04560
  22   30590.3    326.9   0.027199500   0.00569  -0.04615   0.04026   0.04400
  23   30836.3    324.3   0.062533739   0.01318  -0.04032   0.00366  -0.10743
  24   31377.2    318.7   0.061385822   0.01316  -0.02104   0.07598   0.08335
  25   31712.7    315.3   0.010991706   0.00238   0.01321   0.04190  -0.02127
  26   31863.8    313.8   0.108885410   0.02371  -0.07658   0.08925  -0.09941
  27   32322.3    309.4   0.026413899   0.00584  -0.03474  -0.03732  -0.05688
  28   32441.1    308.3   0.087292894   0.01935   0.10611  -0.05810  -0.06870
  29   32549.5    307.2   0.077137518   0.01716  -0.01744   0.03638  -0.12463
  30   33083.8    302.3   0.060186715   0.01361  -0.02638   0.00114   0.11363
  31   33169.5    301.5   0.223563630   0.05068   0.13258  -0.09383  -0.15588
  32   33689.5    296.8   0.793168354   0.18263   0.10948  -0.13196   0.39144
  33   34077.7    293.4   0.115145032   0.02682   0.01513  -0.12511   0.10458
  34   34385.1    290.8   0.025526130   0.00600  -0.01816  -0.07504  -0.00616
  35   34866.7    286.8   0.027542897   0.00656   0.02354   0.02817   0.07222
  36   35328.0    283.1   0.016661842   0.00402   0.04575   0.00622  -0.04348
  37   35496.2    281.7   0.032792037   0.00796   0.06601  -0.03412   0.04933
  38   35709.9    280.0   0.117193238   0.02860  -0.07871   0.06533  -0.13468
  39   35847.9    279.0   0.011183292   0.00274  -0.04869   0.01076   0.01591
  40   36263.9    275.8   0.014958941   0.00371   0.01316   0.03428   0.04857
  41   36453.0    274.3   0.053054294   0.01322  -0.06739   0.01267  -0.09228
  42   36948.6    270.6   0.072103822   0.01821  -0.10381   0.06661   0.05473
  43   37084.7    269.7   0.002161276   0.00055   0.00879   0.02169  -0.00037
  44   37215.6    268.7   0.013535237   0.00344  -0.01607  -0.04520  -0.03379
  45   37335.5    267.8   0.028333985   0.00723  -0.06652   0.03310   0.04135
  46   37709.1    265.2   0.030292108   0.00781   0.02021   0.05521  -0.06596
  47   37916.9    263.7   0.113981155   0.02954  -0.14530   0.08732  -0.02830
  48   38224.5    261.6   0.009765873   0.00255  -0.01465  -0.04592   0.01509
  49   38444.0    260.1   0.092684345   0.02435  -0.12514   0.09114  -0.01965
  50   38624.6    258.9   0.026374892   0.00696   0.08153  -0.01758  -0.00232
  51   38784.3    257.8   0.052138975   0.01382  -0.10531  -0.01598  -0.04974
  52   39099.4    255.8   0.017237600   0.00461  -0.06754   0.00544   0.00386
  53   39358.4    254.1   0.080440024   0.02164  -0.06687   0.01392  -0.13028
  54   39705.6    251.9   0.037999778   0.01031  -0.07326  -0.07031   0.00107
  55   40012.2    249.9   0.009543927   0.00261   0.04602  -0.01369  -0.01747
  56   40283.5    248.2   0.034593499   0.00952  -0.00480   0.06946  -0.06838

-------------------------------------------------------------------
                             CD SPECTRUM
-------------------------------------------------------------------
State   Energy Wavelength       R         MX        MY        MZ   
        (cm-1)   (nm)       (1e40*cgs)   (au)      (au)      (au)  
-------------------------------------------------------------------
   0    9927.5   1007.3    461.53265  -1.24286  -0.00813   0.09659
   1   11850.9    843.8    -640.04597   0.13832  -1.01439   0.97690
   2   17489.0    571.8     81.34700   1.57899   0.51440   0.17874
   3   20152.5    496.2    122.69385   1.84436   0.30692   0.41215
   4   21105.2    473.8    -216.85857   0.08744  -0.92774   0.75122
   5   22674.2    441.0    215.49234  -0.41377   2.31010  -1.78848
   6   23569.3    424.3    -67.83881  -1.52612  -0.99663  -0.61795
   7   23770.6    420.7    -75.35566   0.61775   1.51067   0.25183
   8   25522.1    391.8     -7.17157  -1.15975   0.76838  -0.81492
   9   25793.4    387.7    254.29905   1.08453  -0.27834   0.89532
  10   26965.0    370.9    -120.07407  -0.85498   0.44171  -0.23021
  11   27304.3    366.2     56.40141  -1.69981  -1.89562  -0.10724
  12   27618.4    362.1    -195.06192   1.20621  -0.38960   0.86898
  13   27773.8    360.1    -29.12193  -0.40815  -0.75099  -0.01877
  14   27957.7    357.7    -29.72051   2.74340   2.72569   0.46900
  15   28612.2    349.5     16.51493  -0.28125  -1.33976   0.41463
  16   29230.9    342.1    -30.54394   0.01605  -1.93039   0.00046
  17   29455.0    339.5    158.05948   2.05836   1.29507   0.66814
  18   29738.0    336.3    157.75799   1.82223  -0.23334   0.64800
  19   29981.5    333.5    -26.37206   0.80146   1.13990  -0.21942
  20   30401.5    328.9      4.29523   1.21108   0.80978   0.59058
  21   30466.3    328.2      2.86711  -0.61143  -0.34898   0.03054
  22   30590.3    326.9     -2.10266   0.49918   0.11091   0.42141
  23   30836.3    324.3     68.62202   1.73729   3.38047  -0.14503
  24   31377.2    318.7     61.47713   0.09872  -0.86604   0.39002
  25   31712.7    315.3     20.45605   0.31510  -0.10410   0.42640
  26   31863.8    313.8     36.78343   1.22739   0.88312   0.05985
  27   32322.3    309.4     83.04883   0.35879   1.87140  -0.59256
  28   32441.1    308.3    -80.52816  -0.39794  -1.69334   0.12253
  29   32549.5    307.2     -0.61828   2.44589   2.49077   0.36278
  30   33083.8    302.3    -15.22451  -0.43491   1.04264  -0.02309
  31   33169.5    301.5     39.04569  -0.21821  -1.03254   0.57706
  32   33689.5    296.8    310.90737  -5.46419  -6.77838  -1.25602
  33   34077.7    293.4    -175.10653  -4.19490  -2.39369  -1.13938
  34   34385.1    290.8    158.54061  -0.80761   1.72703  -0.87858
  35   34866.7    286.8     16.03789   0.25133  -0.94647   0.15207
  36   35328.0    283.1     60.42040  -0.24788  -0.63765   0.58191
  37   35496.2    281.7      2.04905  -0.73294  -1.15507   0.13214
  38   35709.9    280.0    -10.55174   0.92565   1.62875   0.18762
  39   35847.9    279.0     -9.26262  -0.16099   0.56859  -0.41402
  40   36263.9    275.8     51.48869  -0.28949  -1.16691   0.13022
  41   36453.0    274.3    -56.21698   0.62551   1.93956  -0.61413
  42   36948.6    270.6    -14.44896   0.41191   0.96012  -0.16623
  43   37084.7    269.7     24.25925   0.52741  -0.84321   0.36653
  44   37215.6    268.7    -35.94731  -0.78404   0.20819  -0.53290
  45   37335.5    267.8     -9.95407  -0.06528   0.41425  -0.26051
  46   37709.1    265.2     49.65767   1.30039  -0.57920   0.45579
  47   37916.9    263.7    -273.52871   1.33192   4.35539  -0.13258
  48   38224.5    261.6     -1.89134  -1.45555   0.43621  -0.47281
  49   38444.0    260.1     49.41288   1.22478   1.31636   0.04155
  50   38624.6    258.9    -91.94613   0.14605  -2.03345   0.35529
  51   38784.3    257.8     -0.34689  -0.56875   4.45293  -0.72879
  52   39099.4    255.8     61.56086   0.71601   1.77605   0.00666
  53   39358.4    254.1     75.61436   1.43196   2.91911  -0.06389
  54   39705.6    251.9    286.67767  -0.90345   4.01759  -1.26119
  55   40012.2    249.9    -69.49109   0.69236  -1.40513   0.09326
  56   40283.5    248.2     48.83715   1.96057   0.45356   0.81353

sTD-DFT done

Total run time:        3.086 sec

           *** ORCA-CIS/TD-DFT FINISHED WITHOUT ERROR ***

-------------------------   --------------------
FINAL SINGLE POINT ENERGY     -9669.012626569440
-------------------------   --------------------


                            ***************************************
                            *     ORCA property calculations      *
                            ***************************************

                                    ---------------------
                                    Active property flags
                                    ---------------------
   (+) Dipole Moment


------------------------------------------------------------------------------
                       ORCA ELECTRIC PROPERTIES CALCULATION
------------------------------------------------------------------------------

Dipole Moment Calculation                       ... on
Quadrupole Moment Calculation                   ... off
Polarizability Calculation                      ... off
GBWName                                         ... xtbopt.gbw
Electron density file                           ... xtbopt.scfp
The origin for moment calculation is the CENTER OF MASS  = (-10.970217,  5.282965 21.167796)

-------------
DIPOLE MOMENT
-------------
                                X             Y             Z
Electronic contribution:    -40.48493      26.27684     167.58467
Nuclear contribution   :     40.97332     -28.14104    -171.34022
                        -----------------------------------------
Total Dipole Moment    :      0.48839      -1.86420      -3.75555
                        -----------------------------------------
Magnitude (a.u.)       :      4.22112
Magnitude (Debye)      :     10.72925



--------------------
Rotational spectrum 
--------------------
 
Rotational constants in cm-1:     0.002074     0.000279     0.000267 
Rotational constants in MHz :    62.185661     8.375525     8.012366 

 Dipole components along the rotational axes: 
x,y,z [a.u.] :    -3.790968     1.569532    -0.991477 
x,y,z [Debye]:    -9.635875     3.989433    -2.520133 

 

Timings for individual modules:

Sum of individual times         ...      744.211 sec (=  12.404 min)
GTO integral calculation        ...        2.885 sec (=   0.048 min)   0.4 %
SCF iterations                  ...      737.522 sec (=  12.292 min)  99.1 %
CIS module                      ...        3.804 sec (=   0.063 min)   0.5 %
                             ****ORCA TERMINATED NORMALLY****
TOTAL RUN TIME: 0 days 0 hours 12 minutes 25 seconds 234 msec
