
                                 *****************
                                 * O   R   C   A *
                                 *****************

           --- An Ab Initio, DFT and Semiempirical electronic structure package ---

                  #######################################################
                  #                        -***-                        #
                  #          Department of theory and spectroscopy      #
                  #               Directorship: Frank Neese             #
                  #        Max Planck Institute fuer Kohlenforschung    #
                  #                Kaiser Wilhelm Platz 1               #
                  #                 D-45470 Muelheim/Ruhr               #
                  #                      Germany                        #
                  #                                                     #
                  #                  All rights reserved                #
                  #                        -***-                        #
                  #######################################################


                         Program Version 4.2.0 -  RELEASE  -


 With contributions from (in alphabetic order):
   Daniel Aravena         : Magnetic Suceptibility
   Michael Atanasov       : Ab Initio Ligand Field Theory (pilot matlab implementation)
   Alexander A. Auer      : GIAO ZORA, VPT2
   Ute Becker             : Parallelization
   Giovanni Bistoni       : ED, misc. LED, open-shell LED, HFLED
   Martin Brehm           : Molecular dynamics
   Dmytro Bykov           : SCF Hessian
   Vijay G. Chilkuri      : MRCI spin determinant printing, contributions to CSF-ICE
   Dipayan Datta          : RHF DLPNO-CCSD density
   Achintya Kumar Dutta   : EOM-CC, STEOM-CC
   Dmitry Ganyushin       : Spin-Orbit,Spin-Spin,Magnetic field MRCI
   Miquel Garcia          : C-PCM Hessian, Gaussian charge scheme
   Yang Guo               : DLPNO-NEVPT2, CIM, IAO-localization
   Andreas Hansen         : Spin unrestricted coupled pair/coupled cluster methods
   Benjamin Helmich-Paris : CASSCF linear response (MC-RPA)
   Lee Huntington         : MR-EOM, pCC
   Robert Izsak           : Overlap fitted RIJCOSX, COSX-SCS-MP3, EOM
   Christian Kollmar      : KDIIS, OOCD, Brueckner-CCSD(T), CCSD density
   Simone Kossmann        : Meta GGA functionals, TD-DFT gradient, OOMP2, MP2 Hessian
   Martin Krupicka        : AUTO-CI
   Lucas Lang             : DCDCAS
   Dagmar Lenk            : GEPOL surface, SMD
   Dimitrios Liakos       : Extrapolation schemes; Compound Job, initial MDCI parallelization
   Dimitrios Manganas     : Further ROCIS development; embedding schemes
   Dimitrios Pantazis     : SARC Basis sets
   Taras Petrenko         : DFT Hessian,TD-DFT gradient, ASA, ECA, R-Raman, ABS, FL, XAS/XES, NRVS
   Peter Pinski           : DLPNO-MP2, DLPNO-MP2 Gradient
   Christoph Reimann      : Effective Core Potentials
   Marius Retegan         : Local ZFS, SOC
   Christoph Riplinger    : Optimizer, TS searches, QM/MM, DLPNO-CCSD(T), (RO)-DLPNO pert. Triples
   Tobias Risthaus        : Range-separated hybrids, TD-DFT gradient, RPA, STAB
   Michael Roemelt        : Original ROCIS implementation
   Masaaki Saitow         : Open-shell DLPNO-CCSD energy and density
   Barbara Sandhoefer     : DKH picture change effects
   Avijit Sen             : IP-ROCIS
   Kantharuban Sivalingam : CASSCF convergence, NEVPT2, FIC-MRCI
   Bernardo de Souza      : ESD, SOC TD-DFT
   Georgi Stoychev        : AutoAux, RI-MP2 NMR
   Willem Van den Heuvel  : Paramagnetic NMR
   Boris Wezisla          : Elementary symmetry handling
   Frank Wennmohs         : Technical directorship


 We gratefully acknowledge several colleagues who have allowed us to
 interface, adapt or use parts of their codes:
   Stefan Grimme, W. Hujo, H. Kruse,             : VdW corrections, initial TS optimization,
                  C. Bannwarth                     DFT functionals, gCP, sTDA/sTD-DF
   Ed Valeev, F. Pavosevic, A. Kumar             : LibInt (2-el integral package), F12 methods
   Garnet Chan, S. Sharma, J. Yang, R. Olivares  : DMRG
   Ulf Ekstrom                                   : XCFun DFT Library
   Mihaly Kallay                                 : mrcc  (arbitrary order and MRCC methods)
   Andreas Klamt, Michael Diedenhofen            : otool_cosmo (COSMO solvation model)
   Jiri Pittner, Ondrej Demel                    : Mk-CCSD
   Frank Weinhold                                : gennbo (NPA and NBO analysis)
   Christopher J. Cramer and Donald G. Truhlar   : smd solvation model
   Lars Goerigk                                  : TD-DFT with DH, B97 family of functionals
   V. Asgeirsson, H. Jonsson                     : NEB implementation
   FAccTs GmbH                                   : IRC, NEB, NEB-TS, Multilevel, MM, QM/MM, CI optimization
   S Lehtola, MJT Oliveira, MAL Marques          : LibXC Library


 Your calculation uses the libint2 library for the computation of 2-el integrals
 For citations please refer to: http://libint.valeyev.net

 Your ORCA version has been built with support for libXC version: 4.2.3
 For citations please refer to: https://tddft.org/programs/libxc/

 This ORCA versions uses:
   CBLAS   interface :  Fast vector & matrix operations
   LAPACKE interface :  Fast linear algebra routines
   SCALAPACK package :  Parallel linear algebra routines


XCFun DFT library Copyright 2009-2010 Ulf Ekstrom and contributors.
See http://admol.org/xcfun for more information. This is free soft-
ware; see the source code for copying conditions. There is ABSOLUTELY
NO WARRANTY; not even for MERCHANTABILITY or FITNESS FOR A PARTICULAR
PURPOSE. For details see the documentation. Scientific users of this 
library should cite U. Ekstrom, L. Visscher, R. Bast, A. J. Thorvald-
sen and K. Ruud; J.Chem.Theor.Comp. 2010, DOI: 10.1021/ct100117s
XCFun Version 0.99 
----- Orbital basis set information -----
Your calculation utilizes the basis: def2-SVP
   F. Weigend and R. Ahlrichs, Phys. Chem. Chem. Phys. 7, 3297 (2005).

----- AuxJ basis set information -----
Your calculation utilizes the auxiliary basis: def2/J
   F. Weigend, Phys. Chem. Chem. Phys. 8, 1057 (2006).

================================================================================
                                        WARNINGS
                       Please study these warnings very carefully!
================================================================================

INFO   : Checking CIS options ...

WARNING: CIS/ROCIS methods need fully converged wavefunctions
  ===> : Setting SCFConvForced true
         You can overwrite this default with %scf ConvForced false 


INFO   : the flag for use of LIBINT has been found!

================================================================================
                                       INPUT FILE
================================================================================
NAME = xtbopt.inp
|  1> # ORCA input file
|  2> # SCF done       -185.979651172039          0.000727432462
|  3> ! CAM-B3LYP def2-SVP def2/J RIJCOSX Grid4 TightSCF
|  4> %maxcore 5000
|  5> %tddft
|  6>     Mode sTDDFT
|  7>     Ethresh 5.0
|  8>     maxcore 5000
|  9> end
| 10> 
| 11> %pal
| 12>   nprocs 6
| 13>   end
| 14> * xyz 0 1
| 15>    C       -4.44442         0.49084         4.33838
| 16>    C       -3.22818         0.40195         4.97513
| 17>    C       -2.96068        -0.46656         6.05195
| 18>    N       -2.67717        -1.15020         6.93039
| 19>    C       -2.07892         1.15205         4.65871
| 20>    N       -1.10267         1.72719         4.46219
| 21>    C       -5.62817        -0.29496         4.68308
| 22>    C       -6.68221         0.07017         3.81016
| 23>    C       -7.93119        -0.49497         3.87598
| 24>    C       -8.15335        -1.47282         4.85246
| 25>    C       -7.09618        -1.83156         5.72008
| 26>    C       -5.83158        -1.25697         5.65306
| 27>    S       -7.58399        -3.05989         6.84848
| 28>    C       -9.18010        -3.07471         6.14741
| 29>    C       -9.34191        -2.20513         5.12213
| 30>   Br      -10.48311        -4.23629         6.83465
| 31>    C       -6.19352         1.10232         2.87634
| 32>    O       -6.84497         1.64167         1.99484
| 33>    C       -4.79746         1.34157         3.22669
| 34>    C       -3.94902         2.23394         2.59924
| 35>    C       -4.15462         3.06549         1.50670
| 36>    S       -5.62509         3.23014         0.58400
| 37>    C       -4.93130         4.39708        -0.48308
| 38>    C       -3.56898         4.63843        -0.17629
| 39>    C       -3.13694         3.89950         0.95931
| 40>    C       -1.81338         4.01802         1.40903
| 41>    C       -0.94723         4.82840         0.72181
| 42>    F        0.32038         4.95571         1.13751
| 43>    C       -1.35851         5.51142        -0.43593
| 44>    F       -0.46900         6.25773        -1.11473
| 45>    C       -2.64666         5.41863        -0.89051
| 46>    C       -5.75103         4.96578        -1.47740
| 47>    C       -5.55035         6.16746        -2.08922
| 48>    C       -6.35897         6.70063        -3.10895
| 49>    C       -6.26267         8.00633        -3.62703
| 50>    C       -7.03064         8.11814        -4.80745
| 51>    C       -7.74448         6.94762        -5.13450
| 52>    S       -7.44779         5.66526        -4.02160
| 53>    C       -8.50686         7.23888        -6.26772
| 54>    C       -8.24300         8.55540        -6.59215
| 55>    N       -7.36591         9.10277        -5.70364
| 56>    C       -6.84359        10.44391        -5.76224
| 57>    C       -5.51921        10.50266        -6.52186
| 58>    C       -8.98396         9.12748        -7.74763
| 59>    C       -9.59418         7.91885        -8.47228
| 60>    S       -9.66337         6.46783        -7.32656
| 61>    C       -5.53696         9.06831        -3.00137
| 62>    C       -5.49674         9.33198        -1.66206
| 63>    C       -4.79250        10.40476        -1.04546
| 64>    C       -5.03440        10.54680         0.28366
| 65>    C       -5.94255         9.59576         0.80805
| 66>    S       -6.46573         8.49403        -0.44927
| 67>    C       -6.42075         9.48761         2.09552
| 68>    C       -6.15164        10.32372         3.20573
| 69>    C       -6.83473         9.98170         4.32909
| 70>    C       -7.68116         8.84955         4.17877
| 71>    S       -7.55165         8.22349         2.54394
| 72>    C       -8.50558         8.33300         5.13951
| 73>    C       -9.35778         7.21902         5.02428
| 74>    S       -9.45722         6.15181         3.63290
| 75>    C      -10.66638         5.15233         4.32901
| 76>    C      -11.00601         5.60000         5.58473
| 77>    C      -10.26229         6.75754         5.96567
| 78>    O      -10.62389         7.18223         7.19384
| 79>    C      -11.58891         6.31271         7.60050
| 80>    N      -12.17061         6.52615         8.87357
| 81>    O      -13.03697         5.74077         9.20996
| 82>    O      -11.77401         7.46427         9.53033
| 83>    C      -11.86816         5.33459         6.68424
| 84>    H       -8.71215        -0.19621         3.19443
| 85>    H       -5.06050        -1.56707         6.33801
| 86>    H      -10.26000        -2.08507         4.57651
| 87>    H       -2.95232         2.29695         3.01134
| 88>    H       -1.44602         3.48623         2.27245
| 89>    H       -2.91356         5.91624        -1.80673
| 90>    H       -6.65809         4.42120        -1.70835
| 91>    H       -4.73792         6.79981        -1.76320
| 92>    H       -6.71291        10.80705        -4.73903
| 93>    H       -7.58566        11.07415        -6.25928
| 94>    H       -4.77982         9.85816        -6.05235
| 95>    H       -5.14118        11.52128        -6.53294
| 96>    H       -5.65542        10.17074        -7.54830
| 97>    H       -8.33768         9.68809        -8.42634
| 98>    H       -9.77039         9.80326        -7.39350
| 99>    H       -8.97651         7.61274        -9.31643
|100>    H      -10.60645         8.10531        -8.82194
|101>    H       -5.02740         9.77100        -3.64726
|102>    H       -4.13363        11.03712        -1.61455
|103>    H       -4.59321        11.30864         0.90087
|104>    H       -5.47426        11.15586         3.13800
|105>    H       -6.76835        10.50356         5.26720
|106>    H       -8.53226         8.83221         6.09949
|107>    H      -11.04729         4.31552         3.78207
|108>    H      -12.59031         4.55308         6.79886
|109> *
|110> 
|111>                          ****END OF INPUT****
================================================================================

                       ****************************
                       * Single Point Calculation *
                       ****************************

---------------------------------
CARTESIAN COORDINATES (ANGSTROEM)
---------------------------------
  C     -4.444420    0.490840    4.338380
  C     -3.228180    0.401950    4.975130
  C     -2.960680   -0.466560    6.051950
  N     -2.677170   -1.150200    6.930390
  C     -2.078920    1.152050    4.658710
  N     -1.102670    1.727190    4.462190
  C     -5.628170   -0.294960    4.683080
  C     -6.682210    0.070170    3.810160
  C     -7.931190   -0.494970    3.875980
  C     -8.153350   -1.472820    4.852460
  C     -7.096180   -1.831560    5.720080
  C     -5.831580   -1.256970    5.653060
  S     -7.583990   -3.059890    6.848480
  C     -9.180100   -3.074710    6.147410
  C     -9.341910   -2.205130    5.122130
  Br   -10.483110   -4.236290    6.834650
  C     -6.193520    1.102320    2.876340
  O     -6.844970    1.641670    1.994840
  C     -4.797460    1.341570    3.226690
  C     -3.949020    2.233940    2.599240
  C     -4.154620    3.065490    1.506700
  S     -5.625090    3.230140    0.584000
  C     -4.931300    4.397080   -0.483080
  C     -3.568980    4.638430   -0.176290
  C     -3.136940    3.899500    0.959310
  C     -1.813380    4.018020    1.409030
  C     -0.947230    4.828400    0.721810
  F      0.320380    4.955710    1.137510
  C     -1.358510    5.511420   -0.435930
  F     -0.469000    6.257730   -1.114730
  C     -2.646660    5.418630   -0.890510
  C     -5.751030    4.965780   -1.477400
  C     -5.550350    6.167460   -2.089220
  C     -6.358970    6.700630   -3.108950
  C     -6.262670    8.006330   -3.627030
  C     -7.030640    8.118140   -4.807450
  C     -7.744480    6.947620   -5.134500
  S     -7.447790    5.665260   -4.021600
  C     -8.506860    7.238880   -6.267720
  C     -8.243000    8.555400   -6.592150
  N     -7.365910    9.102770   -5.703640
  C     -6.843590   10.443910   -5.762240
  C     -5.519210   10.502660   -6.521860
  C     -8.983960    9.127480   -7.747630
  C     -9.594180    7.918850   -8.472280
  S     -9.663370    6.467830   -7.326560
  C     -5.536960    9.068310   -3.001370
  C     -5.496740    9.331980   -1.662060
  C     -4.792500   10.404760   -1.045460
  C     -5.034400   10.546800    0.283660
  C     -5.942550    9.595760    0.808050
  S     -6.465730    8.494030   -0.449270
  C     -6.420750    9.487610    2.095520
  C     -6.151640   10.323720    3.205730
  C     -6.834730    9.981700    4.329090
  C     -7.681160    8.849550    4.178770
  S     -7.551650    8.223490    2.543940
  C     -8.505580    8.333000    5.139510
  C     -9.357780    7.219020    5.024280
  S     -9.457220    6.151810    3.632900
  C    -10.666380    5.152330    4.329010
  C    -11.006010    5.600000    5.584730
  C    -10.262290    6.757540    5.965670
  O    -10.623890    7.182230    7.193840
  C    -11.588910    6.312710    7.600500
  N    -12.170610    6.526150    8.873570
  O    -13.036970    5.740770    9.209960
  O    -11.774010    7.464270    9.530330
  C    -11.868160    5.334590    6.684240
  H     -8.712150   -0.196210    3.194430
  H     -5.060500   -1.567070    6.338010
  H    -10.260000   -2.085070    4.576510
  H     -2.952320    2.296950    3.011340
  H     -1.446020    3.486230    2.272450
  H     -2.913560    5.916240   -1.806730
  H     -6.658090    4.421200   -1.708350
  H     -4.737920    6.799810   -1.763200
  H     -6.712910   10.807050   -4.739030
  H     -7.585660   11.074150   -6.259280
  H     -4.779820    9.858160   -6.052350
  H     -5.141180   11.521280   -6.532940
  H     -5.655420   10.170740   -7.548300
  H     -8.337680    9.688090   -8.426340
  H     -9.770390    9.803260   -7.393500
  H     -8.976510    7.612740   -9.316430
  H    -10.606450    8.105310   -8.821940
  H     -5.027400    9.771000   -3.647260
  H     -4.133630   11.037120   -1.614550
  H     -4.593210   11.308640    0.900870
  H     -5.474260   11.155860    3.138000
  H     -6.768350   10.503560    5.267200
  H     -8.532260    8.832210    6.099490
  H    -11.047290    4.315520    3.782070
  H    -12.590310    4.553080    6.798860

----------------------------
CARTESIAN COORDINATES (A.U.)
----------------------------
  NO LB      ZA    FRAG     MASS         X           Y           Z
   0 C     6.0000    0    12.011   -8.398737    0.927553    8.198350
   1 C     6.0000    0    12.011   -6.100376    0.759575    9.401633
   2 C     6.0000    0    12.011   -5.594874   -0.881671   11.436528
   3 N     7.0000    0    14.007   -5.059118   -2.173563   13.096539
   4 C     6.0000    0    12.011   -3.928589    2.177059    8.803686
   5 N     7.0000    0    14.007   -2.083744    3.263916    8.432317
   6 C     6.0000    0    12.011  -10.635700   -0.557394    8.849739
   7 C     6.0000    0    12.011  -12.627547    0.132602    7.200159
   8 C     6.0000    0    12.011  -14.987777   -0.935358    7.324541
   9 C     6.0000    0    12.011  -15.407599   -2.783226    9.169820
  10 C     6.0000    0    12.011  -13.409837   -3.461147   10.809385
  11 C     6.0000    0    12.011  -11.020089   -2.375329   10.682735
  12 S    16.0000    0    32.060  -14.331664   -5.782354   12.941752
  13 C     6.0000    0    12.011  -17.347875   -5.810360   11.616921
  14 C     6.0000    0    12.011  -17.653651   -4.167092    9.679423
  15 Br   35.0000    0    79.900  -19.810207   -8.005428   12.915617
  16 C     6.0000    0    12.011  -11.704057    2.083083    5.435495
  17 O     8.0000    0    15.999  -12.935119    3.102307    3.769701
  18 C     6.0000    0    12.011   -9.065886    2.535200    6.097560
  19 C     6.0000    0    12.011   -7.462566    4.221535    4.911852
  20 C     6.0000    0    12.011   -7.851094    5.792937    2.847250
  21 S    16.0000    0    32.060  -10.629880    6.104080    1.103600
  22 C     6.0000    0    12.011   -9.318806    8.309277   -0.912889
  23 C     6.0000    0    12.011   -6.744395    8.765362   -0.333140
  24 C     6.0000    0    12.011   -5.927957    7.368987    1.812833
  25 C     6.0000    0    12.011   -3.426792    7.592957    2.662681
  26 C     6.0000    0    12.011   -1.790005    9.124354    1.364023
  27 F     9.0000    0    18.998    0.605430    9.364935    2.149582
  28 C     6.0000    0    12.011   -2.567212   10.415074   -0.823788
  29 F     9.0000    0    18.998   -0.886282   11.825396   -2.106534
  30 C     6.0000    0    12.011   -5.001463   10.239727   -1.682820
  31 C     6.0000    0    12.011  -10.867872    9.383964   -2.791881
  32 C     6.0000    0    12.011  -10.488641   11.654810   -3.948054
  33 C     6.0000    0    12.011  -12.016712   12.662356   -5.875064
  34 C     6.0000    0    12.011  -11.834731   15.129771   -6.854093
  35 C     6.0000    0    12.011  -13.285984   15.341061   -9.084764
  36 C     6.0000    0    12.011  -14.634946   13.129099   -9.702799
  37 S    16.0000    0    32.060  -14.074283   10.705790   -7.599723
  38 C     6.0000    0    12.011  -16.075636   13.679501  -11.844274
  39 C     6.0000    0    12.011  -15.577013   16.167363  -12.457358
  40 N     7.0000    0    14.007  -13.919553   17.201742  -10.778318
  41 C     6.0000    0    12.011  -12.932511   19.736130  -10.889056
  42 C     6.0000    0    12.011  -10.429795   19.847151  -12.324529
  43 C     6.0000    0    12.011  -16.977224   17.248437  -14.640899
  44 C     6.0000    0    12.011  -18.130373   14.964458  -16.010289
  45 S    16.0000    0    32.060  -18.261123   12.222427  -13.845192
  46 C     6.0000    0    12.011  -10.463338   17.136622   -5.671767
  47 C     6.0000    0    12.011  -10.387333   17.634886   -3.140838
  48 C     6.0000    0    12.011   -9.056512   19.662147   -1.975633
  49 C     6.0000    0    12.011   -9.513637   19.930564    0.536040
  50 C     6.0000    0    12.011  -11.229792   18.133358    1.526993
  51 S    16.0000    0    32.060  -12.218459   16.051390   -0.848997
  52 C     6.0000    0    12.011  -12.133459   17.928985    3.959959
  53 C     6.0000    0    12.011  -11.624915   19.509003    6.057952
  54 C     6.0000    0    12.011  -12.915768   18.862679    8.180795
  55 C     6.0000    0    12.011  -14.515289   16.723226    7.896731
  56 S    16.0000    0    32.060  -14.270550   15.540144    4.807350
  57 C     6.0000    0    12.011  -16.073217   15.747088    9.712266
  58 C     6.0000    0    12.011  -17.683641   13.641971    9.494513
  59 S    16.0000    0    32.060  -17.871556   11.625236    6.865186
  60 C     6.0000    0    12.011  -20.156537    9.736493    8.180643
  61 C     6.0000    0    12.011  -20.798345   10.582466   10.553610
  62 C     6.0000    0    12.011  -19.392918   12.769900   11.273483
  63 O     8.0000    0    15.999  -20.076243   13.572448   13.594387
  64 C     6.0000    0    12.011  -21.899866   11.929293   14.362863
  65 N     7.0000    0    14.007  -22.999120   12.332636   16.768617
  66 O     8.0000    0    15.999  -24.636303   10.848483   17.404302
  67 O     8.0000    0    15.999  -22.249654   14.105426   18.009714
  68 C     6.0000    0    12.011  -22.427572   10.080914   12.631383
  69 H     1.0000    0     1.008  -16.463578   -0.370783    6.036598
  70 H     1.0000    0     1.008   -9.562959   -2.961333   11.977103
  71 H     1.0000    0     1.008  -19.388590   -3.940211    8.648351
  72 H     1.0000    0     1.008   -5.579076    4.340606    5.690608
  73 H     1.0000    0     1.008   -2.732582    6.588020    4.294308
  74 H     1.0000    0     1.008   -5.505830   11.180073   -3.414225
  75 H     1.0000    0     1.008  -12.581967    8.354857   -3.228314
  76 H     1.0000    0     1.008   -8.953371   12.849779   -3.331965
  77 H     1.0000    0     1.008  -12.685561   20.422365   -8.955469
  78 H     1.0000    0     1.008  -14.334820   20.927111  -11.828325
  79 H     1.0000    0     1.008   -9.032551   18.629223  -11.437284
  80 H     1.0000    0     1.008   -9.715422   21.772064  -12.345467
  81 H     1.0000    0     1.008  -10.687195   19.219913  -14.264220
  82 H     1.0000    0     1.008  -15.755932   18.307837  -15.923475
  83 H     1.0000    0     1.008  -18.463361   18.525477  -13.971690
  84 H     1.0000    0     1.008  -16.963146   14.385994  -17.605501
  85 H     1.0000    0     1.008  -20.043286   15.316816  -16.671051
  86 H     1.0000    0     1.008   -9.500409   18.464514   -6.892323
  87 H     1.0000    0     1.008   -7.811429   20.857134   -3.051057
  88 H     1.0000    0     1.008   -8.679909   21.370233    1.702398
  89 H     1.0000    0     1.008  -10.344852   21.081520    5.929961
  90 H     1.0000    0     1.008  -12.790328   19.848852    9.953565
  91 H     1.0000    0     1.008  -16.123635   16.690458   11.526366
  92 H     1.0000    0     1.008  -20.876353    8.155151    7.147077
  93 H     1.0000    0     1.008  -23.792238    8.604074   12.847983

--------------------------------
INTERNAL COORDINATES (ANGSTROEM)
--------------------------------
 C      0   0   0     0.000000000000     0.00000000     0.00000000
 C      1   0   0     1.375714989451     0.00000000     0.00000000
 C      2   1   0     1.409044776613   124.15155510     0.00000000
 N      3   2   1     1.148650688112   176.51594759   179.21891606
 C      2   1   3     1.408392762691   125.66288863   180.07307772
 N      5   2   1     1.149987040144   175.93578846   178.19766615
 C      1   2   3     1.462040968133   124.88610985     0.05828135
 C      7   1   2     1.416442573809   108.58170563   180.07047348
 C      8   7   1     1.372467315604   122.78518730   179.82781304
 C      9   8   7     1.399663844821   117.74748183   359.92331668
 C     10   9   8     1.413883750844   119.12344165     0.08393080
 C      7   1   2     1.381195159491   131.23592548   359.87334491
 S     11  10   9     1.737826154999   111.58651789   180.11026554
 C     13  11  10     1.743354785865    90.10807818     0.03035183
 C     14  13  11     1.354086751615   114.10653181   359.95575409
 Br    14  13  11     1.876006922722   119.59393837   179.96474727
 C      8   7   1     1.475185185324   108.90260676     0.19293558
 O     17   8   7     1.221608683253   126.08839856   180.27829029
 C      1   2   3     1.443687442143   127.63862645   180.53562959
 C     19   1   2     1.381979794715   125.44974507     0.00000000
 C     20  19   1     1.388304870733   130.77895292   177.65040951
 S     21  20  19     1.743779496783   126.71596322     0.56424424
 C     22  21  20     1.726775391908    92.97988648   180.39077597
 C     23  22  21     1.417139975091   111.56485887     1.92053083
 C     24  23  22     1.422063102151   112.11338144   357.74910912
 C     25  24  23     1.402892063703   119.91561677   180.11235402
 C     26  25  24     1.370840215087   119.03522668   358.58618020
 F     27  26  25     1.340093070723   119.88862779   179.90116885
 C     27  26  25     1.405713152247   121.01440009   358.52261893
 F     29  27  26     1.344981820026   119.45739224   182.53429180
 C     29  27  26     1.369154258292   121.04990059     1.89932687
 C     23  22  21     1.408562822632   118.37563409   182.69511114
 C     32  23  22     1.363316176534   125.94481547   156.48556994
 C     33  32  23     1.406408840345   125.09319022   178.00601007
 C     34  33  32     1.408024526207   125.38102711   171.45120525
 C     35  34  33     1.412682120436   110.10050209   168.18114867
 C     36  35  34     1.409484415841   113.79583683     3.06085944
 S     37  36  35     1.723664275809   112.38629818   358.22337466
 C     37  36  35     1.396511088535   106.95186288   176.59832140
 C     39  37  36     1.381340593373   106.56372029   359.89370708
 N     40  39  37     1.363213411429   110.64075330   359.18698882
 C     41  40  39     1.440454317915   125.49495935   178.14521658
 C     42  41  40     1.527892827164   111.73629161   267.41813050
 C     40  39  37     1.487088187836   116.99816466   182.32617623
 C     44  40  39     1.535666808849   105.18128333   345.91207459
 S     39  37  36     1.747333862832   139.55433595   181.28089737
 C     35  34  33     1.430352040618   124.21209976   345.56425799
 C     47  35  34     1.365610044412   125.96484747   319.63861385
 C     48  47  35     1.423729772815   125.78885934   181.21034682
 C     49  48  47     1.358400142079   114.48511787   172.65595460
 C     50  49  48     1.415697134348   113.97993135     0.13163484
 S     51  50  49     1.751679162318   110.37988091     0.76148833
 C     51  50  49     1.377661302135   128.43045992   181.84331786
 C     53  51  50     1.415650510649   128.35622779     1.95339886
 C     54  53  51     1.358501865328   113.84198129   176.95921943
 C     55  54  53     1.421549671943   114.35974571     0.31236603
 S     53  51  50     1.754427166000   121.27662191   180.00875882
 C     56  55  54     1.367301571161   125.84481766   182.40510890
 C     58  56  55     1.407293229324   127.34686621   179.79385551
 S     59  58  56     1.756349567170   125.46012565     5.17735197
 C     60  59  58     1.716274252006    94.15374238   179.93043138
 C     61  60  59     1.375714245111   110.77157715     0.19490381
 C     59  58  56     1.384672258190   127.13655658   185.09836189
 O     63  59  58     1.348894994060   133.56679805     1.09074609
 C     64  63  59     1.361139591078   105.12673741   178.75172811
 N     65  64  63     1.415852657765   117.62069349   180.54709045
 O     66  65  64     1.216782489231   116.34682107   179.51668145
 O     66  65  64     1.211897022028   118.00304493   359.67672793
 C     65  64  63     1.369025815863   113.64516946     0.13913346
 H      9   8   7     1.078733730677   120.96275577   180.14594383
 H     12   7   1     1.076978587949   122.80280516     0.17402244
 H     15  14  13     1.074711512965   123.93374058   179.93754870
 H     20  19   1     1.080373805727   115.52209324   358.41126285
 H     26  25  24     1.078539786053   122.43348207   179.22987000
 H     31  29  27     1.076248303367   118.98835742   182.97155181
 H     32  23  22     1.082895711738   115.78374050   341.50212444
 H     33  32  23     1.079906508824   119.43217739   355.54345396
 H     42  41  40     1.093575157957   108.32694127   145.57099146
 H     42  41  40     1.093123553904   108.00735155    28.39558586
 H     43  42  41     1.087436187645   110.60515076   301.41194619
 H     43  42  41     1.086561618915   110.04081843   181.08128502
 H     43  42  41     1.087337631143   110.42631778    61.11591325
 H     44  40  39     1.092066240940   112.67594793   225.79149987
 H     44  40  39     1.095700146117   110.10611151   105.15543167
 H     45  44  40     1.089866406263   111.18280360   262.54452659
 H     45  44  40     1.087069455049   112.75599895   139.68380575
 H     47  35  34     1.081942014065   117.38924704   144.19318899
 H     49  48  47     1.076035443004   121.10717375   352.97687605
 H     50  49  48     1.075173002730   124.24283002   180.52700508
 H     54  53  51     1.075122317181   121.83678917   357.73104337
 H     55  54  53     1.075543832719   124.61489379   180.60820026
 H     58  56  55     1.082351166166   117.63442126     0.85812096
 H     61  60  59     1.069806883414   119.93460682   180.03405402
 H     69  65  64     1.070231865999   125.99231192   180.09535309

---------------------------
INTERNAL COORDINATES (A.U.)
---------------------------
 C      0   0   0     0.000000000000     0.00000000     0.00000000
 C      1   0   0     2.599724568393     0.00000000     0.00000000
 C      2   1   0     2.662708738231   124.15155510     0.00000000
 N      3   2   1     2.170635224072   176.51594759   179.21891606
 C      2   1   3     2.661476610482   125.66288863   180.07307772
 N      5   2   1     2.173160563432   175.93578846   178.19766615
 C      1   2   3     2.762857026345   124.88610985     0.05828135
 C      7   1   2     2.676688548926   108.58170563   180.07047348
 C      8   7   1     2.593587354249   122.78518730   179.82781304
 C      9   8   7     2.644981346264   117.74748183   359.92331668
 C     10   9   8     2.671853074296   119.12344165     0.08393080
 C      7   1   2     2.610080588935   131.23592548   359.87334491
 S     11  10   9     3.284015501314   111.58651789   180.11026554
 C     13  11  10     3.294463099547    90.10807818     0.03035183
 C     14  13  11     2.558853122124   114.10653181   359.95575409
 Br    14  13  11     3.545139309285   119.59393837   179.96474727
 C      8   7   1     2.787695997081   108.90260676     0.19293558
 O     17   8   7     2.308505854169   126.08839856   180.27829029
 C      1   2   3     2.728173888631   127.63862645   180.53562959
 C     19   1   2     2.611563334624   125.44974507     0.00000000
 C     20  19   1     2.623515996074   130.77895292   177.65040951
 S     21  20  19     3.295265686866   126.71596322     0.56424424
 C     22  21  20     3.263132585501    92.97988648   180.39077597
 C     23  22  21     2.678006446353   111.56485887     1.92053083
 C     24  23  22     2.687309808220   112.11338144   357.74910912
 C     25  24  23     2.651081795850   119.91561677   180.11235402
 C     26  25  24     2.590512579880   119.03522668   358.58618020
 F     27  26  25     2.532408897632   119.88862779   179.90116885
 C     27  26  25     2.656412880598   121.01440009   358.52261893
 F     29  27  26     2.541647294952   119.45739224   182.53429180
 C     29  27  26     2.587326583265   121.04990059     1.89932687
 C     23  22  21     2.661797977197   118.37563409   182.69511114
 C     32  23  22     2.576294207594   125.94481547   156.48556994
 C     33  32  23     2.657727540577   125.09319022   178.00601007
 C     34  33  32     2.660780744375   125.38102711   171.45120525
 C     35  34  33     2.669582321911   110.10050209   168.18114867
 C     36  35  34     2.663539535970   113.79583683     3.06085944
 S     37  36  35     3.257253428103   112.38629818   358.22337466
 C     37  36  35     2.639023500315   106.95186288   176.59832140
 C     39  37  36     2.610355419143   106.56372029   359.89370708
 N     40  39  37     2.576100009689   110.64075330   359.18698882
 C     41  40  39     2.722064169284   125.49495935   178.14521658
 C     42  41  40     2.887299005323   111.73629161   267.41813050
 C     40  39  37     2.810189411998   116.99816466   182.32617623
 C     44  40  39     2.901989701677   105.18128333   345.91207459
 S     39  37  36     3.301982465280   139.55433595   181.28089737
 C     35  34  33     2.702973631863   124.21209976   345.56425799
 C     47  35  34     2.580628989671   125.96484747   319.63861385
 C     48  47  35     2.690459359330   125.78885934   181.21034682
 C     49  48  47     2.567004248809   114.48511787   172.65595460
 C     50  49  48     2.675279872494   113.97993135     0.13163484
 S     51  50  49     3.310193891278   110.37988091     0.76148833
 C     51  50  49     2.603402566336   128.43045992   181.84331786
 C     53  51  50     2.675191766472   128.35622779     1.95339886
 C     54  53  51     2.567196477891   113.84198129   176.95921943
 C     55  54  53     2.686339565737   114.35974571     0.31236603
 S     53  51  50     3.315386865652   121.27662191   180.00875882
 C     56  55  54     2.583825511975   125.84481766   182.40510890
 C     58  56  55     2.659398793543   127.34686621   179.79385551
 S     59  58  56     3.319019677383   125.46012565     5.17735197
 C     60  59  58     3.243288306993    94.15374238   179.93043138
 C     61  60  59     2.599723161793   110.77157715     0.19490381
 C     59  58  56     2.616651353217   127.13655658   185.09836189
 O     63  59  58     2.549042122191   133.56679805     1.09074609
 C     64  63  59     2.572181057175   105.12673741   178.75172811
 N     65  64  63     2.675573769160   117.62069349   180.54709045
 O     66  65  64     2.299385669198   116.34682107   179.51668145
 O     66  65  64     2.290153474147   118.00304493   359.67672793
 C     65  64  63     2.587083862250   113.64516946     0.13913346
 H      9   8   7     2.038511322402   120.96275577   180.14594383
 H     12   7   1     2.035194583320   122.80280516     0.17402244
 H     15  14  13     2.030910432476   123.93374058   179.93754870
 H     20  19   1     2.041610615085   115.52209324   358.41126285
 H     26  25  24     2.038144820179   122.43348207   179.22987000
 H     31  29  27     2.033814545461   118.98835742   182.97155181
 H     32  23  22     2.046376326782   115.78374050   341.50212444
 H     33  32  23     2.040727551916   119.43217739   355.54345396
 H     42  41  40     2.066557555398   108.32694127   145.57099146
 H     42  41  40     2.065704147418   108.00735155    28.39558586
 H     43  42  41     2.054956582765   110.60515076   301.41194619
 H     43  42  41     2.053303887380   110.04081843   181.08128502
 H     43  42  41     2.054770337967   110.42631778    61.11591325
 H     44  40  39     2.063706115477   112.67594793   225.79149987
 H     44  40  39     2.070573201058   110.10611151   105.15543167
 H     45  44  40     2.059549030397   111.18280360   262.54452659
 H     45  44  40     2.054263558593   112.75599895   139.68380575
 H     47  35  34     2.044574099367   117.38924704   144.19318899
 H     49  48  47     2.033412297669   121.10717375   352.97687605
 H     50  49  48     2.031782521746   124.24283002   180.52700508
 H     54  53  51     2.031686739938   121.83678917   357.73104337
 H     55  54  53     2.032483288867   124.61489379   180.60820026
 H     58  56  55     2.045347284783   117.63442126     0.85812096
 H     61  60  59     2.021642025836   119.93460682   180.03405402
 H     69  65  64     2.022445126534   125.99231192   180.09535309

---------------------
BASIS SET INFORMATION
---------------------
There are 7 groups of distinct atoms

 Group   1 Type C   : 7s4p1d contracted to 3s2p1d pattern {511/31/1}
 Group   2 Type N   : 7s4p1d contracted to 3s2p1d pattern {511/31/1}
 Group   3 Type S   : 10s7p1d contracted to 4s3p1d pattern {5311/511/1}
 Group   4 Type Br  : 14s10p6d contracted to 5s4p3d pattern {63311/5311/411}
 Group   5 Type O   : 7s4p1d contracted to 3s2p1d pattern {511/31/1}
 Group   6 Type F   : 7s4p1d contracted to 3s2p1d pattern {511/31/1}
 Group   7 Type H   : 4s1p contracted to 2s1p pattern {31/1}

Atom   0C    basis set group =>   1
Atom   1C    basis set group =>   1
Atom   2C    basis set group =>   1
Atom   3N    basis set group =>   2
Atom   4C    basis set group =>   1
Atom   5N    basis set group =>   2
Atom   6C    basis set group =>   1
Atom   7C    basis set group =>   1
Atom   8C    basis set group =>   1
Atom   9C    basis set group =>   1
Atom  10C    basis set group =>   1
Atom  11C    basis set group =>   1
Atom  12S    basis set group =>   3
Atom  13C    basis set group =>   1
Atom  14C    basis set group =>   1
Atom  15Br   basis set group =>   4
Atom  16C    basis set group =>   1
Atom  17O    basis set group =>   5
Atom  18C    basis set group =>   1
Atom  19C    basis set group =>   1
Atom  20C    basis set group =>   1
Atom  21S    basis set group =>   3
Atom  22C    basis set group =>   1
Atom  23C    basis set group =>   1
Atom  24C    basis set group =>   1
Atom  25C    basis set group =>   1
Atom  26C    basis set group =>   1
Atom  27F    basis set group =>   6
Atom  28C    basis set group =>   1
Atom  29F    basis set group =>   6
Atom  30C    basis set group =>   1
Atom  31C    basis set group =>   1
Atom  32C    basis set group =>   1
Atom  33C    basis set group =>   1
Atom  34C    basis set group =>   1
Atom  35C    basis set group =>   1
Atom  36C    basis set group =>   1
Atom  37S    basis set group =>   3
Atom  38C    basis set group =>   1
Atom  39C    basis set group =>   1
Atom  40N    basis set group =>   2
Atom  41C    basis set group =>   1
Atom  42C    basis set group =>   1
Atom  43C    basis set group =>   1
Atom  44C    basis set group =>   1
Atom  45S    basis set group =>   3
Atom  46C    basis set group =>   1
Atom  47C    basis set group =>   1
Atom  48C    basis set group =>   1
Atom  49C    basis set group =>   1
Atom  50C    basis set group =>   1
Atom  51S    basis set group =>   3
Atom  52C    basis set group =>   1
Atom  53C    basis set group =>   1
Atom  54C    basis set group =>   1
Atom  55C    basis set group =>   1
Atom  56S    basis set group =>   3
Atom  57C    basis set group =>   1
Atom  58C    basis set group =>   1
Atom  59S    basis set group =>   3
Atom  60C    basis set group =>   1
Atom  61C    basis set group =>   1
Atom  62C    basis set group =>   1
Atom  63O    basis set group =>   5
Atom  64C    basis set group =>   1
Atom  65N    basis set group =>   2
Atom  66O    basis set group =>   5
Atom  67O    basis set group =>   5
Atom  68C    basis set group =>   1
Atom  69H    basis set group =>   7
Atom  70H    basis set group =>   7
Atom  71H    basis set group =>   7
Atom  72H    basis set group =>   7
Atom  73H    basis set group =>   7
Atom  74H    basis set group =>   7
Atom  75H    basis set group =>   7
Atom  76H    basis set group =>   7
Atom  77H    basis set group =>   7
Atom  78H    basis set group =>   7
Atom  79H    basis set group =>   7
Atom  80H    basis set group =>   7
Atom  81H    basis set group =>   7
Atom  82H    basis set group =>   7
Atom  83H    basis set group =>   7
Atom  84H    basis set group =>   7
Atom  85H    basis set group =>   7
Atom  86H    basis set group =>   7
Atom  87H    basis set group =>   7
Atom  88H    basis set group =>   7
Atom  89H    basis set group =>   7
Atom  90H    basis set group =>   7
Atom  91H    basis set group =>   7
Atom  92H    basis set group =>   7
Atom  93H    basis set group =>   7
---------------------------------
AUXILIARY/J BASIS SET INFORMATION
---------------------------------
There are 7 groups of distinct atoms

 Group   1 Type C   : 12s5p4d2f1g contracted to 6s4p3d1f1g pattern {711111/2111/211/2/1}
 Group   2 Type N   : 12s5p4d2f1g contracted to 6s4p3d1f1g pattern {711111/2111/211/2/1}
 Group   3 Type S   : 14s5p5d2f1g contracted to 8s4p3d1f1g pattern {71111111/2111/311/2/1}
 Group   4 Type Br  : 19s5p5d3f1g contracted to 8s4p3d2f1g pattern {121111111/2111/311/21/1}
 Group   5 Type O   : 12s5p4d2f1g contracted to 6s4p3d1f1g pattern {711111/2111/211/2/1}
 Group   6 Type F   : 12s5p4d2f1g contracted to 6s4p3d1f1g pattern {711111/2111/211/2/1}
 Group   7 Type H   : 5s2p1d contracted to 3s1p1d pattern {311/2/1}

Atom   0C    basis set group =>   1
Atom   1C    basis set group =>   1
Atom   2C    basis set group =>   1
Atom   3N    basis set group =>   2
Atom   4C    basis set group =>   1
Atom   5N    basis set group =>   2
Atom   6C    basis set group =>   1
Atom   7C    basis set group =>   1
Atom   8C    basis set group =>   1
Atom   9C    basis set group =>   1
Atom  10C    basis set group =>   1
Atom  11C    basis set group =>   1
Atom  12S    basis set group =>   3
Atom  13C    basis set group =>   1
Atom  14C    basis set group =>   1
Atom  15Br   basis set group =>   4
Atom  16C    basis set group =>   1
Atom  17O    basis set group =>   5
Atom  18C    basis set group =>   1
Atom  19C    basis set group =>   1
Atom  20C    basis set group =>   1
Atom  21S    basis set group =>   3
Atom  22C    basis set group =>   1
Atom  23C    basis set group =>   1
Atom  24C    basis set group =>   1
Atom  25C    basis set group =>   1
Atom  26C    basis set group =>   1
Atom  27F    basis set group =>   6
Atom  28C    basis set group =>   1
Atom  29F    basis set group =>   6
Atom  30C    basis set group =>   1
Atom  31C    basis set group =>   1
Atom  32C    basis set group =>   1
Atom  33C    basis set group =>   1
Atom  34C    basis set group =>   1
Atom  35C    basis set group =>   1
Atom  36C    basis set group =>   1
Atom  37S    basis set group =>   3
Atom  38C    basis set group =>   1
Atom  39C    basis set group =>   1
Atom  40N    basis set group =>   2
Atom  41C    basis set group =>   1
Atom  42C    basis set group =>   1
Atom  43C    basis set group =>   1
Atom  44C    basis set group =>   1
Atom  45S    basis set group =>   3
Atom  46C    basis set group =>   1
Atom  47C    basis set group =>   1
Atom  48C    basis set group =>   1
Atom  49C    basis set group =>   1
Atom  50C    basis set group =>   1
Atom  51S    basis set group =>   3
Atom  52C    basis set group =>   1
Atom  53C    basis set group =>   1
Atom  54C    basis set group =>   1
Atom  55C    basis set group =>   1
Atom  56S    basis set group =>   3
Atom  57C    basis set group =>   1
Atom  58C    basis set group =>   1
Atom  59S    basis set group =>   3
Atom  60C    basis set group =>   1
Atom  61C    basis set group =>   1
Atom  62C    basis set group =>   1
Atom  63O    basis set group =>   5
Atom  64C    basis set group =>   1
Atom  65N    basis set group =>   2
Atom  66O    basis set group =>   5
Atom  67O    basis set group =>   5
Atom  68C    basis set group =>   1
Atom  69H    basis set group =>   7
Atom  70H    basis set group =>   7
Atom  71H    basis set group =>   7
Atom  72H    basis set group =>   7
Atom  73H    basis set group =>   7
Atom  74H    basis set group =>   7
Atom  75H    basis set group =>   7
Atom  76H    basis set group =>   7
Atom  77H    basis set group =>   7
Atom  78H    basis set group =>   7
Atom  79H    basis set group =>   7
Atom  80H    basis set group =>   7
Atom  81H    basis set group =>   7
Atom  82H    basis set group =>   7
Atom  83H    basis set group =>   7
Atom  84H    basis set group =>   7
Atom  85H    basis set group =>   7
Atom  86H    basis set group =>   7
Atom  87H    basis set group =>   7
Atom  88H    basis set group =>   7
Atom  89H    basis set group =>   7
Atom  90H    basis set group =>   7
Atom  91H    basis set group =>   7
Atom  92H    basis set group =>   7
Atom  93H    basis set group =>   7


           ************************************************************
           *        Program running with 6 parallel MPI-processes     *
           *              working on a common directory               *
           ************************************************************
------------------------------------------------------------------------------
                           ORCA GTO INTEGRAL CALCULATION
                           -- RI-GTO INTEGRALS CHOSEN --
------------------------------------------------------------------------------

                         BASIS SET STATISTICS AND STARTUP INFO

Gaussian basis set:
 # of primitive gaussian shells          ... 1013
 # of primitive gaussian functions       ... 1965
 # of contracted shells                  ...  509
 # of contracted basis functions         ... 1137
 Highest angular momentum                ...    2
 Maximum contraction depth               ...    6
Auxiliary gaussian basis set:
 # of primitive gaussian shells          ... 1886
 # of primitive gaussian functions       ... 5298
 # of contracted shells                  ... 1177
 # of contracted aux-basis functions     ... 3679
 Highest angular momentum                ...    4
 Maximum contraction depth               ...   12
Ratio of auxiliary to basis functions    ...  3.24
Integral package used                  ... LIBINT
 One Electron integrals                  ... done
 Ordering auxiliary basis shells         ... done
 Integral threshhold             Thresh  ...  2.500e-11
 Primitive cut-off               TCut    ...  2.500e-12
 Pre-screening matrix                    ... done
 Shell pair data                         ... 
 Ordering of the shell pairs             ... done (   0.010 sec) 43840 of 129795 pairs
 Determination of significant pairs      ... done (   0.000 sec)
 Creation of shell pair data             ... done (   0.006 sec)
 Storage of shell pair data              ... done (   0.381 sec)
 Shell pair data done in (   0.397 sec)
 Computing two index integrals           ... done
 Cholesky decomposition of the V-matrix  ... done


Timings:
 Total evaluation time                   ...   3.496 sec (  0.058 min)
 One electron matrix time                ...   0.737 sec (  0.012 min) = 21.1%
 Schwartz matrix evaluation time         ...   0.786 sec (  0.013 min) = 22.5%
 Two index repulsion integral time       ...   0.721 sec (  0.012 min) = 20.6%
 Cholesky decomposition of V             ...   0.813 sec (  0.014 min) = 23.3%
 Three index repulsion integral time     ...   0.000 sec (  0.000 min) =  0.0%



           ************************************************************
           *        Program running with 6 parallel MPI-processes     *
           *              working on a common directory               *
           ************************************************************
-------------------------------------------------------------------------------
                                 ORCA SCF
-------------------------------------------------------------------------------

------------
SCF SETTINGS
------------
Hamiltonian:
 Density Functional     Method          .... DFT(GTOs)
 Exchange Functional    Exchange        .... WB88
 Correlation Functional Correlation     .... LYP
 LDA part of GGA corr.  LDAOpt          .... VWN-5
 Gradients option       PostSCFGGA      .... off
 Hybrid DFT is turned on
   Fraction HF Exchange ScalHFX         ....  0.190000
   Scaling of DF-GGA-X  ScalDFX         ....  0.350000
   Scaling of DF-GGA-C  ScalDFC         ....  0.810000
   Scaling of DF-LDA-C  ScalLDAC        ....  1.000000
   Perturbative correction              ....  0.000000
   Density functional embedding theory  .... OFF
 Long-range corrected/Screened/Range-Separated Hybrid DFT is turned on
   Amount of maximum screened exact exchange              ....  0.460000
   Range separation parameter mu (erf(mu*r12)/r12)        ....  0.330000
 RI-approximation to the Coulomb term is turned on
   Number of auxiliary basis functions  .... 3679
   RIJ-COSX (HFX calculated with COS-X)).... on


General Settings:
 Integral files         IntName         .... xtbopt
 Hartree-Fock type      HFTyp           .... RHF
 Total Charge           Charge          ....    0
 Multiplicity           Mult            ....    1
 Number of Electrons    NEL             ....  556
 Basis Dimension        Dim             .... 1137
 Nuclear Repulsion      ENuc            ....  12160.9417980275 Eh

Convergence Acceleration:
 DIIS                   CNVDIIS         .... on
   Start iteration      DIISMaxIt       ....    12
   Startup error        DIISStart       ....  0.200000
   # of expansion vecs  DIISMaxEq       ....     5
   Bias factor          DIISBfac        ....   1.050
   Max. coefficient     DIISMaxC        ....  10.000
 Newton-Raphson         CNVNR           .... off
 SOSCF                  CNVSOSCF        .... on
   Start iteration      SOSCFMaxIt      ....   150
   Startup grad/error   SOSCFStart      ....  0.003300
 Level Shifting         CNVShift        .... on
   Level shift para.    LevelShift      ....    0.2500
   Turn off err/grad.   ShiftErr        ....    0.0010
 Zerner damping         CNVZerner       .... off
 Static damping         CNVDamp         .... on
   Fraction old density DampFac         ....    0.7000
   Max. Damping (<1)    DampMax         ....    0.9800
   Min. Damping (>=0)   DampMin         ....    0.0000
   Turn off err/grad.   DampErr         ....    0.1000
 Fernandez-Rico         CNVRico         .... off

SCF Procedure:
 Maximum # iterations   MaxIter         ....   125
 SCF integral mode      SCFMode         .... Direct
   Integral package                     .... LIBINT
 Reset frequency        DirectResetFreq ....    20
 Integral Threshold     Thresh          ....  2.500e-11 Eh
 Primitive CutOff       TCut            ....  2.500e-12 Eh

Convergence Tolerance:
 Convergence Check Mode ConvCheckMode   .... Total+1el-Energy
 Convergence forced     ConvForced      .... 1
 Energy Change          TolE            ....  1.000e-08 Eh
 1-El. energy change                    ....  1.000e-05 Eh
 Orbital Gradient       TolG            ....  1.000e-05
 Orbital Rotation angle TolX            ....  1.000e-05
 DIIS Error             TolErr          ....  5.000e-07


Diagonalization of the overlap matrix:
Smallest eigenvalue                        ... 2.016e-04
Time for diagonalization                   ...    1.341 sec
Threshold for overlap eigenvalues          ... 1.000e-08
Number of eigenvalues below threshold      ... 0
Time for construction of square roots      ...    0.572 sec
Total time needed                          ...    1.930 sec

-------------------
DFT GRID GENERATION
-------------------

General Integration Accuracy     IntAcc      ...  4.670
Radial Grid Type                 RadialGrid  ... Gauss-Chebyshev
Angular Grid (max. acc.)         AngularGrid ... Lebedev-302
Angular grid pruning method      GridPruning ... 3 (G Style)
Weight generation scheme         WeightScheme... Becke
Basis function cutoff            BFCut       ...    1.0000e-11
Integration weight cutoff        WCut        ...    1.0000e-14
Grids for H and He will be reduced by one unit

# of grid points (after initial pruning)     ... 521440 (   0.0 sec)
# of grid points (after weights+screening)   ... 448092 (   6.4 sec)
nearest neighbour list constructed           ...    0.0 sec
Grid point re-assignment to atoms done       ...    0.1 sec
Grid point division into batches done        ...    1.9 sec
Reduced shell lists constructed in    3.2 sec

Total number of grid points                  ...   448092
Total number of batches                      ...     7048
Average number of points per batch           ...       63
Average number of grid points per atom       ...     4767
Average number of shells per batch           ...    81.22 (15.96%)
Average number of basis functions per batch  ...   176.21 (15.50%)
Average number of large shells per batch     ...    51.48 (63.39%)
Average number of large basis fcns per batch ...   113.43 (64.37%)
Maximum spatial batch extension              ...  16.08, 16.59, 17.15 au
Average spatial batch extension              ...   0.34,  0.36,  0.37 au

Time for grid setup =   10.818 sec

------------------------------
INITIAL GUESS: MODEL POTENTIAL
------------------------------
Loading Hartree-Fock densities                     ... done
Calculating cut-offs                               ... done
Setting up the integral package                    ... done
Initializing the effective Hamiltonian             ... done
Starting the Coulomb interaction                   ... done (   1.8 sec)
Reading the grid                                   ... done
Mapping shells                                     ... done
Starting the XC term evaluation                    ... done (   2.0 sec)
  promolecular density results
     # of electrons  =    555.987816855
     EX              =   -611.009133789
     EC              =    -20.092096507
     EX+EC           =   -631.101230296
Transforming the Hamiltonian                       ... done (   0.2 sec)
Diagonalizing the Hamiltonian                      ... done (   0.7 sec)
Back transforming the eigenvectors                 ... done (   0.1 sec)
Now organizing SCF variables                       ... done
                      ------------------
                      INITIAL GUESS DONE (  15.9 sec)
                      ------------------
--------------------
COSX GRID GENERATION
--------------------

General Integration Accuracy     IntAcc      ...  3.340
Radial Grid Type                 RadialGrid  ... Gauss-Chebyshev
Angular Grid (max. acc.)         AngularGrid ... Lebedev-50
Angular grid pruning method      GridPruning ... 3 (G Style)
Weight generation scheme         WeightScheme... Becke
Basis function cutoff            BFCut       ...    1.0000e-11
Integration weight cutoff        WCut        ...    1.0000e-14
Grids for H and He will be reduced by one unit

# of grid points (after initial pruning)     ...  49308 (   0.0 sec)
# of grid points (after weights+screening)   ...  44258 (   0.5 sec)
nearest neighbour list constructed           ...    0.0 sec
Grid point re-assignment to atoms done       ...    0.0 sec
Grid point division into batches done        ...    0.0 sec
Reduced shell lists constructed in    0.2 sec

Total number of grid points                  ...    44258
Total number of batches                      ...      741
Average number of points per batch           ...       59
Average number of grid points per atom       ...      471
Average number of shells per batch           ...    99.49 (19.55%)
Average number of basis functions per batch  ...   216.77 (19.06%)
Average number of large shells per batch     ...    61.25 (61.56%)
Average number of large basis fcns per batch ...   136.90 (63.15%)
Maximum spatial batch extension              ...  14.33, 20.64, 19.02 au
Average spatial batch extension              ...   0.65,  0.91,  0.90 au

Overlap Fitting                  UseSFitting ... on
Constructing numerical overlap ... done (      0.1 sec)
Inverting numerical overlap    ... done (      0.1 sec)
Obtaining analytic overlap     ... done (      0.0 sec)
Final contraction and storage  ... done (      0.1 sec)


General Integration Accuracy     IntAcc      ...  3.670
Radial Grid Type                 RadialGrid  ... Gauss-Chebyshev
Angular Grid (max. acc.)         AngularGrid ... Lebedev-50
Angular grid pruning method      GridPruning ... 3 (G Style)
Weight generation scheme         WeightScheme... Becke
Basis function cutoff            BFCut       ...    1.0000e-11
Integration weight cutoff        WCut        ...    1.0000e-14
Grids for H and He will be reduced by one unit

# of grid points (after initial pruning)     ...  61358 (   0.0 sec)
# of grid points (after weights+screening)   ...  54855 (   0.7 sec)
nearest neighbour list constructed           ...    0.0 sec
Grid point re-assignment to atoms done       ...    0.0 sec
Grid point division into batches done        ...    0.1 sec
Reduced shell lists constructed in    0.4 sec

Total number of grid points                  ...    54855
Total number of batches                      ...      907
Average number of points per batch           ...       60
Average number of grid points per atom       ...      584
Average number of shells per batch           ...    97.71 (19.20%)
Average number of basis functions per batch  ...   213.16 (18.75%)
Average number of large shells per batch     ...    60.72 (62.14%)
Average number of large basis fcns per batch ...   135.57 (63.60%)
Maximum spatial batch extension              ...  14.99, 27.71, 22.10 au
Average spatial batch extension              ...   0.59,  0.79,  0.83 au

Overlap Fitting                  UseSFitting ... on
Constructing numerical overlap ... done (      0.3 sec)
Inverting numerical overlap    ... done (      0.9 sec)
Obtaining analytic overlap     ... done (      0.0 sec)
Final contraction and storage  ... done (      0.1 sec)


General Integration Accuracy     IntAcc      ...  4.010
Radial Grid Type                 RadialGrid  ... Gauss-Chebyshev
Angular Grid (max. acc.)         AngularGrid ... Lebedev-110
Angular grid pruning method      GridPruning ... 3 (G Style)
Weight generation scheme         WeightScheme... Becke
Basis function cutoff            BFCut       ...    1.0000e-11
Integration weight cutoff        WCut        ...    1.0000e-14
Grids for H and He will be reduced by one unit

# of grid points (after initial pruning)     ... 120026 (   0.0 sec)
# of grid points (after weights+screening)   ... 106300 (   1.8 sec)
nearest neighbour list constructed           ...    0.0 sec
Grid point re-assignment to atoms done       ...    0.0 sec
Grid point division into batches done        ...    0.1 sec
Reduced shell lists constructed in    0.5 sec

Total number of grid points                  ...   106300
Total number of batches                      ...     1710
Average number of points per batch           ...       62
Average number of grid points per atom       ...     1131
Average number of shells per batch           ...    92.15 (18.10%)
Average number of basis functions per batch  ...   200.66 (17.65%)
Average number of large shells per batch     ...    57.83 (62.75%)
Average number of large basis fcns per batch ...   128.49 (64.03%)
Maximum spatial batch extension              ...  16.37, 18.46, 18.23 au
Average spatial batch extension              ...   0.52,  0.61,  0.64 au

Overlap Fitting                  UseSFitting ... on
Constructing numerical overlap ... done (      0.3 sec)
Inverting numerical overlap    ... done (      0.1 sec)
Obtaining analytic overlap     ... done (      0.0 sec)
Final contraction and storage  ... done (      0.1 sec)

Time for X-Grid setup             =    6.916 sec
--------------
SCF ITERATIONS
--------------
ITER       Energy         Delta-E        Max-DP      RMS-DP      [F,P]     Damp
               ***  Starting incremental Fock matrix formation  ***
  0  -8033.7391075843   0.000000000000 0.08096011  0.00088728  0.2115016 0.7000
  1  -8034.2854915442  -0.546383959934 0.04374366  0.00062512  0.0950985 0.7000
                               ***Turning on DIIS***
  2  -8034.5210677836  -0.235576239371 0.07257248  0.00115952  0.0418348 0.0000
  3  -8034.8960555660  -0.374987782427 0.03977156  0.00047694  0.0530489 0.0000
  4  -8034.9751214800  -0.079065914031 0.01658743  0.00015086  0.0183867 0.0000
  5  -8034.9799053123  -0.004783832257 0.00851323  0.00006870  0.0118719 0.0000
                      *** Initiating the SOSCF procedure ***
                           *** Shutting down DIIS ***
                      *** Re-Reading the Fockian *** 
                      *** Removing any level shift *** 
ITER      Energy       Delta-E        Grad      Rot      Max-DP    RMS-DP
  6  -8034.98135404  -0.0014487318  0.003174  0.003174  0.002675  0.000041
               *** Restarting incremental Fock matrix formation ***
  7  -8034.98191619  -0.0005621507  0.002386  0.017504  0.002678  0.000057
  8  -8034.98251151  -0.0005953119  0.001068  0.022792  0.004765  0.000081
  9  -8034.98256795  -0.0000564461  0.002633  0.005158  0.003158  0.000024
 10  -8034.98273888  -0.0001709243  0.000667  0.002621  0.001239  0.000014
 11  -8034.98274180  -0.0000029209  0.000352  0.001189  0.000534  0.000007
 12  -8034.98275263  -0.0000108292  0.000079  0.000826  0.000509  0.000004
 13  -8034.98275289  -0.0000002590  0.000086  0.000326  0.000200  0.000002
 14  -8034.98275369  -0.0000008055  0.000024  0.000219  0.000077  0.000001
 15  -8034.98275368   0.0000000110  0.000025  0.000092  0.000066  0.000001
 16  -8034.98275380  -0.0000001143  0.000005  0.000077  0.000023  0.000000
 17  -8034.98275383  -0.0000000396  0.000003  0.000025  0.000008  0.000000
                  ***Gradient check signals convergence***
              ***Rediagonalizing the Fockian in SOSCF/NRSCF***

               *****************************************************
               *                     SUCCESS                       *
               *           SCF CONVERGED AFTER  18 CYCLES          *
               *****************************************************

Setting up the final grid:

General Integration Accuracy     IntAcc      ...  5.010
Radial Grid Type                 RadialGrid  ... Gauss-Chebyshev
Angular Grid (max. acc.)         AngularGrid ... Lebedev-434
Angular grid pruning method      GridPruning ... 3 (G Style)
Weight generation scheme         WeightScheme... Becke
Basis function cutoff            BFCut       ...    1.0000e-11
Integration weight cutoff        WCut        ...    1.0000e-14
Grids for H and He will be reduced by one unit

# of grid points (after initial pruning)     ... 918416 (   0.1 sec)
# of grid points (after weights+screening)   ... 786427 (  10.6 sec)
nearest neighbour list constructed           ...    0.0 sec
Grid point re-assignment to atoms done       ...    0.2 sec
Grid point division into batches done        ...    7.6 sec
Reduced shell lists constructed in   10.2 sec

Total number of grid points                  ...   786427
Total number of batches                      ...    12341
Average number of points per batch           ...       63
Average number of grid points per atom       ...     8366
Average number of shells per batch           ...    77.57 (15.24%)
Average number of basis functions per batch  ...   167.96 (14.77%)
Average number of large shells per batch     ...    49.27 (63.52%)
Average number of large basis fcns per batch ...   108.36 (64.51%)
Maximum spatial batch extension              ...  13.53, 17.28, 17.34 au
Average spatial batch extension              ...   0.29,  0.31,  0.31 au

Final grid set up in   21.1 sec
Final integration                            ... done (   4.7 sec)
Change in XC energy                          ...    -0.000148451
Integrated number of electrons               ...   556.000090379
Previous integrated no of electrons          ...   556.000106637
Old exchange energy                            =   -161.198882347 Eh
New exchange energy                            =   -161.196836312 Eh
Exchange energy change after final integration =      0.002046035 Eh
Total energy after final integration           =  -8034.980856265 Eh
Final COS-X integration done in                =    76.838 sec

----------------
TOTAL SCF ENERGY
----------------

Total Energy       :        -8034.98085627 Eh         -218642.94469 eV

Components:
Nuclear Repulsion  :        12160.94179803 Eh          330916.04977 eV
Electronic Energy  :       -20195.92265429 Eh         -549558.99446 eV
One Electron Energy:       -35312.08664681 Eh         -960890.72840 eV
Two Electron Energy:        15116.16399251 Eh          411331.73394 eV

Virial components:
Potential Energy   :       -16036.55435102 Eh         -436376.82886 eV
Kinetic Energy     :         8001.57349476 Eh          217733.88417 eV
Virial Ratio       :            2.00417510


DFT components:
N(Alpha)           :      278.000045189477 electrons
N(Beta)            :      278.000045189477 electrons
N(Total)           :      556.000090378954 electrons
E(XC)              :     -477.933282988326 Eh       
DFET-embed. en.    :        0.000000000000 Eh       

---------------
SCF CONVERGENCE
---------------

  Last Energy change         ...   -1.4741e-08  Tolerance :   1.0000e-08
  Last MAX-Density change    ...    8.4377e-15  Tolerance :   1.0000e-07
  Last RMS-Density change    ...    3.8610e-17  Tolerance :   5.0000e-09
  Last Orbital Gradient      ...    1.6755e-06  Tolerance :   1.0000e-05
  Last Orbital Rotation      ...    1.3249e-05  Tolerance :   1.0000e-05

             **** THE GBW FILE WAS UPDATED (xtbopt.gbw) ****
             **** DENSITY FILE WAS UPDATED (xtbopt.scfp) ****
             **** ENERGY FILE WAS UPDATED (xtbopt.en.tmp) ****
             **** THE GBW FILE WAS UPDATED (xtbopt.gbw) ****
             **** DENSITY FILE WAS UPDATED (xtbopt.scfp) ****
----------------
ORBITAL ENERGIES
----------------

  NO   OCC          E(Eh)            E(eV) 
   0   2.0000    -482.878933    -13139.8038 
   1   2.0000     -88.978692     -2421.2333 
   2   2.0000     -88.966931     -2420.9133 
   3   2.0000     -88.966432     -2420.8997 
   4   2.0000     -88.955670     -2420.6068 
   5   2.0000     -88.954329     -2420.5704 
   6   2.0000     -88.951785     -2420.5011 
   7   2.0000     -88.923997     -2419.7450 
   8   2.0000     -62.556649     -1702.2529 
   9   2.0000     -56.390589     -1534.4660 
  10   2.0000     -56.387893     -1534.3926 
  11   2.0000     -56.387853     -1534.3915 
  12   2.0000     -24.786875      -674.4852 
  13   2.0000     -24.785720      -674.4537 
  14   2.0000     -19.311492      -525.4924 
  15   2.0000     -19.244411      -523.6670 
  16   2.0000     -19.242132      -523.6050 
  17   2.0000     -19.207050      -522.6504 
  18   2.0000     -14.656087      -398.8124 
  19   2.0000     -14.475189      -393.8899 
  20   2.0000     -14.405758      -392.0006 
  21   2.0000     -14.399444      -391.8288 
  22   2.0000     -10.388378      -282.6821 
  23   2.0000     -10.371068      -282.2111 
  24   2.0000     -10.366391      -282.0838 
  25   2.0000     -10.355048      -281.7752 
  26   2.0000     -10.350487      -281.6511 
  27   2.0000     -10.349289      -281.6185 
  28   2.0000     -10.332307      -281.1564 
  29   2.0000     -10.327072      -281.0139 
  30   2.0000     -10.323659      -280.9210 
  31   2.0000     -10.322826      -280.8984 
  32   2.0000     -10.320856      -280.8448 
  33   2.0000     -10.320244      -280.8281 
  34   2.0000     -10.320217      -280.8274 
  35   2.0000     -10.317003      -280.7399 
  36   2.0000     -10.316021      -280.7132 
  37   2.0000     -10.315336      -280.6946 
  38   2.0000     -10.315254      -280.6923 
  39   2.0000     -10.314079      -280.6604 
  40   2.0000     -10.310212      -280.5551 
  41   2.0000     -10.309589      -280.5382 
  42   2.0000     -10.308039      -280.4960 
  43   2.0000     -10.308011      -280.4952 
  44   2.0000     -10.306797      -280.4622 
  45   2.0000     -10.305753      -280.4338 
  46   2.0000     -10.305641      -280.4307 
  47   2.0000     -10.303958      -280.3850 
  48   2.0000     -10.303444      -280.3710 
  49   2.0000     -10.301717      -280.3240 
  50   2.0000     -10.301543      -280.3192 
  51   2.0000     -10.300086      -280.2796 
  52   2.0000     -10.299710      -280.2694 
  53   2.0000     -10.298658      -280.2407 
  54   2.0000     -10.298284      -280.2306 
  55   2.0000     -10.297650      -280.2133 
  56   2.0000     -10.296371      -280.1785 
  57   2.0000     -10.296141      -280.1722 
  58   2.0000     -10.294919      -280.1390 
  59   2.0000     -10.294878      -280.1379 
  60   2.0000     -10.294558      -280.1292 
  61   2.0000     -10.294273      -280.1214 
  62   2.0000     -10.294262      -280.1211 
  63   2.0000     -10.293750      -280.1072 
  64   2.0000     -10.292977      -280.0861 
  65   2.0000     -10.291363      -280.0422 
  66   2.0000     -10.289126      -279.9813 
  67   2.0000     -10.287679      -279.9420 
  68   2.0000     -10.287644      -279.9410 
  69   2.0000     -10.286111      -279.8993 
  70   2.0000     -10.283807      -279.8366 
  71   2.0000     -10.281089      -279.7627 
  72   2.0000     -10.277216      -279.6573 
  73   2.0000      -8.786072      -239.0812 
  74   2.0000      -8.073275      -219.6850 
  75   2.0000      -8.062977      -219.4047 
  76   2.0000      -8.059732      -219.3165 
  77   2.0000      -8.050533      -219.0661 
  78   2.0000      -8.050522      -219.0658 
  79   2.0000      -8.047587      -218.9860 
  80   2.0000      -8.019604      -218.2245 
  81   2.0000      -6.622346      -180.2032 
  82   2.0000      -6.607813      -179.8077 
  83   2.0000      -6.607638      -179.8030 
  84   2.0000      -6.042593      -164.4273 
  85   2.0000      -6.038149      -164.3064 
  86   2.0000      -6.035727      -164.2405 
  87   2.0000      -6.032657      -164.1569 
  88   2.0000      -6.028934      -164.0556 
  89   2.0000      -6.028392      -164.0409 
  90   2.0000      -6.024310      -163.9298 
  91   2.0000      -6.024195      -163.9267 
  92   2.0000      -6.022466      -163.8796 
  93   2.0000      -6.020332      -163.8216 
  94   2.0000      -6.020227      -163.8187 
  95   2.0000      -6.017449      -163.7431 
  96   2.0000      -6.016230      -163.7099 
  97   2.0000      -6.016225      -163.7098 
  98   2.0000      -6.013355      -163.6317 
  99   2.0000      -6.011794      -163.5892 
 100   2.0000      -6.011314      -163.5762 
 101   2.0000      -6.008272      -163.4934 
 102   2.0000      -5.990376      -163.0064 
 103   2.0000      -5.986290      -162.8952 
 104   2.0000      -5.978578      -162.6854 
 105   2.0000      -2.738200       -74.5102 
 106   2.0000      -2.734133       -74.3995 
 107   2.0000      -2.734030       -74.3967 
 108   2.0000      -2.722474       -74.0823 
 109   2.0000      -2.722451       -74.0817 
 110   2.0000      -1.327425       -36.1211 
 111   2.0000      -1.308471       -35.6053 
 112   2.0000      -1.293406       -35.1954 
 113   2.0000      -1.231357       -33.5069 
 114   2.0000      -1.143880       -31.1266 
 115   2.0000      -1.121646       -30.5215 
 116   2.0000      -1.101088       -29.9621 
 117   2.0000      -1.012203       -27.5434 
 118   2.0000      -1.006358       -27.3844 
 119   2.0000      -1.005605       -27.3639 
 120   2.0000      -1.001928       -27.2638 
 121   2.0000      -0.998452       -27.1693 
 122   2.0000      -0.985728       -26.8230 
 123   2.0000      -0.982299       -26.7297 
 124   2.0000      -0.977318       -26.5942 
 125   2.0000      -0.976559       -26.5735 
 126   2.0000      -0.954044       -25.9609 
 127   2.0000      -0.944848       -25.7106 
 128   2.0000      -0.937074       -25.4991 
 129   2.0000      -0.932681       -25.3795 
 130   2.0000      -0.917596       -24.9690 
 131   2.0000      -0.910120       -24.7656 
 132   2.0000      -0.901869       -24.5411 
 133   2.0000      -0.897812       -24.4307 
 134   2.0000      -0.891871       -24.2691 
 135   2.0000      -0.880833       -23.9687 
 136   2.0000      -0.878389       -23.9022 
 137   2.0000      -0.875578       -23.8257 
 138   2.0000      -0.867050       -23.5936 
 139   2.0000      -0.859750       -23.3950 
 140   2.0000      -0.847614       -23.0648 
 141   2.0000      -0.846360       -23.0306 
 142   2.0000      -0.840221       -22.8636 
 143   2.0000      -0.837334       -22.7850 
 144   2.0000      -0.833601       -22.6834 
 145   2.0000      -0.822055       -22.3692 
 146   2.0000      -0.819615       -22.3028 
 147   2.0000      -0.809903       -22.0386 
 148   2.0000      -0.805719       -21.9247 
 149   2.0000      -0.790959       -21.5231 
 150   2.0000      -0.785037       -21.3619 
 151   2.0000      -0.777258       -21.1503 
 152   2.0000      -0.758566       -20.6416 
 153   2.0000      -0.748865       -20.3777 
 154   2.0000      -0.739137       -20.1129 
 155   2.0000      -0.737294       -20.0628 
 156   2.0000      -0.732596       -19.9350 
 157   2.0000      -0.723276       -19.6813 
 158   2.0000      -0.709618       -19.3097 
 159   2.0000      -0.702556       -19.1175 
 160   2.0000      -0.697539       -18.9810 
 161   2.0000      -0.693439       -18.8694 
 162   2.0000      -0.681144       -18.5349 
 163   2.0000      -0.678575       -18.4650 
 164   2.0000      -0.677932       -18.4475 
 165   2.0000      -0.664824       -18.0908 
 166   2.0000      -0.659828       -17.9548 
 167   2.0000      -0.655523       -17.8377 
 168   2.0000      -0.651626       -17.7316 
 169   2.0000      -0.647215       -17.6116 
 170   2.0000      -0.646108       -17.5815 
 171   2.0000      -0.641197       -17.4479 
 172   2.0000      -0.635417       -17.2906 
 173   2.0000      -0.632671       -17.2158 
 174   2.0000      -0.628579       -17.1045 
 175   2.0000      -0.625100       -17.0098 
 176   2.0000      -0.624190       -16.9851 
 177   2.0000      -0.616310       -16.7706 
 178   2.0000      -0.611004       -16.6263 
 179   2.0000      -0.608768       -16.5654 
 180   2.0000      -0.604861       -16.4591 
 181   2.0000      -0.604155       -16.4399 
 182   2.0000      -0.594098       -16.1662 
 183   2.0000      -0.590690       -16.0735 
 184   2.0000      -0.586560       -15.9611 
 185   2.0000      -0.585095       -15.9212 
 186   2.0000      -0.579067       -15.7572 
 187   2.0000      -0.574911       -15.6441 
 188   2.0000      -0.573215       -15.5980 
 189   2.0000      -0.572538       -15.5796 
 190   2.0000      -0.568159       -15.4604 
 191   2.0000      -0.559169       -15.2158 
 192   2.0000      -0.555498       -15.1159 
 193   2.0000      -0.551814       -15.0156 
 194   2.0000      -0.548513       -14.9258 
 195   2.0000      -0.547302       -14.8929 
 196   2.0000      -0.542961       -14.7747 
 197   2.0000      -0.539913       -14.6918 
 198   2.0000      -0.535752       -14.5786 
 199   2.0000      -0.535220       -14.5641 
 200   2.0000      -0.532109       -14.4794 
 201   2.0000      -0.530562       -14.4373 
 202   2.0000      -0.529615       -14.4115 
 203   2.0000      -0.521925       -14.2023 
 204   2.0000      -0.519681       -14.1413 
 205   2.0000      -0.516020       -14.0416 
 206   2.0000      -0.510460       -13.8903 
 207   2.0000      -0.509620       -13.8675 
 208   2.0000      -0.506248       -13.7757 
 209   2.0000      -0.505025       -13.7424 
 210   2.0000      -0.503622       -13.7042 
 211   2.0000      -0.501453       -13.6452 
 212   2.0000      -0.498464       -13.5639 
 213   2.0000      -0.496823       -13.5192 
 214   2.0000      -0.495976       -13.4962 
 215   2.0000      -0.494462       -13.4550 
 216   2.0000      -0.489360       -13.3162 
 217   2.0000      -0.487268       -13.2592 
 218   2.0000      -0.485080       -13.1997 
 219   2.0000      -0.483140       -13.1469 
 220   2.0000      -0.482107       -13.1188 
 221   2.0000      -0.479836       -13.0570 
 222   2.0000      -0.476220       -12.9586 
 223   2.0000      -0.472595       -12.8600 
 224   2.0000      -0.470805       -12.8112 
 225   2.0000      -0.468284       -12.7427 
 226   2.0000      -0.464511       -12.6400 
 227   2.0000      -0.462039       -12.5727 
 228   2.0000      -0.460213       -12.5230 
 229   2.0000      -0.460009       -12.5175 
 230   2.0000      -0.456634       -12.4256 
 231   2.0000      -0.452606       -12.3160 
 232   2.0000      -0.452214       -12.3054 
 233   2.0000      -0.450961       -12.2713 
 234   2.0000      -0.448201       -12.1962 
 235   2.0000      -0.441692       -12.0191 
 236   2.0000      -0.439502       -11.9594 
 237   2.0000      -0.438443       -11.9306 
 238   2.0000      -0.434807       -11.8317 
 239   2.0000      -0.432930       -11.7806 
 240   2.0000      -0.430621       -11.7178 
 241   2.0000      -0.429617       -11.6905 
 242   2.0000      -0.424364       -11.5475 
 243   2.0000      -0.420293       -11.4367 
 244   2.0000      -0.417545       -11.3620 
 245   2.0000      -0.416780       -11.3412 
 246   2.0000      -0.415050       -11.2941 
 247   2.0000      -0.414054       -11.2670 
 248   2.0000      -0.408283       -11.1099 
 249   2.0000      -0.402186       -10.9440 
 250   2.0000      -0.401066       -10.9136 
 251   2.0000      -0.398377       -10.8404 
 252   2.0000      -0.395660       -10.7665 
 253   2.0000      -0.394155       -10.7255 
 254   2.0000      -0.391047       -10.6409 
 255   2.0000      -0.390082       -10.6147 
 256   2.0000      -0.381045       -10.3688 
 257   2.0000      -0.378447       -10.2981 
 258   2.0000      -0.377814       -10.2808 
 259   2.0000      -0.372041       -10.1238 
 260   2.0000      -0.368568       -10.0293 
 261   2.0000      -0.361879        -9.8472 
 262   2.0000      -0.354702        -9.6519 
 263   2.0000      -0.351406        -9.5623 
 264   2.0000      -0.345014        -9.3883 
 265   2.0000      -0.334662        -9.1066 
 266   2.0000      -0.326239        -8.8774 
 267   2.0000      -0.323853        -8.8125 
 268   2.0000      -0.321975        -8.7614 
 269   2.0000      -0.314094        -8.5469 
 270   2.0000      -0.312571        -8.5055 
 271   2.0000      -0.305909        -8.3242 
 272   2.0000      -0.288823        -7.8593 
 273   2.0000      -0.284940        -7.7536 
 274   2.0000      -0.282718        -7.6931 
 275   2.0000      -0.254370        -6.9218 
 276   2.0000      -0.232597        -6.3293 
 277   2.0000      -0.219930        -5.9846 
 278   0.0000      -0.097544        -2.6543 
 279   0.0000      -0.080648        -2.1945 
 280   0.0000      -0.060570        -1.6482 
 281   0.0000      -0.053985        -1.4690 
 282   0.0000      -0.032472        -0.8836 
 283   0.0000      -0.017116        -0.4657 
 284   0.0000       0.002326         0.0633 
 285   0.0000       0.006689         0.1820 
 286   0.0000       0.026297         0.7156 
 287   0.0000       0.034996         0.9523 
 288   0.0000       0.036013         0.9800 
 289   0.0000       0.043995         1.1972 
 290   0.0000       0.048779         1.3273 
 291   0.0000       0.049701         1.3524 
 292   0.0000       0.060510         1.6466 
 293   0.0000       0.063118         1.7175 
 294   0.0000       0.064196         1.7469 
 295   0.0000       0.068220         1.8564 
 296   0.0000       0.070543         1.9196 
 297   0.0000       0.075981         2.0675 
 298   0.0000       0.079811         2.1718 
 299   0.0000       0.082144         2.2353 
 300   0.0000       0.084235         2.2921 
 301   0.0000       0.086803         2.3620 
 302   0.0000       0.091766         2.4971 
 303   0.0000       0.092645         2.5210 
 304   0.0000       0.095615         2.6018 
 305   0.0000       0.105140         2.8610 
 306   0.0000       0.106607         2.9009 
 307   0.0000       0.108274         2.9463 
 308   0.0000       0.110003         2.9933 
 309   0.0000       0.110843         3.0162 
 310   0.0000       0.112915         3.0726 
 311   0.0000       0.115669         3.1475 
 312   0.0000       0.120142         3.2692 
 313   0.0000       0.122295         3.3278 
 314   0.0000       0.124301         3.3824 
[...]
  21   3.944     314.4   0.033471   0.029941  10.659452  11.531219     0.23 (  83->  91)    0.19 (  81->  91)    0.15 (  78->  91)
  22   3.956     313.4   0.099149   0.091914  -97.383774  -95.093748     0.52 (  89->  96)    0.10 (  85->  92)    0.10 (  90->  99)
  23   3.962     312.9   0.018032   0.016806  -13.325638  -14.266428     0.43 (  88->  93)    0.22 (  88->  94)    0.05 (  89->  94)
  24   4.007     309.5   0.001008   0.001241   5.468306   7.837663     0.48 (  80->  94)    0.10 (  80->  95)    0.08 (  79->  94)
  25   4.036     307.2   0.162037   0.151805  -488.655521  -471.062405     0.16 (  83->  91)    0.12 (  84->  91)    0.12 (  86->  92)
  26   4.072     304.5   0.091510   0.086125  -218.390791  -206.448547     0.33 (  90->  99)    0.10 (  89->  99)    0.07 (  89->  96)
  27   4.080     303.9   0.014617   0.013830  11.499524  11.872024     0.25 (  88->  94)    0.18 (  90->  99)    0.14 (  88->  93)
  28   4.106     302.0   0.682711   0.623519  529.936271  519.894724     0.12 (  85->  92)    0.10 (  90->  99)    0.10 (  90->  97)
  29   4.150     298.7   0.102946   0.095000  -166.713781  -147.070485     0.38 (  90->  97)    0.08 (  83->  91)    0.08 (  88->  93)
  30   4.183     296.4   0.048781   0.047363  -18.202851  -16.769916     0.21 (  86->  92)    0.16 (  87->  92)    0.13 (  85->  92)
  31   4.225     293.4   0.011755   0.010624  22.059899  20.991619     0.39 (  79->  91)    0.14 (  81->  91)    0.08 (  80->  91)
  32   4.244     292.1   0.105415   0.093342  36.556040  24.733264     0.30 (  86->  93)    0.14 (  85->  93)    0.07 (  87->  93)
  33   4.382     282.9   0.116993   0.099581  22.700067  24.691560     0.53 (  88->  95)    0.08 (  88->  93)    0.04 (  89->  95)
  34   4.424     280.3   0.075137   0.064397  130.068925  108.603867     0.55 (  83->  92)    0.11 (  83->  91)    0.04 (  78->  91)
  35   4.434     279.6   0.021441   0.016389   0.996348   2.967147     0.48 (  82->  92)    0.22 (  84->  92)    0.04 (  84->  91)
  36   4.467     277.6   0.089194   0.082247  -103.401470  -102.398070     0.18 (  78->  92)    0.14 (  81->  91)    0.12 (  89->  97)
  37   4.506     275.2   0.047837   0.041065  101.338269  85.347740     0.20 (  89->  97)    0.17 (  81->  92)    0.13 (  90->  98)
  38   4.549     272.5   0.021082   0.019818  102.585761  86.641004     0.41 (  90->  98)    0.09 (  89->  98)    0.08 (  81->  92)
  39   4.587     270.3   0.111729   0.093782  17.861956  10.728391     0.32 (  89->  97)    0.22 (  78->  91)    0.11 (  81->  92)
  40   4.627     268.0   0.095185   0.080602  -40.284341  -36.410071     0.18 (  84->  94)    0.15 (  84->  92)    0.12 (  87->  93)
  41   4.636     267.4   0.162944   0.145492  18.318964  10.493208     0.25 (  77->  91)    0.09 (  81->  91)    0.09 (  78->  91)
  42   4.687     264.5   0.004904   0.003947   2.081065   0.112846     0.17 (  87->  94)    0.11 (  85->  94)    0.10 (  85->  93)
  43   4.744     261.4   0.032226   0.026716  -5.490694  -3.649815     0.18 (  84->  92)    0.15 (  87->  93)    0.15 (  87->  94)
  44   4.759     260.5   0.016166   0.014339  -1.628752  -2.700030     0.30 (  88->  96)    0.16 (  87->  93)    0.10 (  86->  94)
  45   4.775     259.7   0.031110   0.026333  50.314981  47.348621     0.42 (  80->  92)    0.10 (  80->  91)    0.05 (  84->  94)
  46   4.801     258.2   0.019341   0.014422  -12.070573  -13.512728     0.23 (  85->  94)    0.22 (  86->  94)    0.06 (  84->  92)
  47   4.814     257.5   0.086988   0.072439  -108.359456  -98.131041     0.12 (  83->  93)    0.09 (  85->  94)    0.08 (  80->  92)
  48   4.830     256.7   0.105497   0.085143  38.709204  47.495039     0.10 (  84->  94)    0.09 (  84->  92)    0.09 (  88->  96)
  49   4.871     254.5   0.062551   0.053031  82.787171  78.291327     0.21 (  85->  93)    0.08 (  79->  92)    0.07 (  81->  93)
  50   4.905     252.8   0.037883   0.029450  41.241898  37.215667     0.17 (  76->  91)    0.17 (  90-> 101)    0.09 (  78->  92)
  51   4.926     251.7   0.007752   0.006422  -25.546309  -21.764592     0.54 (  89->  98)    0.20 (  90->  98)    0.03 (  88->  98)
  52   4.993     248.3   0.045936   0.039772  -63.934993  -59.012293     0.21 (  75->  91)    0.11 (  76->  91)    0.07 (  85->  93)

-----------------------------------------------------------------------------
         ABSORPTION SPECTRUM VIA TRANSITION ELECTRIC DIPOLE MOMENTS
-----------------------------------------------------------------------------
State   Energy  Wavelength   fosc         T2         TX        TY        TZ  
        (cm-1)    (nm)                  (au**2)     (au)      (au)      (au) 
-----------------------------------------------------------------------------
   0   11453.8    873.1   0.320028854   9.19850  -1.58148   2.57843  -0.22162
   1   14898.5    671.2   0.365896031   8.08522  -0.59080   1.74363  -2.16701
   2   17114.0    584.3   1.605162719  30.87763   0.78785   2.44315  -4.92828
   3   19107.6    523.4   0.099640338   1.71674   1.04836   0.35366  -0.70185
   4   20368.0    491.0   0.018963476   0.30651  -0.35470  -0.33956   0.25573
   5   21178.0    472.2   0.244182505   3.79582   0.41573  -0.09654  -1.90096
   6   22261.1    449.2   0.124289035   1.83807   0.39486   0.47169  -1.20816
   7   25017.3    399.7   0.004153615   0.05466  -0.16348   0.10668  -0.12865
   8   25418.8    393.4   0.067387657   0.87277   0.61782   0.45790  -0.53046
   9   25790.5    387.7   0.138699897   1.77049   1.11525   0.43561   0.58047
  10   25915.7    385.9   0.013046806   0.16574  -0.11881  -0.06851  -0.38331
  11   26486.4    377.6   0.068069766   0.84607  -0.29198  -0.77611  -0.39808
  12   26912.5    371.6   0.012960143   0.15854  -0.31315   0.23148  -0.08299
  13   27510.8    363.5   0.202595669   2.42439   1.29789   0.79784  -0.32145
  14   28121.0    355.6   0.235145562   2.75284  -1.40735  -0.85995   0.18082
  15   28395.4    352.2   0.035625447   0.41304   0.46229   0.29430  -0.33572
  16   29716.3    336.5   0.101323702   1.12252  -0.07939   0.99918  -0.34329
  17   29869.9    334.8   0.038085309   0.41976   0.55671   0.01279  -0.33117
  18   30180.3    331.3   0.111709020   1.21854  -0.93809  -0.57982   0.04836
  19   30689.5    325.8   0.006008399   0.06445   0.18873   0.12855   0.11096
  20   30952.8    323.1   0.033657649   0.35798  -0.57783  -0.04657   0.14806
  21   31807.6    314.4   0.033471215   0.34643   0.51550   0.11427  -0.26006
  22   31907.3    313.4   0.099148541   1.02299  -0.62586  -0.25831  -0.75137
  23   31955.5    312.9   0.018031703   0.18577  -0.19999   0.03421  -0.38026
  24   32315.0    309.5   0.001007601   0.01027  -0.05095  -0.05564   0.06762
  25   32551.8    307.2   0.162037402   1.63876   1.25754  -0.00319  -0.23945
  26   32841.7    304.5   0.091509913   0.91731   0.55056   0.40756  -0.66939
  27   32905.1    303.9   0.014616527   0.14624   0.11031  -0.36182   0.05615
  28   33113.8    302.0   0.682710861   6.78741   2.04190   1.51897   0.55749
  29   33475.2    298.7   0.102946426   1.01243   0.13974   0.10248   0.99116
  30   33738.1    296.4   0.048781193   0.47600   0.65402   0.21158   0.05910
  31   34080.6    293.4   0.011754970   0.11355  -0.11443   0.29804  -0.10784
  32   34232.5    292.1   0.105414990   1.01377  -0.10106   0.06911   0.99939
  33   35342.8    282.9   0.116992808   1.08977   0.52769   0.73133  -0.52579
  34   35680.3    280.3   0.075137252   0.69327   0.80878   0.19723   0.01558
  35   35764.4    279.6   0.021441286   0.19737   0.42001   0.10180  -0.10292
  36   36025.0    277.6   0.089194285   0.81510   0.85733  -0.27722  -0.05691
  37   36343.2    275.2   0.047836926   0.43333   0.48081  -0.26242   0.36508
  38   36691.8    272.5   0.021081839   0.18915  -0.00896  -0.01630   0.43452
  39   36998.3    270.3   0.111729360   0.99417   0.54749   0.40608  -0.72768
  40   37319.5    268.0   0.095184568   0.83967  -0.83093   0.12575  -0.36526
  41   37394.3    267.4   0.162943806   1.43453  -0.19809   0.20181   1.16386
  42   37804.8    264.5   0.004904214   0.04271   0.08421   0.18585  -0.03281
  43   38259.2    261.4   0.032225978   0.27730   0.46335  -0.09594   0.23109
  44   38382.6    260.5   0.016166435   0.13866   0.21714   0.23934  -0.18500
  45   38512.0    259.7   0.031110081   0.26594  -0.31207   0.20545  -0.35544
  46   38726.3    258.2   0.019340926   0.16442  -0.27276  -0.18556   0.23577
  47   38827.7    257.5   0.086987958   0.73755   0.67097  -0.26385  -0.46663
  48   38958.5    256.7   0.105496744   0.89148  -0.02214  -0.16051   0.93018
  49   39285.8    254.5   0.062550717   0.52417  -0.07241   0.29265   0.65824
  50   39560.0    252.8   0.037883031   0.31526  -0.22970  -0.46986  -0.20427
  51   39728.4    251.7   0.007752401   0.06424  -0.10006   0.22990   0.03710
  52   40270.0    248.3   0.045935829   0.37553  -0.07127   0.07816  -0.60361

-----------------------------------------------------------------------------
         ABSORPTION SPECTRUM VIA TRANSITION VELOCITY DIPOLE MOMENTS
-----------------------------------------------------------------------------
State   Energy  Wavelength   fosc         P2         PX        PY        PZ  
        (cm-1)    (nm)                  (au**2)     (au)      (au)      (au) 
-----------------------------------------------------------------------------
   0   11453.8    873.1   0.487920214   0.03819  -0.10315   0.16517  -0.01658
   1   14898.5    671.2   0.528177771   0.05378  -0.04771   0.14073  -0.17804
   2   17114.0    584.3   2.198820740   0.25719   0.07230   0.22374  -0.44933
   3   19107.6    523.4   0.126281222   0.01649   0.10176   0.03360  -0.07076
   4   20368.0    491.0   0.025975598   0.00362  -0.03484  -0.03745   0.03162
   5   21178.0    472.2   0.286477621   0.04147   0.04543  -0.00546  -0.19842
   6   22261.1    449.2   0.148807616   0.02264   0.04209   0.05472  -0.13369
   7   25017.3    399.7   0.004023027   0.00069  -0.01772   0.01135  -0.01565
   8   25418.8    393.4   0.073444716   0.01276   0.07261   0.05697  -0.06512
   9   25790.5    387.7   0.138793058   0.02446   0.13292   0.05352   0.06270
  10   25915.7    385.9   0.013529880   0.00240  -0.01437  -0.00644  -0.04635
  11   26486.4    377.6   0.061726208   0.01117  -0.03466  -0.09121  -0.04065
  12   26912.5    371.6   0.013825433   0.00254  -0.03939   0.02870  -0.01295
  13   27510.8    363.5   0.192307059   0.03616   0.15958   0.09600  -0.03845
  14   28121.0    355.6   0.242473892   0.04660  -0.18288  -0.11195   0.02495
  15   28395.4    352.2   0.036337808   0.00705   0.05975   0.03844  -0.04477
  16   29716.3    336.5   0.096158452   0.01953  -0.00956   0.13091  -0.04796
  17   29869.9    334.8   0.034602704   0.00706   0.07258   0.00125  -0.04236
  18   30180.3    331.3   0.107531078   0.02218  -0.12753  -0.07685   0.00327
  19   30689.5    325.8   0.004493002   0.00094   0.02198   0.01556   0.01473
  20   30952.8    323.1   0.026512909   0.00561  -0.07170  -0.00644   0.02064
  21   31807.6    314.4   0.029940566   0.00651   0.07122   0.01365  -0.03535
  22   31907.3    313.4   0.091913879   0.02004  -0.08819  -0.03507  -0.10505
  23   31955.5    312.9   0.016805716   0.00367  -0.02794   0.00577  -0.05345
  24   32315.0    309.5   0.001241348   0.00027  -0.00648  -0.00932   0.01205
  25   32551.8    307.2   0.151804794   0.03377   0.18170  -0.00263  -0.02741
  26   32841.7    304.5   0.086124923   0.01933   0.07717   0.05797  -0.10008
  27   32905.1    303.9   0.013830315   0.00311   0.01734  -0.05182   0.01116
  28   33113.8    302.0   0.623519350   0.14111   0.29472   0.21921   0.07874
  29   33475.2    298.7   0.094999767   0.02173   0.02347   0.01727   0.14452
  30   33738.1    296.4   0.047362753   0.01092   0.09869   0.03287   0.01007
  31   34080.6    293.4   0.010624319   0.00247  -0.01944   0.04230  -0.01753
  32   34232.5    292.1   0.093341726   0.02184  -0.01465   0.00723   0.14687
  33   35342.8    282.9   0.099580607   0.02405   0.07830   0.10775  -0.07946
  34   35680.3    280.3   0.064396962   0.01570   0.12172   0.02810   0.00985
  35   35764.4    279.6   0.016389237   0.00401   0.06013   0.01253  -0.01529
  36   36025.0    277.6   0.082247145   0.02025   0.13690  -0.03842  -0.00566
  37   36343.2    275.2   0.041064566   0.01020   0.06836  -0.04563   0.05869
  38   36691.8    272.5   0.019818473   0.00497  -0.00703  -0.00651   0.06984
  39   36998.3    270.3   0.093781553   0.02371   0.08404   0.06563  -0.11110
  40   37319.5    268.0   0.080601826   0.02056  -0.13070   0.01918  -0.05575
  41   37394.3    267.4   0.145492077   0.03718  -0.03164   0.03015   0.18781
  42   37804.8    264.5   0.003947142   0.00102   0.01838   0.02611  -0.00067
  43   38259.2    261.4   0.026716156   0.00699   0.07411  -0.01399   0.03603
  44   38382.6    260.5   0.014339005   0.00376   0.03525   0.04032  -0.02988
  45   38512.0    259.7   0.026332762   0.00693  -0.05083   0.03247  -0.05738
  46   38726.3    258.2   0.014422235   0.00382  -0.04350  -0.02779   0.03396
  47   38827.7    257.5   0.072438963   0.01922   0.10950  -0.04423  -0.07265
  48   38958.5    256.7   0.085143331   0.02267  -0.00259  -0.02221   0.14890
  49   39285.8    254.5   0.053031489   0.01424  -0.00918   0.04774   0.10898
  50   39560.0    252.8   0.029450481   0.00796  -0.03450  -0.07541  -0.03294
  51   39728.4    251.7   0.006422380   0.00174  -0.01258   0.03935   0.00611
  52   40270.0    248.3   0.039771876   0.01095  -0.01364   0.01441  -0.10273

-------------------------------------------------------------------
                             CD SPECTRUM
-------------------------------------------------------------------
State   Energy Wavelength       R         MX        MY        MZ   
        (cm-1)   (nm)       (1e40*cgs)   (au)      (au)      (au)  
-------------------------------------------------------------------
   0   11453.8    873.1    -1004.63839  -2.39796   0.16746  -0.17088
   1   14898.5    671.2    -23.23356   1.63326   1.37056   0.61202
   2   17114.0    584.3    1330.71897   7.19899   3.31825   3.94134
   3   19107.6    523.4    -173.75398   2.53435   0.43779   2.95593
   4   20368.0    491.0     -6.44771  -0.33183  -0.08804  -0.47020
   5   21178.0    472.2     43.09317   3.57406   2.00324   0.77606
   6   22261.1    449.2    -34.35465   2.17285   0.98485   0.97402
   7   25017.3    399.7     18.09353   0.16635   0.32635   0.65587
   8   25418.8    393.4      2.50973   1.28676   0.58451   2.02330
   9   25790.5    387.7     22.44310  -0.96441  -0.61336   2.14917
  10   25915.7    385.9     36.57292   0.47623   0.86582   0.10241
  11   26486.4    377.6    -46.04495   0.31295   0.80883  -2.29718
  12   26912.5    371.6     33.22342   0.32186   0.08329   0.71613
  13   27510.8    363.5      4.39399   0.73733  -0.80977   1.02515
  14   28121.0    355.6      3.37121  -0.37726  -0.04147  -3.21253
  15   28395.4    352.2     -3.85820   0.53350   0.36764   1.00816
  16   29716.3    336.5    111.20908   0.57131   0.32703   2.19404
  17   29869.9    334.8    -25.64947   0.18723   0.74844   0.01508
  18   30180.3    331.3     15.05936  -0.18526   0.23899  -2.04944
  19   30689.5    325.8      3.18021  -0.10722  -0.18658   0.27695
  20   30952.8    323.1      8.45564  -0.10300  -0.67831  -0.85761
  21   31807.6    314.4     10.65945   0.26848   0.66531   0.99840
  22   31907.3    313.4    -97.38377   0.94136   1.47287  -1.84031
  23   31955.5    312.9    -13.32564   0.32602   0.84308  -0.24428
  24   32315.0    309.5      5.46831  -0.28318  -0.04148  -0.59053
  25   32551.8    307.2    -488.65552   1.47088  -1.57864  -0.91161
  26   32841.7    304.5    -218.39079   1.09049   0.62454  -0.10689
  27   32905.1    303.9     11.49952   0.16127   0.14362  -0.26020
  28   33113.8    302.0    529.93627  -0.73268  -2.26837   4.83148
  29   33475.2    298.7    -166.71378  -0.70815  -2.47982   1.06980
  30   33738.1    296.4    -18.20285   0.45876  -1.13948   0.30923
  31   34080.6    293.4     22.05990   0.22525  -0.25584  -0.07828
  32   34232.5    292.1     36.55604  -1.21664  -2.27744  -0.12072
  33   35342.8    282.9     22.70007   0.65856   0.49187   1.52823
  34   35680.3    280.3    130.06893  -0.78726   0.33922   1.15711
  35   35764.4    279.6      0.99635   0.05137   0.50475   0.74995
  36   36025.0    277.6    -103.40147   0.51363  -0.10633   0.54768
  37   36343.2    275.2    101.33827  -0.81471  -0.54533  -0.49659
  38   36691.8    272.5    102.58576  -0.25166  -1.82337  -1.07515
  39   36998.3    270.3     17.86196   1.77459   0.85222   1.91486
  40   37319.5    268.0    -40.28434  -0.05401   1.57718   0.19797
  41   37394.3    267.4     18.31896  -2.64642  -2.40849  -0.09959
  42   37804.8    264.5      2.08106  -0.32911   0.25026   0.84197
  43   38259.2    261.4     -5.49069  -0.04816  -0.87421  -0.16559
  44   38382.6    260.5     -1.62875   0.08837   0.52607   0.74699
  45   38512.0    259.7     50.31498   0.72072   0.66169   0.35021
  46   38726.3    258.2    -12.07057  -0.62151  -0.11817  -0.59483
  47   38827.7    257.5    -108.35946   0.93316   0.83221  -0.11392
  48   38958.5    256.7     38.70920  -1.03113  -2.43696  -0.62160
  49   39285.8    254.5     82.78717  -0.95105  -1.92331   0.21693
  50   39560.0    252.8     41.24190  -0.25994   1.16791  -1.53763
  51   39728.4    251.7    -25.54631  -0.35649   0.17409   0.88104
  52   40270.0    248.3    -63.93499   0.97292   1.12937  -0.41798

sTD-DFT done

Total run time:        6.548 sec

           *** ORCA-CIS/TD-DFT FINISHED WITHOUT ERROR ***

-------------------------   --------------------
FINAL SINGLE POINT ENERGY     -8034.980856265279
-------------------------   --------------------


                            ***************************************
                            *     ORCA property calculations      *
                            ***************************************

                                    ---------------------
                                    Active property flags
                                    ---------------------
   (+) Dipole Moment


------------------------------------------------------------------------------
                       ORCA ELECTRIC PROPERTIES CALCULATION
------------------------------------------------------------------------------

Dipole Moment Calculation                       ... on
Quadrupole Moment Calculation                   ... off
Polarizability Calculation                      ... off
GBWName                                         ... xtbopt.gbw
Electron density file                           ... xtbopt.scfp
The origin for moment calculation is the CENTER OF MASS  = (-13.097304,  8.359842  3.323791)

-------------
DIPOLE MOMENT
-------------
                                X             Y             Z
Electronic contribution:    -26.55178    -138.51960     107.78808
Nuclear contribution   :     24.73959     142.50468    -112.87008
                        -----------------------------------------
Total Dipole Moment    :     -1.81219       3.98508      -5.08200
                        -----------------------------------------
Magnitude (a.u.)       :      6.70758
Magnitude (Debye)      :     17.04931



--------------------
Rotational spectrum 
--------------------
 
Rotational constants in cm-1:     0.000851     0.000389     0.000355 
Rotational constants in MHz :    25.501606    11.669142    10.646274 

 Dipole components along the rotational axes: 
x,y,z [a.u.] :    -6.141929     1.599553     2.170192 
x,y,z [Debye]:   -15.611543     4.065740     5.516190 

 

Timings for individual modules:

Sum of individual times         ...      889.898 sec (=  14.832 min)
GTO integral calculation        ...        5.749 sec (=   0.096 min)   0.6 %
SCF iterations                  ...      874.982 sec (=  14.583 min)  98.3 %
CIS module                      ...        9.168 sec (=   0.153 min)   1.0 %
                             ****ORCA TERMINATED NORMALLY****
TOTAL RUN TIME: 0 days 0 hours 14 minutes 52 seconds 355 msec
