
                                 *****************
                                 * O   R   C   A *
                                 *****************

           --- An Ab Initio, DFT and Semiempirical electronic structure package ---

                  #######################################################
                  #                        -***-                        #
                  #          Department of theory and spectroscopy      #
                  #               Directorship: Frank Neese             #
                  #        Max Planck Institute fuer Kohlenforschung    #
                  #                Kaiser Wilhelm Platz 1               #
                  #                 D-45470 Muelheim/Ruhr               #
                  #                      Germany                        #
                  #                                                     #
                  #                  All rights reserved                #
                  #                        -***-                        #
                  #######################################################


                         Program Version 4.2.0 -  RELEASE  -


 With contributions from (in alphabetic order):
   Daniel Aravena         : Magnetic Suceptibility
   Michael Atanasov       : Ab Initio Ligand Field Theory (pilot matlab implementation)
   Alexander A. Auer      : GIAO ZORA, VPT2
   Ute Becker             : Parallelization
   Giovanni Bistoni       : ED, misc. LED, open-shell LED, HFLED
   Martin Brehm           : Molecular dynamics
   Dmytro Bykov           : SCF Hessian
   Vijay G. Chilkuri      : MRCI spin determinant printing, contributions to CSF-ICE
   Dipayan Datta          : RHF DLPNO-CCSD density
   Achintya Kumar Dutta   : EOM-CC, STEOM-CC
   Dmitry Ganyushin       : Spin-Orbit,Spin-Spin,Magnetic field MRCI
   Miquel Garcia          : C-PCM Hessian, Gaussian charge scheme
   Yang Guo               : DLPNO-NEVPT2, CIM, IAO-localization
   Andreas Hansen         : Spin unrestricted coupled pair/coupled cluster methods
   Benjamin Helmich-Paris : CASSCF linear response (MC-RPA)
   Lee Huntington         : MR-EOM, pCC
   Robert Izsak           : Overlap fitted RIJCOSX, COSX-SCS-MP3, EOM
   Christian Kollmar      : KDIIS, OOCD, Brueckner-CCSD(T), CCSD density
   Simone Kossmann        : Meta GGA functionals, TD-DFT gradient, OOMP2, MP2 Hessian
   Martin Krupicka        : AUTO-CI
   Lucas Lang             : DCDCAS
   Dagmar Lenk            : GEPOL surface, SMD
   Dimitrios Liakos       : Extrapolation schemes; Compound Job, initial MDCI parallelization
   Dimitrios Manganas     : Further ROCIS development; embedding schemes
   Dimitrios Pantazis     : SARC Basis sets
   Taras Petrenko         : DFT Hessian,TD-DFT gradient, ASA, ECA, R-Raman, ABS, FL, XAS/XES, NRVS
   Peter Pinski           : DLPNO-MP2, DLPNO-MP2 Gradient
   Christoph Reimann      : Effective Core Potentials
   Marius Retegan         : Local ZFS, SOC
   Christoph Riplinger    : Optimizer, TS searches, QM/MM, DLPNO-CCSD(T), (RO)-DLPNO pert. Triples
   Tobias Risthaus        : Range-separated hybrids, TD-DFT gradient, RPA, STAB
   Michael Roemelt        : Original ROCIS implementation
   Masaaki Saitow         : Open-shell DLPNO-CCSD energy and density
   Barbara Sandhoefer     : DKH picture change effects
   Avijit Sen             : IP-ROCIS
   Kantharuban Sivalingam : CASSCF convergence, NEVPT2, FIC-MRCI
   Bernardo de Souza      : ESD, SOC TD-DFT
   Georgi Stoychev        : AutoAux, RI-MP2 NMR
   Willem Van den Heuvel  : Paramagnetic NMR
   Boris Wezisla          : Elementary symmetry handling
   Frank Wennmohs         : Technical directorship


 We gratefully acknowledge several colleagues who have allowed us to
 interface, adapt or use parts of their codes:
   Stefan Grimme, W. Hujo, H. Kruse,             : VdW corrections, initial TS optimization,
                  C. Bannwarth                     DFT functionals, gCP, sTDA/sTD-DF
   Ed Valeev, F. Pavosevic, A. Kumar             : LibInt (2-el integral package), F12 methods
   Garnet Chan, S. Sharma, J. Yang, R. Olivares  : DMRG
   Ulf Ekstrom                                   : XCFun DFT Library
   Mihaly Kallay                                 : mrcc  (arbitrary order and MRCC methods)
   Andreas Klamt, Michael Diedenhofen            : otool_cosmo (COSMO solvation model)
   Jiri Pittner, Ondrej Demel                    : Mk-CCSD
   Frank Weinhold                                : gennbo (NPA and NBO analysis)
   Christopher J. Cramer and Donald G. Truhlar   : smd solvation model
   Lars Goerigk                                  : TD-DFT with DH, B97 family of functionals
   V. Asgeirsson, H. Jonsson                     : NEB implementation
   FAccTs GmbH                                   : IRC, NEB, NEB-TS, Multilevel, MM, QM/MM, CI optimization
   S Lehtola, MJT Oliveira, MAL Marques          : LibXC Library


 Your calculation uses the libint2 library for the computation of 2-el integrals
 For citations please refer to: http://libint.valeyev.net

 Your ORCA version has been built with support for libXC version: 4.2.3
 For citations please refer to: https://tddft.org/programs/libxc/

 This ORCA versions uses:
   CBLAS   interface :  Fast vector & matrix operations
   LAPACKE interface :  Fast linear algebra routines
   SCALAPACK package :  Parallel linear algebra routines


XCFun DFT library Copyright 2009-2010 Ulf Ekstrom and contributors.
See http://admol.org/xcfun for more information. This is free soft-
ware; see the source code for copying conditions. There is ABSOLUTELY
NO WARRANTY; not even for MERCHANTABILITY or FITNESS FOR A PARTICULAR
PURPOSE. For details see the documentation. Scientific users of this 
library should cite U. Ekstrom, L. Visscher, R. Bast, A. J. Thorvald-
sen and K. Ruud; J.Chem.Theor.Comp. 2010, DOI: 10.1021/ct100117s
XCFun Version 0.99 
----- Orbital basis set information -----
Your calculation utilizes the basis: def2-SVP
   F. Weigend and R. Ahlrichs, Phys. Chem. Chem. Phys. 7, 3297 (2005).

----- AuxJ basis set information -----
Your calculation utilizes the auxiliary basis: def2/J
   F. Weigend, Phys. Chem. Chem. Phys. 8, 1057 (2006).

================================================================================
                                        WARNINGS
                       Please study these warnings very carefully!
================================================================================

INFO   : Checking CIS options ...

WARNING: CIS/ROCIS methods need fully converged wavefunctions
  ===> : Setting SCFConvForced true
         You can overwrite this default with %scf ConvForced false 


INFO   : the flag for use of LIBINT has been found!

================================================================================
                                       INPUT FILE
================================================================================
NAME = xtbopt.inp
|  1> # ORCA input file
|  2> # SCF done       -196.412502379742          0.000626785087
|  3> ! CAM-B3LYP def2-SVP def2/J RIJCOSX Grid4 TightSCF
|  4> %maxcore 5000
|  5> %tddft
|  6>     Mode sTDDFT
|  7>     Ethresh 5.0
|  8>     maxcore 5000
|  9> end
| 10> 
| 11> %pal
| 12>   nprocs 6
| 13>   end
| 14> * xyz 0 1
| 15>    C       -5.34350         2.73271         5.95606
| 16>    C       -4.32755         2.18398         6.70597
| 17>    C       -4.52838         1.44152         7.88560
| 18>    N       -4.62191         0.82703         8.85220
| 19>    C       -2.95099         2.28793         6.42972
| 20>    N       -1.81089         2.32416         6.28233
| 21>    C       -6.76741         2.60345         6.26086
| 22>    C       -7.50132         3.31352         5.28203
| 23>    C       -8.87116         3.38870         5.29152
| 24>    C       -9.55502         2.71943         6.31324
| 25>    C       -8.81426         2.00982         7.28465
| 26>    C       -7.42550         1.94068         7.27882
| 27>    S       -9.85458         1.25615         8.45710
| 28>    C      -11.25073         1.89770         7.63388
| 29>    C      -10.95677         2.63705         6.53887
| 30>   Br      -12.96817         1.53014         8.29612
| 31>    C       -6.56196         3.93011         4.31797
| 32>    O       -6.87161         4.69838         3.42584
| 33>    C       -5.21839         3.49597         4.73824
| 34>    C       -4.02565         3.86928         4.15256
| 35>    C       -3.83366         4.45559         2.89671
| 36>    C       -4.70507         4.37585         1.72054
| 37>    C       -5.54476         3.36704         1.44423
| 38>    C       -4.25447         5.40000         0.78515
| 39>    C       -2.95722         5.82704         1.23986
| 40>    C       -2.72368         5.23345         2.54408
| 41>    C       -1.55450         5.50851         3.28419
| 42>    C       -0.55865         6.30077         2.82317
| 43>    S       -0.56652         7.12462         1.30882
| 44>    C       -2.08380         6.67539         0.63542
| 45>    C       -4.98238         5.93328        -0.25829
| 46>    C       -6.35845         5.76625        -0.36646
| 47>    C       -7.19632         6.19868        -1.38504
| 48>    C       -6.84977         6.59838        -2.75309
| 49>    C       -5.67910         6.36564        -3.36874
| 50>    C       -8.06251         7.11261        -3.39289
| 51>    C       -9.13444         6.94476        -2.45161
| 52>    C       -8.59123         6.34909        -1.24102
| 53>    C       -9.38032         6.06367        -0.11639
| 54>    C      -10.71047         6.32195        -0.04746
| 55>    S      -11.61180         7.09286        -1.30253
| 56>    C      -10.44232         7.33052        -2.53081
| 57>    C       -8.07820         7.63178        -4.67930
| 58>    C       -9.18570         7.90767        -5.45837
| 59>    C       -9.13690         8.45636        -6.74682
| 60>    C      -10.29114         8.78667        -7.46063
| 61>    O      -10.27047         9.00434        -8.82785
| 62>    C       -9.03870         9.04460        -9.39640
| 63>    C       -7.84720         8.86113        -8.63332
| 64>    C       -6.72159         8.97298        -9.38166
| 65>    S       -7.09708         9.30068       -11.03230
| 66>    C       -8.78968         9.28829       -10.70837
| 67>    O       -7.87599         8.57687        -7.30381
| 68>    C      -11.58572         8.88377        -6.89883
| 69>    C      -11.84731         9.21989        -5.60236
| 70>    C      -13.10535         9.15997        -4.93280
| 71>    C      -14.21217         8.51750        -5.46079
| 72>    C      -15.39568         8.42476        -4.71398
| 73>    C      -16.61803         7.82896        -5.01068
| 74>    C      -16.96447         7.12095        -6.27842
| 75>    C      -17.54383         5.71578        -6.03524
| 76>    N      -17.14606         4.83436        -7.11901
| 77>    C      -17.90999         7.98214        -7.13523
| 78>    N      -17.18300         9.13258        -7.64048
| 79>    C      -17.47533         8.04512        -3.87215
| 80>    C      -18.75662         7.70188        -3.62837
| 81>    C      -19.41996         8.00566        -2.32667
| 82>    C      -18.58741         8.79887        -1.37545
| 83>    C      -17.31955         9.15825        -1.63812
| 84>    C      -16.71032         8.79517        -2.86521
| 85>    C      -15.45358         9.01738        -3.38310
| 86>    C      -14.30983         9.67046        -2.86416
| 87>    C      -13.18459         9.73281        -3.61441
| 88>    C      -19.85529         6.67077        -1.74772
| 89>    C      -19.23416         6.04857        -0.76526
| 90>    H       -9.40167         3.94311         4.53316
| 91>    H       -6.90876         1.38868         8.04561
| 92>    H      -11.69584         3.10622         5.91541
| 93>    H       -3.13110         3.73517         4.74687
| 94>    H       -6.02154         3.27496         0.48490
| 95>    H       -5.73673         2.58494         2.15768
| 96>    H       -1.42916         5.04790         4.25389
| 97>    H        0.34160         6.47841         3.38728
| 98>    H       -2.27212         7.12251        -0.32646
| 99>    H       -4.48283         6.60679        -0.94199
|100>    H       -6.83822         5.33960         0.50502
|101>    H       -4.86730         5.86230        -2.87751
|102>    H       -5.51686         6.63906        -4.39658
|103>    H       -8.91031         5.61021         0.74518
|104>    H      -11.30615         6.08374         0.81661
|105>    H      -10.86602         7.84410        -3.37391
|106>    H       -7.11546         7.83818        -5.12785
|107>    H      -10.16252         7.61031        -5.12599
|108>    H       -5.70483         8.88155        -9.06233
|109>    H       -9.49689         9.46026       -11.49212
|110>    H      -12.39770         8.75394        -7.60077
|111>    H      -11.01981         9.58823        -5.00754
|112>    H      -14.16488         8.07128        -6.44160
|113>    H      -16.04620         6.98418        -6.85575
|114>    H      -18.63829         5.77779        -5.91065
|115>    H      -17.12383         5.30735        -5.11157
|116>    H      -17.51676         5.16919        -8.00198
|117>    H      -17.50082         3.89677        -6.96694
|118>    H      -18.79622         8.25203        -6.53415
|119>    H      -18.25118         7.40658        -8.00173
|120>    H      -16.79604         9.66265        -6.86585
|121>    H      -17.79795         9.74478        -8.16501
|122>    H      -19.35072         7.15571        -4.34691
|123>    H      -20.34244         8.57065        -2.53497
|124>    H      -19.06518         9.06553        -0.44434
|125>    H      -16.74828         9.73272        -0.92271
|126>    H      -14.34578        10.10652        -1.87638
|127>    H      -12.30363        10.22875        -3.23005
|128>    H      -20.71414         6.22351        -2.23038
|129>    H      -18.36855         6.46993        -0.28261
|130>    H      -19.57147         5.09255        -0.40248
|131> *
|132> 
|133>                          ****END OF INPUT****
================================================================================

                       ****************************
                       * Single Point Calculation *
                       ****************************

---------------------------------
CARTESIAN COORDINATES (ANGSTROEM)
---------------------------------
  C     -5.343500    2.732710    5.956060
  C     -4.327550    2.183980    6.705970
  C     -4.528380    1.441520    7.885600
  N     -4.621910    0.827030    8.852200
  C     -2.950990    2.287930    6.429720
  N     -1.810890    2.324160    6.282330
  C     -6.767410    2.603450    6.260860
  C     -7.501320    3.313520    5.282030
  C     -8.871160    3.388700    5.291520
  C     -9.555020    2.719430    6.313240
  C     -8.814260    2.009820    7.284650
  C     -7.425500    1.940680    7.278820
  S     -9.854580    1.256150    8.457100
  C    -11.250730    1.897700    7.633880
  C    -10.956770    2.637050    6.538870
  Br   -12.968170    1.530140    8.296120
  C     -6.561960    3.930110    4.317970
  O     -6.871610    4.698380    3.425840
  C     -5.218390    3.495970    4.738240
  C     -4.025650    3.869280    4.152560
  C     -3.833660    4.455590    2.896710
  C     -4.705070    4.375850    1.720540
  C     -5.544760    3.367040    1.444230
  C     -4.254470    5.400000    0.785150
  C     -2.957220    5.827040    1.239860
  C     -2.723680    5.233450    2.544080
  C     -1.554500    5.508510    3.284190
  C     -0.558650    6.300770    2.823170
  S     -0.566520    7.124620    1.308820
  C     -2.083800    6.675390    0.635420
  C     -4.982380    5.933280   -0.258290
  C     -6.358450    5.766250   -0.366460
  C     -7.196320    6.198680   -1.385040
  C     -6.849770    6.598380   -2.753090
  C     -5.679100    6.365640   -3.368740
  C     -8.062510    7.112610   -3.392890
  C     -9.134440    6.944760   -2.451610
  C     -8.591230    6.349090   -1.241020
  C     -9.380320    6.063670   -0.116390
  C    -10.710470    6.321950   -0.047460
  S    -11.611800    7.092860   -1.302530
  C    -10.442320    7.330520   -2.530810
  C     -8.078200    7.631780   -4.679300
  C     -9.185700    7.907670   -5.458370
  C     -9.136900    8.456360   -6.746820
  C    -10.291140    8.786670   -7.460630
  O    -10.270470    9.004340   -8.827850
  C     -9.038700    9.044600   -9.396400
  C     -7.847200    8.861130   -8.633320
  C     -6.721590    8.972980   -9.381660
  S     -7.097080    9.300680  -11.032300
  C     -8.789680    9.288290  -10.708370
  O     -7.875990    8.576870   -7.303810
  C    -11.585720    8.883770   -6.898830
  C    -11.847310    9.219890   -5.602360
  C    -13.105350    9.159970   -4.932800
  C    -14.212170    8.517500   -5.460790
  C    -15.395680    8.424760   -4.713980
  C    -16.618030    7.828960   -5.010680
  C    -16.964470    7.120950   -6.278420
  C    -17.543830    5.715780   -6.035240
  N    -17.146060    4.834360   -7.119010
  C    -17.909990    7.982140   -7.135230
  N    -17.183000    9.132580   -7.640480
  C    -17.475330    8.045120   -3.872150
  C    -18.756620    7.701880   -3.628370
  C    -19.419960    8.005660   -2.326670
  C    -18.587410    8.798870   -1.375450
  C    -17.319550    9.158250   -1.638120
  C    -16.710320    8.795170   -2.865210
  C    -15.453580    9.017380   -3.383100
  C    -14.309830    9.670460   -2.864160
  C    -13.184590    9.732810   -3.614410
  C    -19.855290    6.670770   -1.747720
  C    -19.234160    6.048570   -0.765260
  H     -9.401670    3.943110    4.533160
  H     -6.908760    1.388680    8.045610
  H    -11.695840    3.106220    5.915410
  H     -3.131100    3.735170    4.746870
  H     -6.021540    3.274960    0.484900
  H     -5.736730    2.584940    2.157680
  H     -1.429160    5.047900    4.253890
  H      0.341600    6.478410    3.387280
  H     -2.272120    7.122510   -0.326460
  H     -4.482830    6.606790   -0.941990
  H     -6.838220    5.339600    0.505020
  H     -4.867300    5.862300   -2.877510
  H     -5.516860    6.639060   -4.396580
  H     -8.910310    5.610210    0.745180
  H    -11.306150    6.083740    0.816610
  H    -10.866020    7.844100   -3.373910
  H     -7.115460    7.838180   -5.127850
  H    -10.162520    7.610310   -5.125990
  H     -5.704830    8.881550   -9.062330
  H     -9.496890    9.460260  -11.492120
  H    -12.397700    8.753940   -7.600770
  H    -11.019810    9.588230   -5.007540
  H    -14.164880    8.071280   -6.441600
  H    -16.046200    6.984180   -6.855750
  H    -18.638290    5.777790   -5.910650
  H    -17.123830    5.307350   -5.111570
  H    -17.516760    5.169190   -8.001980
  H    -17.500820    3.896770   -6.966940
  H    -18.796220    8.252030   -6.534150
  H    -18.251180    7.406580   -8.001730
  H    -16.796040    9.662650   -6.865850
  H    -17.797950    9.744780   -8.165010
  H    -19.350720    7.155710   -4.346910
  H    -20.342440    8.570650   -2.534970
  H    -19.065180    9.065530   -0.444340
  H    -16.748280    9.732720   -0.922710
  H    -14.345780   10.106520   -1.876380
  H    -12.303630   10.228750   -3.230050
  H    -20.714140    6.223510   -2.230380
  H    -18.368550    6.469930   -0.282610
  H    -19.571470    5.092550   -0.402480

----------------------------
CARTESIAN COORDINATES (A.U.)
----------------------------
  NO LB      ZA    FRAG     MASS         X           Y           Z
   0 C     6.0000    0    12.011  -10.097752    5.164074   11.255322
   1 C     6.0000    0    12.011   -8.177884    4.127124   12.672447
   2 C     6.0000    0    12.011   -8.557398    2.724078   14.901624
   3 N     7.0000    0    14.007   -8.734144    1.562860   16.728234
   4 C     6.0000    0    12.011   -5.576563    4.323561   12.150410
   5 N     7.0000    0    14.007   -3.422086    4.392026   11.871883
   6 C     6.0000    0    12.011  -12.788552    4.919808   11.831311
   7 C     6.0000    0    12.011  -14.175440    6.261645    9.981590
   8 C     6.0000    0    12.011  -16.764063    6.403715    9.999524
   9 C     6.0000    0    12.011  -18.056371    5.138978   11.930295
  10 C     6.0000    0    12.011  -16.656537    3.798009   13.765993
  11 C     6.0000    0    12.011  -14.032161    3.667354   13.754976
  12 S    16.0000    0    32.060  -18.622457    2.373779   15.981603
  13 C     6.0000    0    12.011  -21.260799    3.586133   14.425943
  14 C     6.0000    0    12.011  -20.705295    4.983302   12.356674
  15 Br   35.0000    0    79.900  -24.506290    2.891546   15.677395
  16 C     6.0000    0    12.011  -12.400307    7.426832    8.159781
  17 O     8.0000    0    15.999  -12.985461    8.878651    6.473899
  18 C     6.0000    0    12.011   -9.861328    6.606426    8.953976
  19 C     6.0000    0    12.011   -7.607376    7.311880    7.847201
  20 C     6.0000    0    12.011   -7.244567    8.419845    5.473989
  21 C     6.0000    0    12.011   -8.891294    8.269158    3.251349
  22 C     6.0000    0    12.011  -10.478078    6.362783    2.729199
  23 C     6.0000    0    12.011   -8.039783   10.204521    1.483718
  24 C     6.0000    0    12.011   -5.588336   11.011510    2.342996
  25 C     6.0000    0    12.011   -5.147009    9.889787    4.807614
  26 C     6.0000    0    12.011   -2.937579   10.409575    6.206220
  27 C     6.0000    0    12.011   -1.055696   11.906730    5.335018
  28 S    16.0000    0    32.060   -1.070568   13.463581    2.473311
  29 C     6.0000    0    12.011   -3.937811   12.614659    1.200770
  30 C     6.0000    0    12.011   -9.415334   11.212274   -0.488097
  31 C     6.0000    0    12.011  -12.015729   10.896633   -0.692509
  32 C     6.0000    0    12.011  -13.599074   11.713808   -2.617346
  33 C     6.0000    0    12.011  -12.944189   12.469131   -5.202586
  34 C     6.0000    0    12.011  -10.731944   12.029316   -6.365996
  35 C     6.0000    0    12.011  -15.235936   13.440885   -6.411633
  36 C     6.0000    0    12.011  -17.261590   13.123694   -4.632871
  37 C     6.0000    0    12.011  -16.235072   11.998041   -2.345188
  38 C     6.0000    0    12.011  -17.726236   11.458676   -0.219945
  39 C     6.0000    0    12.011  -20.239855   11.946754   -0.089686
  40 S    16.0000    0    32.060  -21.943122   13.403563   -2.461425
  41 C     6.0000    0    12.011  -19.733125   13.852675   -4.782538
  42 C     6.0000    0    12.011  -15.265586   14.421974   -8.842595
  43 C     6.0000    0    12.011  -17.358457   14.943331  -10.314824
  44 C     6.0000    0    12.011  -17.266239   15.980204  -12.749642
  45 C     6.0000    0    12.011  -19.447436   16.604400  -14.098547
  46 O     8.0000    0    15.999  -19.408376   17.015737  -16.682219
  47 C     6.0000    0    12.011  -17.080668   17.091817  -17.756623
  48 C     6.0000    0    12.011  -14.829059   16.745109  -16.314610
  49 C     6.0000    0    12.011  -12.701964   16.956475  -17.728768
  50 S    16.0000    0    32.060  -13.411538   17.575738  -20.848026
  51 C     6.0000    0    12.011  -16.610088   17.552324  -20.235887
  52 O     8.0000    0    15.999  -14.883464   16.207935  -13.802201
  53 C     6.0000    0    12.011  -21.893838   16.787892  -13.036899
  54 C     6.0000    0    12.011  -22.388171   17.423067  -10.586926
  55 C     6.0000    0    12.011  -24.765522   17.309835   -9.321641
  56 C     6.0000    0    12.011  -26.857109   16.095742  -10.319398
  57 C     6.0000    0    12.011  -29.093619   15.920489   -8.908131
  58 C     6.0000    0    12.011  -31.403526   14.794590   -9.468813
  59 C     6.0000    0    12.011  -32.058202   13.456645  -11.864494
  60 C     6.0000    0    12.011  -33.153034   10.801259  -11.404951
  61 N     7.0000    0    14.007  -32.401358    9.135616  -13.452979
  62 C     6.0000    0    12.011  -33.844976   15.084059  -13.483631
  63 N     7.0000    0    14.007  -32.471164   17.258075  -14.438415
  64 C     6.0000    0    12.011  -33.023588   15.203074   -7.317303
  65 C     6.0000    0    12.011  -35.444875   14.554444   -6.856626
  66 C     6.0000    0    12.011  -36.698406   15.128505   -4.396769
  67 C     6.0000    0    12.011  -35.125114   16.627455   -2.599224
  68 C     6.0000    0    12.011  -32.729206   17.306584   -3.095598
  69 C     6.0000    0    12.011  -31.577928   16.620463   -5.414462
  70 C     6.0000    0    12.011  -29.203034   17.040379   -6.393132
  71 C     6.0000    0    12.011  -27.041660   18.274521   -5.412478
  72 C     6.0000    0    12.011  -24.915264   18.392345   -6.830245
  73 C     6.0000    0    12.011  -37.521060   12.605928   -3.302712
  74 C     6.0000    0    12.011  -36.347295   11.430141   -1.446132
  75 H     1.0000    0     1.008  -17.766582    7.451398    8.566431
  76 H     1.0000    0     1.008  -13.055664    2.624225   15.203999
  77 H     1.0000    0     1.008  -22.101935    5.869905   11.178505
  78 H     1.0000    0     1.008   -5.916921    7.058448    8.970284
  79 H     1.0000    0     1.008  -11.379062    6.188777    0.916328
  80 H     1.0000    0     1.008  -10.840849    4.884829    4.077424
  81 H     1.0000    0     1.008   -2.700721    9.539149    8.038687
  82 H     1.0000    0     1.008    0.645530   12.242421    6.401032
  83 H     1.0000    0     1.008   -4.293685   13.459593   -0.616920
  84 H     1.0000    0     1.008   -8.471321   12.485024   -1.780103
  85 H     1.0000    0     1.008  -12.922363   10.090382    0.954349
  86 H     1.0000    0     1.008   -9.197864   11.078142   -5.437706
  87 H     1.0000    0     1.008  -10.425355   12.546005   -8.308332
  88 H     1.0000    0     1.008  -16.838046   10.601760    1.408186
  89 H     1.0000    0     1.008  -21.365527   11.496602    1.543169
  90 H     1.0000    0     1.008  -20.533802   14.823201   -6.375766
  91 H     1.0000    0     1.008  -13.446271   14.812014   -9.690232
  92 H     1.0000    0     1.008  -19.204380   14.381402   -9.686717
  93 H     1.0000    0     1.008  -10.780566   16.783697  -17.125322
  94 H     1.0000    0     1.008  -17.946521   17.877301  -21.716959
  95 H     1.0000    0     1.008  -23.428258   16.542549  -14.363374
  96 H     1.0000    0     1.008  -20.824423   18.119129   -9.462879
  97 H     1.0000    0     1.008  -26.767744   15.252509  -12.172860
  98 H     1.0000    0     1.008  -30.322923   13.198187  -12.955490
  99 H     1.0000    0     1.008  -35.221264   10.918441  -11.169510
 100 H     1.0000    0     1.008  -32.359349   10.029438   -9.659467
 101 H     1.0000    0     1.008  -33.101879    9.768353  -15.121551
 102 H     1.0000    0     1.008  -33.071757    7.363828  -13.165609
 103 H     1.0000    0     1.008  -35.519708   15.594077  -12.347754
 104 H     1.0000    0     1.008  -34.489732   13.996408  -15.121078
 105 H     1.0000    0     1.008  -31.739916   18.259762  -12.974576
 106 H     1.0000    0     1.008  -33.633251   18.414965  -15.429633
 107 H     1.0000    0     1.008  -36.567561   13.522332   -8.214469
 108 H     1.0000    0     1.008  -38.441640   16.196181   -4.790399
 109 H     1.0000    0     1.008  -36.027969   17.131369   -0.839681
 110 H     1.0000    0     1.008  -31.649662   18.392175   -1.743669
 111 H     1.0000    0     1.008  -27.109595   19.098555   -3.545844
 112 H     1.0000    0     1.008  -23.250491   19.329536   -6.103910
 113 H     1.0000    0     1.008  -39.144052   11.760729   -4.214807
 114 H     1.0000    0     1.008  -34.711529   12.226396   -0.534056
 115 H     1.0000    0     1.008  -36.984718    9.623525   -0.760577

--------------------------------
INTERNAL COORDINATES (ANGSTROEM)
--------------------------------
 C      0   0   0     0.000000000000     0.00000000     0.00000000
 C      1   0   0     1.376816626679     0.00000000     0.00000000
 C      2   1   0     1.408228134004   124.13519386     0.00000000
 N      3   2   1     1.149200322398   176.45994150   179.08700391
 C      2   1   3     1.407848393329   125.81679708   180.81378989
 N      5   2   1     1.150158439086   175.34113885   178.19704124
 C      1   2   3     1.461892908424   124.74494709   358.81790722
 C      7   1   2     1.414542845551   108.46299302   179.14413848
 C      8   7   1     1.371934298026   122.73546131   180.22627710
 C      9   8   7     1.399820913867   117.81623124   359.44596586
 C     10   9   8     1.412766476740   119.06906778     0.37068565
 C      7   1   2     1.381516949806   131.30172698   358.99307134
 S     11  10   9     1.739230626973   111.56452466   179.97474174
 C     13  11  10     1.743132924765    90.07070982     0.00000000
 C     14  13  11     1.353550074508   114.15134701     0.00000000
 Br    14  13  11     1.877035515061   119.61383820   179.95488588
 C      8   7   1     1.480537781112   109.29641048   359.67449932
 O     17   8   7     1.217381555758   125.35388462   186.61626086
 C      1   2   3     1.442672482617   127.34721151   180.36762141
 C     19   1   2     1.380221042478   125.18637689   356.23722450
 C     20  19   1     1.399206488943   127.79027352   171.13153699
 C     21  20  19     1.465977395665   128.00676294   335.20171597
 C     22  21  20     1.341314328672   125.33148788   332.90230083
 C     22  21  20     1.458381992003   107.02177667   166.33081211
 C     24  22  21     1.439438052922   106.50977293    14.27177110
 C     21  20  19     1.400524793390   124.57381363   155.95347179
 C     26  21  20     1.410816319760   129.27201198     5.35548945
 C     27  26  21     1.353489035973   123.03721213   180.95931049
 S     28  27  26     1.723962494343   125.13947500     1.75117310
 C     25  24  22     1.359377774020   128.58907337   173.57992231
 C     24  22  21     1.379495400536   126.41157625   199.42247752
 C     31  24  22     1.390384268719   122.31933758    14.77678827
 C     32  31  24     1.387993897033   128.10510333   182.91704700
 C     33  32  31     1.466771214266   128.80950547    18.70738459
 C     34  33  32     1.343004497014   125.89375670    14.47527437
 C     34  33  32     1.464416211499   107.90981863   186.15728365
 C     36  34  33     1.436389775026   106.89840228   356.49657633
 C     33  32  31     1.410368333663   123.73326362   199.87789007
 C     38  33  32     1.403182183966   128.04970358   357.66270444
 C     39  38  33     1.356745711547   123.59584679   175.70915959
 S     40  39  38     1.726817506832   124.04120230   357.48745146
 C     37  36  34     1.365881953904   130.05898669   175.84268770
 C     36  34  33     1.387311916297   123.08599383   177.18621035
 C     43  36  34     1.381890591545   127.34004270   166.97955639
 C     44  43  36     1.401265698788   124.65589889   178.78230087
 C     45  44  43     1.396746000460   122.25770211   183.76752517
 O     46  45  44     1.384593083256   121.97036968   196.61618552
 C     47  46  45     1.357249904402   115.58528424   351.91982438
 C     48  47  46     1.426753159204   122.00874190     0.58659040
 C     49  48  47     1.356289441897   112.79108024   181.63880321
 S     50  49  48     1.724236770197   111.29346770   359.86597733
 C     48  47  46     1.357446521009   125.21717852   182.25535007
 O     49  48  47     1.359863762220   122.14736043     2.96018254
 C     46  45  44     1.414561778927   124.71896353    14.09695238
 C     54  46  45     1.364639308902   124.72618183    28.56629956
 C     55  54  46     1.426382011104   127.20607874   189.15961229
 C     56  55  54     1.384410218613   123.06583135    11.82967881
 C     57  56  55     1.402505545016   120.14954386   176.06139907
 C     58  57  56     1.391814661692   130.98809879   180.75672422
 C     59  58  57     1.492803919241   126.00670099   359.38931790
 C     60  59  58     1.539252172615   112.71522684   128.12189454
 N     61  60  59     1.452473614976   109.45221258   213.01675581
 C     60  59  58     1.539408867910   110.48025324   253.68319740
 N     63  60  59     1.451655681007   109.23669781    69.35898164
 C     59  58  57     1.441505808695   106.84306905   180.12739331
 C     65  59  58     1.348683228227   132.03673190   179.01540582
 C     66  65  59     1.492221543203   121.88288859   177.81618878
 C     67  66  65     1.492360913117   114.59635580     4.30907426
 C     68  67  66     1.343733043763   122.95164221   356.94060733
 C     69  68  67     1.417299596910   120.41838723     0.40205682
 C     70  69  68     1.377309973753   132.56644471   180.41701848
 C     71  70  69     1.415618688948   132.36201745     1.25347833
 C     72  71  70     1.353856581252   119.31558940   179.74219844
 C     67  66  65     1.518758250513   106.32098092   239.26499786
 C     74  67  66     1.318394086948   124.32101787   103.57938677
 H      9   8   7     1.078851796031   120.94954941   179.66534786
 H     12   7   1     1.076889563372   122.81959093     0.22595176
 H     15  14  13     1.074731280553   123.94582793   180.00881967
 H     20  19   1     1.082316760796   116.59771254   348.22059786
 H     23  22  21     1.075226461588   121.72181444   191.50603885
 H     23  22  21     1.075892091894   121.45482395     8.54882354
 H     27  26  21     1.080828283170   118.92580106     2.64485446
 H     28  27  26     1.077137931836   122.21429223   181.85957437
 H     30  25  24     1.077308614650   122.93580279   357.91208164
 H     31  24  22     1.081948063726   118.35866388   186.83230913
 H     32  31  24     1.082444855778   115.04814502    10.06374685
 H     35  34  33     1.074093714952   122.03074124   358.85688921
 H     35  34  33     1.075888181736   121.69149599   176.36160027
 H     39  38  33     1.081128223940   118.65631534   355.51042257
 H     40  39  38     1.076194978338   122.77286453   179.04221504
 H     42  37  36     1.074292193214   123.92964681     0.25976608
 H     43  36  34     1.081973368480   116.47066635   347.45098645
 H     44  43  36     1.073814111660   119.95076374   352.62942396
 H     50  49  48     1.069641057271   128.10607130   179.95168061
 H     52  48  47     1.069571749580   128.00920858   358.44298973
 H     54  46  45     1.081150828007   114.91254074   203.40703192
 H     55  54  46     1.083624214384   117.31204058    10.11513778
 H     57  56  55     1.078580960614   120.24843506   357.07148466
 H     60  59  58     1.093268381826   108.23222038    10.50156375
 H     61  60  59     1.103272676993   109.87172578    88.44121824
 H     61  60  59     1.093792180352   109.25454315   330.30853240
 H     62  61  60     1.014478013463   110.43051180   298.19774463
 H     62  61  60     1.013930446628   110.69683228   178.72852781
 H     63  60  59     1.104328479846   109.06750033   304.87082849
 H     63  60  59     1.094761243240   109.74549505   186.72990290
 H     64  63  60     1.015265425098   109.82110142   302.58878690
 H     64  63  60     1.013944802936   110.78226900   183.25084213
 H     66  65  59     1.080535150053   122.05866312     0.37608108
 H     67  66  65     1.101622412853   108.16221684   125.29711467
 H     68  67  66     1.079971092483   115.72009055   177.46651211
 H     69  68  67     1.080822215677   120.76180014   180.04720563
 H     72  71  70     1.080347191647   119.63654579     0.02921609
 H     73  72  71     1.081563504747   120.07712278   180.00131970
 H     74  67  66     1.081954484117   114.88587454   285.91232349
 H     75  74  67     1.076928941110   121.87076546     1.48661268
 H     75  74  67     1.076736553155   121.50092013   181.23590922

---------------------------
INTERNAL COORDINATES (A.U.)
---------------------------
 C      0   0   0     0.000000000000     0.00000000     0.00000000
 C      1   0   0     2.601806361053     0.00000000     0.00000000
 C      2   1   0     2.661165507350   124.13519386     0.00000000
 N      3   2   1     2.171673882347   176.45994150   179.08700391
 C      2   1   3     2.660447901473   125.81679708   180.81378989
 N      5   2   1     2.173484460490   175.34113885   178.19704124
 C      1   2   3     2.762577234043   124.74494709   358.81790722
 C      7   1   2     2.673098582789   108.46299302   179.14413848
 C      8   7   1     2.592580097003   122.73546131   180.22627710
 C      9   8   7     2.645278163744   117.81623124   359.44596586
 C     10   9   8     2.669741732223   119.06906778     0.37068565
 C      7   1   2     2.610688684503   131.30172698   358.99307134
 S     11  10   9     3.286669568707   111.56452466   179.97474174
 C     13  11  10     3.294043842827    90.07070982     0.00000000
 C     14  13  11     2.557838949368   114.15134701     0.00000000
 Br    14  13  11     3.547083067109   119.61383820   179.95488588
 C      8   7   1     2.797810937225   109.29641048   359.67449932
 O     17   8   7     2.300517740870   125.35388462   186.61626086
 C      1   2   3     2.726255893090   127.34721151   180.36762141
 C     19   1   2     2.608239774559   125.18637689   356.23722450
 C     20  19   1     2.644117068908   127.79027352   171.13153699
 C     21  20  19     2.770295796325   128.00676294   335.20171597
 C     22  21  20     2.534716740694   125.33148788   332.90230083
 C     22  21  20     2.755942563529   107.02177667   166.33081211
 C     24  22  21     2.720143706768   106.50977293    14.27177110
 C     21  20  19     2.646608303274   124.57381363   155.95347179
 C     26  21  20     2.666056469612   129.27201198     5.35548945
 C     27  26  21     2.557723603255   123.03721213   180.95931049
 S     28  27  26     3.257816979459   125.13947500     1.75117310
 C     25  24  22     2.568851705438   128.58907337   173.57992231
 C     24  22  21     2.606868510017   126.41157625   199.42247752
 C     31  24  22     2.627445488790   122.31933758    14.77678827
 C     32  31  24     2.622928340946   128.10510333   182.91704700
 C     33  32  31     2.771795896082   128.80950547    18.70738459
 C     34  33  32     2.537910695981   125.89375670    14.47527437
 C     34  33  32     2.767345585807   107.90981863   186.15728365
 C     36  34  33     2.714383296364   106.89840228   356.49657633
 C     33  32  31     2.665209898578   123.73326362   199.87789007
 C     38  33  32     2.651630043694   128.04970358   357.66270444
 C     39  38  33     2.563877828195   123.59584679   175.70915959
 S     40  39  38     3.263212171172   124.04120230   357.48745146
 C     37  36  34     2.581142824143   130.05898669   175.84268770
 C     36  34  33     2.621639584127   123.08599383   177.18621035
 C     43  36  34     2.611394765062   127.34004270   166.97955639
 C     44  43  36     2.648008411567   124.65589889   178.78230087
 C     45  44  43     2.639467419519   122.25770211   183.76752517
 O     46  45  44     2.616501734275   121.97036968   196.61618552
 C     47  46  45     2.564830614611   115.58528424   351.91982438
 C     48  47  46     2.696172731603   122.00874190     0.58659040
 C     49  48  47     2.563015603513   112.79108024   181.63880321
 S     50  49  48     3.258335285710   111.29346770   359.86597733
 C     48  47  46     2.565202166152   125.21717852   182.25535007
 O     49  48  47     2.569770090040   122.14736043     2.96018254
 C     46  45  44     2.673134361684   124.71896353    14.09695238
 C     54  46  45     2.578794565408   124.72618183    28.56629956
 C     55  54  46     2.695471363338   127.20607874   189.15961229
 C     56  55  54     2.616156170181   123.06583135    11.82967881
 C     57  56  55     2.650351381386   120.14954386   176.06139907
 C     58  57  56     2.630148539774   130.98809879   180.75672422
 C     59  58  57     2.820990579009   126.00670099   359.38931790
 C     60  59  58     2.908765057286   112.71522684   128.12189454
 N     61  60  59     2.744777349050   109.45221258   213.01675581
 C     60  59  58     2.909061168480   110.48025324   253.68319740
 N     63  60  59     2.743231677854   109.23669781    69.35898164
 C     59  58  57     2.724051198889   106.84306905   180.12739331
 C     65  59  58     2.548641942761   132.03673190   179.01540582
 C     66  65  59     2.819890047792   121.88288859   177.81618878
 C     67  66  65     2.820153418760   114.59635580     4.30907426
 C     68  67  66     2.539287449812   122.95164221   356.94060733
 C     69  68  67     2.678308087876   120.41838723     0.40205682
 C     70  69  68     2.602738651912   132.56644471   180.41701848
 C     71  70  69     2.675131632173   132.36201745     1.25347833
 C     72  71  70     2.558418163174   119.31558940   179.74219844
 C     67  66  65     2.870037157102   106.32098092   239.26499786
 C     74  67  66     2.491403760913   124.32101787   103.57938677
 H      9   8   7     2.038734433588   120.94954941   179.66534786
 H     12   7   1     2.035026351252   122.81959093     0.22595176
 H     15  14  13     2.030947787804   123.94582793   180.00881967
 H     20  19   1     2.045282268057   116.59771254   348.22059786
 H     23  22  21     2.031883544347   121.72181444   191.50603885
 H     23  22  21     2.033141403331   121.45482395     8.54882354
 H     27  26  21     2.042469452987   118.92580106     2.64485446
 H     28  27  26     2.035495699628   122.21429223   181.85957437
 H     30  25  24     2.035818243403   122.93580279   357.91208164
 H     31  24  22     2.044585531568   118.35866388   186.83230913
 H     32  31  24     2.045524332492   115.04814502    10.06374685
 H     35  34  33     2.029742963426   122.03074124   358.85688921
 H     35  34  33     2.033134014204   121.69149599   176.36160027
 H     39  38  33     2.043036258900   118.65631534   355.51042257
 H     40  39  38     2.033713775760   122.77286453   179.04221504
 H     42  37  36     2.030118032984   123.92964681     0.25976608
 H     43  36  34     2.044633350624   116.47066635   347.45098645
 H     44  43  36     2.029214589777   119.95076374   352.62942396
 H     50  49  48     2.021328659840   128.10607130   179.95168061
 H     52  48  47     2.021197687286   128.00920858   358.44298973
 H     54  46  45     2.043078974395   114.91254074   203.40703192
 H     55  54  46     2.047752997272   117.31204058    10.11513778
 H     57  56  55     2.038222628823   120.24843506   357.07148466
 H     60  59  58     2.065977832526   108.23222038    10.50156375
 H     61  60  59     2.084883210556   109.87172578    88.44121824
 H     61  60  59     2.066967668291   109.25454315   330.30853240
 H     62  61  60     1.917085614330   110.43051180   298.19774463
 H     62  61  60     1.916050862972   110.69683228   178.72852781
 H     63  60  59     2.086878388799   109.06750033   304.87082849
 H     63  60  59     2.068798931754   109.74549505   186.72990290
 H     64  63  60     1.918573606675   109.82110142   302.58878690
 H     64  63  60     1.916077992461   110.78226900   183.25084213
 H     66  65  59     2.041915511676   122.05866312     0.37608108
 H     67  66  65     2.081764663282   108.16221684   125.29711467
 H     68  67  66     2.040849597346   115.72009055   177.46651211
 H     69  68  67     2.042457987087   120.76180014   180.04720563
 H     72  71  70     2.041560321764   119.63654579     0.02921609
 H     73  72  71     2.043858820415   120.07712278   180.00131970
 H     74  67  66     2.044597664348   114.88587454   285.91232349
 H     75  74  67     2.035100764391   121.87076546     1.48661268
 H     75  74  67     2.034737203845   121.50092013   181.23590922

---------------------
BASIS SET INFORMATION
---------------------
There are 6 groups of distinct atoms

 Group   1 Type C   : 7s4p1d contracted to 3s2p1d pattern {511/31/1}
 Group   2 Type N   : 7s4p1d contracted to 3s2p1d pattern {511/31/1}
 Group   3 Type S   : 10s7p1d contracted to 4s3p1d pattern {5311/511/1}
 Group   4 Type Br  : 14s10p6d contracted to 5s4p3d pattern {63311/5311/411}
 Group   5 Type O   : 7s4p1d contracted to 3s2p1d pattern {511/31/1}
 Group   6 Type H   : 4s1p contracted to 2s1p pattern {31/1}

Atom   0C    basis set group =>   1
Atom   1C    basis set group =>   1
Atom   2C    basis set group =>   1
Atom   3N    basis set group =>   2
Atom   4C    basis set group =>   1
Atom   5N    basis set group =>   2
Atom   6C    basis set group =>   1
Atom   7C    basis set group =>   1
Atom   8C    basis set group =>   1
Atom   9C    basis set group =>   1
Atom  10C    basis set group =>   1
Atom  11C    basis set group =>   1
Atom  12S    basis set group =>   3
Atom  13C    basis set group =>   1
Atom  14C    basis set group =>   1
Atom  15Br   basis set group =>   4
Atom  16C    basis set group =>   1
Atom  17O    basis set group =>   5
Atom  18C    basis set group =>   1
Atom  19C    basis set group =>   1
Atom  20C    basis set group =>   1
Atom  21C    basis set group =>   1
Atom  22C    basis set group =>   1
Atom  23C    basis set group =>   1
Atom  24C    basis set group =>   1
Atom  25C    basis set group =>   1
Atom  26C    basis set group =>   1
Atom  27C    basis set group =>   1
Atom  28S    basis set group =>   3
Atom  29C    basis set group =>   1
Atom  30C    basis set group =>   1
Atom  31C    basis set group =>   1
Atom  32C    basis set group =>   1
Atom  33C    basis set group =>   1
Atom  34C    basis set group =>   1
Atom  35C    basis set group =>   1
Atom  36C    basis set group =>   1
Atom  37C    basis set group =>   1
Atom  38C    basis set group =>   1
Atom  39C    basis set group =>   1
Atom  40S    basis set group =>   3
Atom  41C    basis set group =>   1
Atom  42C    basis set group =>   1
Atom  43C    basis set group =>   1
Atom  44C    basis set group =>   1
Atom  45C    basis set group =>   1
Atom  46O    basis set group =>   5
Atom  47C    basis set group =>   1
Atom  48C    basis set group =>   1
Atom  49C    basis set group =>   1
Atom  50S    basis set group =>   3
Atom  51C    basis set group =>   1
Atom  52O    basis set group =>   5
Atom  53C    basis set group =>   1
Atom  54C    basis set group =>   1
Atom  55C    basis set group =>   1
Atom  56C    basis set group =>   1
Atom  57C    basis set group =>   1
Atom  58C    basis set group =>   1
Atom  59C    basis set group =>   1
Atom  60C    basis set group =>   1
Atom  61N    basis set group =>   2
Atom  62C    basis set group =>   1
Atom  63N    basis set group =>   2
Atom  64C    basis set group =>   1
Atom  65C    basis set group =>   1
Atom  66C    basis set group =>   1
Atom  67C    basis set group =>   1
Atom  68C    basis set group =>   1
Atom  69C    basis set group =>   1
Atom  70C    basis set group =>   1
Atom  71C    basis set group =>   1
Atom  72C    basis set group =>   1
Atom  73C    basis set group =>   1
Atom  74C    basis set group =>   1
Atom  75H    basis set group =>   6
Atom  76H    basis set group =>   6
Atom  77H    basis set group =>   6
Atom  78H    basis set group =>   6
Atom  79H    basis set group =>   6
Atom  80H    basis set group =>   6
Atom  81H    basis set group =>   6
Atom  82H    basis set group =>   6
Atom  83H    basis set group =>   6
Atom  84H    basis set group =>   6
Atom  85H    basis set group =>   6
Atom  86H    basis set group =>   6
Atom  87H    basis set group =>   6
Atom  88H    basis set group =>   6
Atom  89H    basis set group =>   6
Atom  90H    basis set group =>   6
Atom  91H    basis set group =>   6
Atom  92H    basis set group =>   6
Atom  93H    basis set group =>   6
Atom  94H    basis set group =>   6
Atom  95H    basis set group =>   6
Atom  96H    basis set group =>   6
Atom  97H    basis set group =>   6
Atom  98H    basis set group =>   6
Atom  99H    basis set group =>   6
Atom 100H    basis set group =>   6
Atom 101H    basis set group =>   6
Atom 102H    basis set group =>   6
Atom 103H    basis set group =>   6
Atom 104H    basis set group =>   6
Atom 105H    basis set group =>   6
Atom 106H    basis set group =>   6
Atom 107H    basis set group =>   6
Atom 108H    basis set group =>   6
Atom 109H    basis set group =>   6
Atom 110H    basis set group =>   6
Atom 111H    basis set group =>   6
Atom 112H    basis set group =>   6
Atom 113H    basis set group =>   6
Atom 114H    basis set group =>   6
Atom 115H    basis set group =>   6
---------------------------------
AUXILIARY/J BASIS SET INFORMATION
---------------------------------
There are 6 groups of distinct atoms

 Group   1 Type C   : 12s5p4d2f1g contracted to 6s4p3d1f1g pattern {711111/2111/211/2/1}
 Group   2 Type N   : 12s5p4d2f1g contracted to 6s4p3d1f1g pattern {711111/2111/211/2/1}
 Group   3 Type S   : 14s5p5d2f1g contracted to 8s4p3d1f1g pattern {71111111/2111/311/2/1}
 Group   4 Type Br  : 19s5p5d3f1g contracted to 8s4p3d2f1g pattern {121111111/2111/311/21/1}
 Group   5 Type O   : 12s5p4d2f1g contracted to 6s4p3d1f1g pattern {711111/2111/211/2/1}
 Group   6 Type H   : 5s2p1d contracted to 3s1p1d pattern {311/2/1}

Atom   0C    basis set group =>   1
Atom   1C    basis set group =>   1
Atom   2C    basis set group =>   1
Atom   3N    basis set group =>   2
Atom   4C    basis set group =>   1
Atom   5N    basis set group =>   2
Atom   6C    basis set group =>   1
Atom   7C    basis set group =>   1
Atom   8C    basis set group =>   1
Atom   9C    basis set group =>   1
Atom  10C    basis set group =>   1
Atom  11C    basis set group =>   1
Atom  12S    basis set group =>   3
Atom  13C    basis set group =>   1
Atom  14C    basis set group =>   1
Atom  15Br   basis set group =>   4
Atom  16C    basis set group =>   1
Atom  17O    basis set group =>   5
Atom  18C    basis set group =>   1
Atom  19C    basis set group =>   1
Atom  20C    basis set group =>   1
Atom  21C    basis set group =>   1
Atom  22C    basis set group =>   1
Atom  23C    basis set group =>   1
Atom  24C    basis set group =>   1
Atom  25C    basis set group =>   1
Atom  26C    basis set group =>   1
Atom  27C    basis set group =>   1
Atom  28S    basis set group =>   3
Atom  29C    basis set group =>   1
Atom  30C    basis set group =>   1
Atom  31C    basis set group =>   1
Atom  32C    basis set group =>   1
Atom  33C    basis set group =>   1
Atom  34C    basis set group =>   1
Atom  35C    basis set group =>   1
Atom  36C    basis set group =>   1
Atom  37C    basis set group =>   1
Atom  38C    basis set group =>   1
Atom  39C    basis set group =>   1
Atom  40S    basis set group =>   3
Atom  41C    basis set group =>   1
Atom  42C    basis set group =>   1
Atom  43C    basis set group =>   1
Atom  44C    basis set group =>   1
Atom  45C    basis set group =>   1
Atom  46O    basis set group =>   5
Atom  47C    basis set group =>   1
Atom  48C    basis set group =>   1
Atom  49C    basis set group =>   1
Atom  50S    basis set group =>   3
Atom  51C    basis set group =>   1
Atom  52O    basis set group =>   5
Atom  53C    basis set group =>   1
Atom  54C    basis set group =>   1
Atom  55C    basis set group =>   1
Atom  56C    basis set group =>   1
Atom  57C    basis set group =>   1
Atom  58C    basis set group =>   1
Atom  59C    basis set group =>   1
Atom  60C    basis set group =>   1
Atom  61N    basis set group =>   2
Atom  62C    basis set group =>   1
Atom  63N    basis set group =>   2
Atom  64C    basis set group =>   1
Atom  65C    basis set group =>   1
Atom  66C    basis set group =>   1
Atom  67C    basis set group =>   1
Atom  68C    basis set group =>   1
Atom  69C    basis set group =>   1
Atom  70C    basis set group =>   1
Atom  71C    basis set group =>   1
Atom  72C    basis set group =>   1
Atom  73C    basis set group =>   1
Atom  74C    basis set group =>   1
Atom  75H    basis set group =>   6
Atom  76H    basis set group =>   6
Atom  77H    basis set group =>   6
Atom  78H    basis set group =>   6
Atom  79H    basis set group =>   6
Atom  80H    basis set group =>   6
Atom  81H    basis set group =>   6
Atom  82H    basis set group =>   6
Atom  83H    basis set group =>   6
Atom  84H    basis set group =>   6
Atom  85H    basis set group =>   6
Atom  86H    basis set group =>   6
Atom  87H    basis set group =>   6
Atom  88H    basis set group =>   6
Atom  89H    basis set group =>   6
Atom  90H    basis set group =>   6
Atom  91H    basis set group =>   6
Atom  92H    basis set group =>   6
Atom  93H    basis set group =>   6
Atom  94H    basis set group =>   6
Atom  95H    basis set group =>   6
Atom  96H    basis set group =>   6
Atom  97H    basis set group =>   6
Atom  98H    basis set group =>   6
Atom  99H    basis set group =>   6
Atom 100H    basis set group =>   6
Atom 101H    basis set group =>   6
Atom 102H    basis set group =>   6
Atom 103H    basis set group =>   6
Atom 104H    basis set group =>   6
Atom 105H    basis set group =>   6
Atom 106H    basis set group =>   6
Atom 107H    basis set group =>   6
Atom 108H    basis set group =>   6
Atom 109H    basis set group =>   6
Atom 110H    basis set group =>   6
Atom 111H    basis set group =>   6
Atom 112H    basis set group =>   6
Atom 113H    basis set group =>   6
Atom 114H    basis set group =>   6
Atom 115H    basis set group =>   6


           ************************************************************
           *        Program running with 6 parallel MPI-processes     *
           *              working on a common directory               *
           ************************************************************
------------------------------------------------------------------------------
                           ORCA GTO INTEGRAL CALCULATION
                           -- RI-GTO INTEGRALS CHOSEN --
------------------------------------------------------------------------------

                         BASIS SET STATISTICS AND STARTUP INFO

Gaussian basis set:
 # of primitive gaussian shells          ... 1147
 # of primitive gaussian functions       ... 2185
 # of contracted shells                  ...  587
 # of contracted basis functions         ... 1289
 Highest angular momentum                ...    2
 Maximum contraction depth               ...    6
Auxiliary gaussian basis set:
 # of primitive gaussian shells          ... 2149
 # of primitive gaussian functions       ... 5953
 # of contracted shells                  ... 1341
 # of contracted aux-basis functions     ... 4143
 Highest angular momentum                ...    4
 Maximum contraction depth               ...   12
Ratio of auxiliary to basis functions    ...  3.21
Integral package used                  ... LIBINT
 One Electron integrals                  ... done
 Ordering auxiliary basis shells         ... done
 Integral threshhold             Thresh  ...  2.500e-11
 Primitive cut-off               TCut    ...  2.500e-12
 Pre-screening matrix                    ... done
 Shell pair data                         ... 
 Ordering of the shell pairs             ... done (   0.010 sec) 54488 of 172578 pairs
 Determination of significant pairs      ... done (   0.000 sec)
 Creation of shell pair data             ... done (   0.008 sec)
 Storage of shell pair data              ... done (   0.010 sec)
 Shell pair data done in (   0.028 sec)
 Computing two index integrals           ... done
 Cholesky decomposition of the V-matrix  ... done


Timings:
 Total evaluation time                   ...   2.658 sec (  0.044 min)
 One electron matrix time                ...   0.674 sec (  0.011 min) = 25.3%
 Schwartz matrix evaluation time         ...   0.785 sec (  0.013 min) = 29.5%
 Two index repulsion integral time       ...   0.441 sec (  0.007 min) = 16.6%
 Cholesky decomposition of V             ...   0.715 sec (  0.012 min) = 26.9%
 Three index repulsion integral time     ...   0.000 sec (  0.000 min) =  0.0%



           ************************************************************
           *        Program running with 6 parallel MPI-processes     *
           *              working on a common directory               *
           ************************************************************
-------------------------------------------------------------------------------
                                 ORCA SCF
-------------------------------------------------------------------------------

------------
SCF SETTINGS
------------
Hamiltonian:
 Density Functional     Method          .... DFT(GTOs)
 Exchange Functional    Exchange        .... WB88
 Correlation Functional Correlation     .... LYP
 LDA part of GGA corr.  LDAOpt          .... VWN-5
 Gradients option       PostSCFGGA      .... off
 Hybrid DFT is turned on
   Fraction HF Exchange ScalHFX         ....  0.190000
   Scaling of DF-GGA-X  ScalDFX         ....  0.350000
   Scaling of DF-GGA-C  ScalDFC         ....  0.810000
   Scaling of DF-LDA-C  ScalLDAC        ....  1.000000
   Perturbative correction              ....  0.000000
   Density functional embedding theory  .... OFF
 Long-range corrected/Screened/Range-Separated Hybrid DFT is turned on
   Amount of maximum screened exact exchange              ....  0.460000
   Range separation parameter mu (erf(mu*r12)/r12)        ....  0.330000
 RI-approximation to the Coulomb term is turned on
   Number of auxiliary basis functions  .... 4143
   RIJ-COSX (HFX calculated with COS-X)).... on


General Settings:
 Integral files         IntName         .... xtbopt
 Hartree-Fock type      HFTyp           .... RHF
 Total Charge           Charge          ....    0
 Multiplicity           Mult            ....    1
 Number of Electrons    NEL             ....  570
 Basis Dimension        Dim             .... 1289
 Nuclear Repulsion      ENuc            ....  11885.5027836648 Eh

Convergence Acceleration:
 DIIS                   CNVDIIS         .... on
   Start iteration      DIISMaxIt       ....    12
   Startup error        DIISStart       ....  0.200000
   # of expansion vecs  DIISMaxEq       ....     5
   Bias factor          DIISBfac        ....   1.050
   Max. coefficient     DIISMaxC        ....  10.000
 Newton-Raphson         CNVNR           .... off
 SOSCF                  CNVSOSCF        .... on
   Start iteration      SOSCFMaxIt      ....   150
   Startup grad/error   SOSCFStart      ....  0.003300
 Level Shifting         CNVShift        .... on
   Level shift para.    LevelShift      ....    0.2500
   Turn off err/grad.   ShiftErr        ....    0.0010
 Zerner damping         CNVZerner       .... off
 Static damping         CNVDamp         .... on
   Fraction old density DampFac         ....    0.7000
   Max. Damping (<1)    DampMax         ....    0.9800
   Min. Damping (>=0)   DampMin         ....    0.0000
   Turn off err/grad.   DampErr         ....    0.1000
 Fernandez-Rico         CNVRico         .... off

SCF Procedure:
 Maximum # iterations   MaxIter         ....   125
 SCF integral mode      SCFMode         .... Direct
   Integral package                     .... LIBINT
 Reset frequency        DirectResetFreq ....    20
 Integral Threshold     Thresh          ....  2.500e-11 Eh
 Primitive CutOff       TCut            ....  2.500e-12 Eh

Convergence Tolerance:
 Convergence Check Mode ConvCheckMode   .... Total+1el-Energy
 Convergence forced     ConvForced      .... 1
 Energy Change          TolE            ....  1.000e-08 Eh
 1-El. energy change                    ....  1.000e-05 Eh
 Orbital Gradient       TolG            ....  1.000e-05
 Orbital Rotation angle TolX            ....  1.000e-05
 DIIS Error             TolErr          ....  5.000e-07


Diagonalization of the overlap matrix:
Smallest eigenvalue                        ... 2.016e-04
Time for diagonalization                   ...    0.242 sec
Threshold for overlap eigenvalues          ... 1.000e-08
Number of eigenvalues below threshold      ... 0
Time for construction of square roots      ...    0.199 sec
Total time needed                          ...    0.444 sec

-------------------
DFT GRID GENERATION
-------------------

General Integration Accuracy     IntAcc      ...  4.670
Radial Grid Type                 RadialGrid  ... Gauss-Chebyshev
Angular Grid (max. acc.)         AngularGrid ... Lebedev-302
Angular grid pruning method      GridPruning ... 3 (G Style)
Weight generation scheme         WeightScheme... Becke
Basis function cutoff            BFCut       ...    1.0000e-11
Integration weight cutoff        WCut        ...    1.0000e-14
Grids for H and He will be reduced by one unit

# of grid points (after initial pruning)     ... 610994 (   0.0 sec)
# of grid points (after weights+screening)   ... 518973 (   7.3 sec)
nearest neighbour list constructed           ...    0.0 sec
Grid point re-assignment to atoms done       ...    0.1 sec
Grid point division into batches done        ...    1.5 sec
Reduced shell lists constructed in    2.7 sec

Total number of grid points                  ...   518973
Total number of batches                      ...     8165
Average number of points per batch           ...       63
Average number of grid points per atom       ...     4474
Average number of shells per batch           ...    80.13 (13.65%)
Average number of basis functions per batch  ...   171.53 (13.31%)
Average number of large shells per batch     ...    49.60 (61.90%)
Average number of large basis fcns per batch ...   108.97 (63.53%)
Maximum spatial batch extension              ...  18.36, 18.96, 20.28 au
Average spatial batch extension              ...   0.34,  0.39,  0.37 au

Time for grid setup =   10.566 sec

------------------------------
INITIAL GUESS: MODEL POTENTIAL
------------------------------
Loading Hartree-Fock densities                     ... done
Calculating cut-offs                               ... done
Setting up the integral package                    ... done
Initializing the effective Hamiltonian             ... done
Starting the Coulomb interaction                   ... done (   1.6 sec)
Reading the grid                                   ... done
Mapping shells                                     ... done
Starting the XC term evaluation                    ... done (   1.6 sec)
  promolecular density results
     # of electrons  =    569.979548825
     EX              =   -574.131011630
     EC              =    -20.154408813
     EX+EC           =   -594.285420442
Transforming the Hamiltonian                       ... done (   0.1 sec)
Diagonalizing the Hamiltonian                      ... done (   0.2 sec)
Back transforming the eigenvectors                 ... done (   0.1 sec)
Now organizing SCF variables                       ... done
                      ------------------
                      INITIAL GUESS DONE (  14.3 sec)
                      ------------------
--------------------
COSX GRID GENERATION
--------------------

General Integration Accuracy     IntAcc      ...  3.340
Radial Grid Type                 RadialGrid  ... Gauss-Chebyshev
Angular Grid (max. acc.)         AngularGrid ... Lebedev-50
Angular grid pruning method      GridPruning ... 3 (G Style)
Weight generation scheme         WeightScheme... Becke
Basis function cutoff            BFCut       ...    1.0000e-11
Integration weight cutoff        WCut        ...    1.0000e-14
Grids for H and He will be reduced by one unit

# of grid points (after initial pruning)     ...  57530 (   0.0 sec)
# of grid points (after weights+screening)   ...  51117 (   0.7 sec)
nearest neighbour list constructed           ...    0.0 sec
Grid point re-assignment to atoms done       ...    0.0 sec
Grid point division into batches done        ...    0.0 sec
Reduced shell lists constructed in    0.2 sec

Total number of grid points                  ...    51117
Total number of batches                      ...      862
Average number of points per batch           ...       59
Average number of grid points per atom       ...      441
Average number of shells per batch           ...    96.55 (16.45%)
Average number of basis functions per batch  ...   207.97 (16.13%)
Average number of large shells per batch     ...    59.08 (61.19%)
Average number of large basis fcns per batch ...   131.50 (63.23%)
Maximum spatial batch extension              ...  15.80, 21.47, 19.31 au
Average spatial batch extension              ...   0.61,  0.92,  0.78 au

Overlap Fitting                  UseSFitting ... on
Constructing numerical overlap ... done (      0.1 sec)
Inverting numerical overlap    ... done (      0.1 sec)
Obtaining analytic overlap     ... done (      0.0 sec)
Final contraction and storage  ... done (      0.1 sec)


General Integration Accuracy     IntAcc      ...  3.670
Radial Grid Type                 RadialGrid  ... Gauss-Chebyshev
Angular Grid (max. acc.)         AngularGrid ... Lebedev-50
Angular grid pruning method      GridPruning ... 3 (G Style)
Weight generation scheme         WeightScheme... Becke
Basis function cutoff            BFCut       ...    1.0000e-11
Integration weight cutoff        WCut        ...    1.0000e-14
Grids for H and He will be reduced by one unit

# of grid points (after initial pruning)     ...  72054 (   0.0 sec)
# of grid points (after weights+screening)   ...  63774 (   0.8 sec)
nearest neighbour list constructed           ...    0.0 sec
Grid point re-assignment to atoms done       ...    0.0 sec
Grid point division into batches done        ...    0.0 sec
Reduced shell lists constructed in    0.2 sec

Total number of grid points                  ...    63774
Total number of batches                      ...     1060
Average number of points per batch           ...       60
Average number of grid points per atom       ...      550
Average number of shells per batch           ...    96.00 (16.35%)
Average number of basis functions per batch  ...   206.49 (16.02%)
Average number of large shells per batch     ...    58.82 (61.27%)
Average number of large basis fcns per batch ...   130.74 (63.31%)
Maximum spatial batch extension              ...  16.63, 23.19, 25.39 au
Average spatial batch extension              ...   0.58,  0.82,  0.72 au

Overlap Fitting                  UseSFitting ... on
Constructing numerical overlap ... done (      0.1 sec)
Inverting numerical overlap    ... done (      0.1 sec)
Obtaining analytic overlap     ... done (      0.0 sec)
Final contraction and storage  ... done (      0.1 sec)


General Integration Accuracy     IntAcc      ...  4.010
Radial Grid Type                 RadialGrid  ... Gauss-Chebyshev
Angular Grid (max. acc.)         AngularGrid ... Lebedev-110
Angular grid pruning method      GridPruning ... 3 (G Style)
Weight generation scheme         WeightScheme... Becke
Basis function cutoff            BFCut       ...    1.0000e-11
Integration weight cutoff        WCut        ...    1.0000e-14
Grids for H and He will be reduced by one unit

# of grid points (after initial pruning)     ... 139120 (   0.0 sec)
# of grid points (after weights+screening)   ... 122010 (   1.7 sec)
nearest neighbour list constructed           ...    0.0 sec
Grid point re-assignment to atoms done       ...    0.0 sec
Grid point division into batches done        ...    0.1 sec
Reduced shell lists constructed in    0.4 sec

Total number of grid points                  ...   122010
Total number of batches                      ...     1961
Average number of points per batch           ...       62
Average number of grid points per atom       ...     1052
Average number of shells per batch           ...    88.84 (15.13%)
Average number of basis functions per batch  ...   191.37 (14.85%)
Average number of large shells per batch     ...    54.98 (61.89%)
Average number of large basis fcns per batch ...   121.79 (63.64%)
Maximum spatial batch extension              ...  17.24, 19.52, 18.49 au
Average spatial batch extension              ...   0.52,  0.68,  0.61 au

Overlap Fitting                  UseSFitting ... on
Constructing numerical overlap ... done (      0.2 sec)
Inverting numerical overlap    ... done (      0.1 sec)
Obtaining analytic overlap     ... done (      0.0 sec)
Final contraction and storage  ... done (      0.1 sec)

Time for X-Grid setup             =    5.338 sec
--------------
SCF ITERATIONS
--------------
ITER       Energy         Delta-E        Max-DP      RMS-DP      [F,P]     Damp
               ***  Starting incremental Fock matrix formation  ***
  0  -7030.7265838590   0.000000000000 0.07983665  0.00091160  0.2300346 0.7000
  1  -7031.3965964694  -0.670012610364 0.04698384  0.00066681  0.1160928 0.7000
                               ***Turning on DIIS***
  2  -7031.7089562680  -0.312359798638 0.11433655  0.00125207  0.0438375 0.0000
  3  -7032.1882506625  -0.479294394423 0.06982873  0.00052973  0.0642547 0.0000
  4  -7032.2958888364  -0.107638173917 0.01743794  0.00018027  0.0189417 0.0000
  5  -7032.3039669910  -0.008078154648 0.01042213  0.00008813  0.0160061 0.0000
  6  -7032.3068713212  -0.002904330173 0.00401553  0.00005983  0.0034169 0.0000
  7  -7032.3083704882  -0.001499166954 0.00361402  0.00004567  0.0018023 0.0000
  8  -7032.3093146521  -0.000944163989 0.00335153  0.00003988  0.0013969 0.0000
  9  -7032.3099519249  -0.000637272718 0.00286628  0.00003194  0.0011164 0.0000
 10  -7032.3103590086  -0.000407083759 0.00597132  0.00007318  0.0008919 0.0000
               *** Restarting incremental Fock matrix formation ***
                                   *** Resetting DIIS ***
                      *** Initiating the SOSCF procedure ***
                           *** Shutting down DIIS ***
                      *** Re-Reading the Fockian *** 
                      *** Removing any level shift *** 
ITER      Energy       Delta-E        Grad      Rot      Max-DP    RMS-DP
 11  -7032.31078421  -0.0004252013  0.000517  0.000517  0.002389  0.000028
               *** Restarting incremental Fock matrix formation ***
 12  -7032.31082084  -0.0000366309  0.000999  0.012365  0.003720  0.000034
 13  -7032.31076361   0.0000572325  0.000971  0.002419  0.001703  0.000019
 14  -7032.31090145  -0.0001378437  0.000264  0.004353  0.000939  0.000010
 15  -7032.31091013  -0.0000086746  0.000260  0.006481  0.001242  0.000014
 16  -7032.31092033  -0.0000102078  0.000184  0.004608  0.000809  0.000008
 17  -7032.31092201  -0.0000016712  0.000092  0.001694  0.000306  0.000004
 18  -7032.31092339  -0.0000013875  0.000090  0.001086  0.000240  0.000003
 19  -7032.31092388  -0.0000004820  0.000055  0.000944  0.000184  0.000002
 20  -7032.31092421  -0.0000003325  0.000015  0.000351  0.000064  0.000001
 21  -7032.31092422  -0.0000000138  0.000006  0.000065  0.000027  0.000000
 22  -7032.31092426  -0.0000000403  0.000006  0.000046  0.000019  0.000000
 23  -7032.31092428  -0.0000000154  0.000008  0.000018  0.000010  0.000000
                  ***Gradient check signals convergence***
              ***Rediagonalizing the Fockian in SOSCF/NRSCF***

               *****************************************************
               *                     SUCCESS                       *
               *           SCF CONVERGED AFTER  24 CYCLES          *
               *****************************************************

Setting up the final grid:

General Integration Accuracy     IntAcc      ...  5.010
Radial Grid Type                 RadialGrid  ... Gauss-Chebyshev
Angular Grid (max. acc.)         AngularGrid ... Lebedev-434
Angular grid pruning method      GridPruning ... 3 (G Style)
Weight generation scheme         WeightScheme... Becke
Basis function cutoff            BFCut       ...    1.0000e-11
Integration weight cutoff        WCut        ...    1.0000e-14
Grids for H and He will be reduced by one unit

# of grid points (after initial pruning)     ... 1086166 (   0.1 sec)
# of grid points (after weights+screening)   ... 919383 (  12.6 sec)
nearest neighbour list constructed           ...    0.0 sec
Grid point re-assignment to atoms done       ...    0.1 sec
Grid point division into batches done        ...    5.0 sec
Reduced shell lists constructed in    6.9 sec

Total number of grid points                  ...   919383
Total number of batches                      ...    14427
Average number of points per batch           ...       63
Average number of grid points per atom       ...     7926
Average number of shells per batch           ...    79.04 (13.46%)
Average number of basis functions per batch  ...   168.71 (13.09%)
Average number of large shells per batch     ...    48.85 (61.80%)
Average number of large basis fcns per batch ...   106.91 (63.37%)
Maximum spatial batch extension              ...  17.88, 22.52, 18.05 au
Average spatial batch extension              ...   0.29,  0.32,  0.31 au

Final grid set up in   20.3 sec
Final integration                            ... done (   3.2 sec)
Change in XC energy                          ...    -0.000130752
Integrated number of electrons               ...   570.000005220
Previous integrated no of electrons          ...   569.999774456
Old exchange energy                            =   -155.296434107 Eh
New exchange energy                            =   -155.294727177 Eh
Exchange energy change after final integration =      0.001706929 Eh
Total energy after final integration           =  -7032.309348144 Eh
Final COS-X integration done in                =    69.363 sec

----------------
TOTAL SCF ENERGY
----------------

Total Energy       :        -7032.30934814 Eh         -191358.86586 eV

Components:
Nuclear Repulsion  :        11885.50278366 Eh          323420.97315 eV
Electronic Energy  :       -18917.81213181 Eh         -514779.83901 eV
One Electron Energy:       -33353.70771418 Eh         -907600.52842 eV
Two Electron Energy:        14435.89558237 Eh          392820.68941 eV

Virial components:
Potential Energy   :       -14030.22283053 Eh         -381781.77263 eV
Kinetic Energy     :         6997.91348238 Eh          190422.90677 eV
Virial Ratio       :            2.00491516


DFT components:
N(Alpha)           :      285.000002609883 electrons
N(Beta)            :      285.000002609883 electrons
N(Total)           :      570.000005219766 electrons
E(XC)              :     -448.003205991000 Eh       
DFET-embed. en.    :        0.000000000000 Eh       

---------------
SCF CONVERGENCE
---------------

  Last Energy change         ...   -4.3334e-08  Tolerance :   1.0000e-08
  Last MAX-Density change    ...    7.1054e-15  Tolerance :   1.0000e-07
  Last RMS-Density change    ...    3.1866e-17  Tolerance :   5.0000e-09
  Last Orbital Gradient      ...    1.4819e-06  Tolerance :   1.0000e-05
  Last Orbital Rotation      ...    1.2065e-05  Tolerance :   1.0000e-05

             **** THE GBW FILE WAS UPDATED (xtbopt.gbw) ****
             **** DENSITY FILE WAS UPDATED (xtbopt.scfp) ****
             **** ENERGY FILE WAS UPDATED (xtbopt.en.tmp) ****
             **** THE GBW FILE WAS UPDATED (xtbopt.gbw) ****
             **** DENSITY FILE WAS UPDATED (xtbopt.scfp) ****
----------------
ORBITAL ENERGIES
----------------

  NO   OCC          E(Eh)            E(eV) 
   0   2.0000    -482.883198    -13139.9198 
   1   2.0000     -88.999070     -2421.7878 
   2   2.0000     -88.994391     -2421.6605 
   3   2.0000     -88.971306     -2421.0323 
   4   2.0000     -88.938719     -2420.1456 
   5   2.0000     -62.560901     -1702.3687 
   6   2.0000     -56.394845     -1534.5817 
   7   2.0000     -56.392143     -1534.5082 
   8   2.0000     -56.392106     -1534.5072 
   9   2.0000     -19.252824      -523.8960 
  10   2.0000     -19.245026      -523.6838 
  11   2.0000     -19.206511      -522.6357 
  12   2.0000     -14.410535      -392.1306 
  13   2.0000     -14.406147      -392.0112 
  14   2.0000     -14.369175      -391.0051 
  15   2.0000     -14.363786      -390.8585 
  16   2.0000     -10.356285      -281.8088 
  17   2.0000     -10.355306      -281.7822 
  18   2.0000     -10.342083      -281.4224 
  19   2.0000     -10.338422      -281.3228 
  20   2.0000     -10.333139      -281.1790 
  21   2.0000     -10.330755      -281.1141 
  22   2.0000     -10.328185      -281.0442 
  23   2.0000     -10.321895      -280.8731 
  24   2.0000     -10.321057      -280.8502 
  25   2.0000     -10.320122      -280.8248 
  26   2.0000     -10.319842      -280.8172 
  27   2.0000     -10.319697      -280.8132 
  28   2.0000     -10.319660      -280.8122 
  29   2.0000     -10.314813      -280.6803 
  30   2.0000     -10.313567      -280.6464 
  31   2.0000     -10.313411      -280.6422 
  32   2.0000     -10.310236      -280.5558 
  33   2.0000     -10.309005      -280.5223 
  34   2.0000     -10.308405      -280.5060 
  35   2.0000     -10.302438      -280.3436 
  36   2.0000     -10.301008      -280.3047 
  37   2.0000     -10.300658      -280.2952 
  38   2.0000     -10.299353      -280.2597 
  39   2.0000     -10.296100      -280.1711 
  40   2.0000     -10.295186      -280.1462 
  41   2.0000     -10.293960      -280.1129 
  42   2.0000     -10.293497      -280.1003 
  43   2.0000     -10.291352      -280.0419 
  44   2.0000     -10.290951      -280.0310 
  45   2.0000     -10.287983      -279.9502 
  46   2.0000     -10.286760      -279.9170 
  47   2.0000     -10.285611      -279.8857 
  48   2.0000     -10.285344      -279.8784 
  49   2.0000     -10.285015      -279.8695 
  50   2.0000     -10.284696      -279.8608 
  51   2.0000     -10.282481      -279.8005 
  52   2.0000     -10.281167      -279.7648 
  53   2.0000     -10.278087      -279.6810 
  54   2.0000     -10.275285      -279.6047 
  55   2.0000     -10.273344      -279.5519 
  56   2.0000     -10.272905      -279.5400 
  57   2.0000     -10.272751      -279.5358 
  58   2.0000     -10.269048      -279.4350 
  59   2.0000     -10.267806      -279.4012 
  60   2.0000     -10.264968      -279.3240 
  61   2.0000     -10.262953      -279.2692 
  62   2.0000     -10.262696      -279.2622 
  63   2.0000     -10.261924      -279.2411 
  64   2.0000     -10.261318      -279.2247 
  65   2.0000     -10.261192      -279.2212 
  66   2.0000     -10.259621      -279.1785 
  67   2.0000     -10.258941      -279.1600 
  68   2.0000     -10.252936      -278.9966 
  69   2.0000     -10.252819      -278.9934 
  70   2.0000     -10.252416      -278.9824 
  71   2.0000     -10.252002      -278.9712 
  72   2.0000     -10.250940      -278.9423 
  73   2.0000     -10.250908      -278.9414 
  74   2.0000     -10.249519      -278.9036 
  75   2.0000     -10.247704      -278.8542 
  76   2.0000     -10.244129      -278.7569 
  77   2.0000     -10.242401      -278.7099 
  78   2.0000     -10.240217      -278.6505 
  79   2.0000      -8.790317      -239.1967 
  80   2.0000      -8.092946      -220.2203 
  81   2.0000      -8.090313      -220.1486 
  82   2.0000      -8.067275      -219.5217 
  83   2.0000      -8.034560      -218.6315 
  84   2.0000      -6.626572      -180.3182 
  85   2.0000      -6.612063      -179.9234 
  86   2.0000      -6.611894      -179.9188 
  87   2.0000      -6.061709      -164.9475 
  88   2.0000      -6.059747      -164.8941 
  89   2.0000      -6.057082      -164.8216 
  90   2.0000      -6.056875      -164.8159 
  91   2.0000      -6.055040      -164.7660 
  92   2.0000      -6.052518      -164.6974 
  93   2.0000      -6.036985      -164.2747 
  94   2.0000      -6.032687      -164.1578 
  95   2.0000      -6.028484      -164.0434 
  96   2.0000      -6.004094      -163.3797 
  97   2.0000      -5.999924      -163.2662 
  98   2.0000      -5.996214      -163.1653 
  99   2.0000      -2.742463       -74.6262 
 100   2.0000      -2.738368       -74.5148 
 101   2.0000      -2.738239       -74.5113 
 102   2.0000      -2.726702       -74.1973 
 103   2.0000      -2.726695       -74.1972 
 104   2.0000      -1.175487       -31.9866 
 105   2.0000      -1.138805       -30.9885 
 106   2.0000      -1.119548       -30.4644 
 107   2.0000      -1.016987       -27.6736 
 108   2.0000      -1.013866       -27.5887 
 109   2.0000      -1.007336       -27.4110 
 110   2.0000      -0.995316       -27.0839 
 111   2.0000      -0.987339       -26.8669 
 112   2.0000      -0.982224       -26.7277 
 113   2.0000      -0.972817       -26.4717 
 114   2.0000      -0.966302       -26.2944 
 115   2.0000      -0.965678       -26.2774 
 116   2.0000      -0.955145       -25.9908 
 117   2.0000      -0.950113       -25.8539 
 118   2.0000      -0.940366       -25.5887 
 119   2.0000      -0.936885       -25.4939 
 120   2.0000      -0.934359       -25.4252 
 121   2.0000      -0.915706       -24.9176 
[...]
  4 C      6.1918     6.0000    -0.1918     4.2194     4.2194     0.0000
  5 N      6.8635     7.0000     0.1365     3.1574     3.1574     0.0000
  6 C      5.9841     6.0000     0.0159     3.7892     3.7892    -0.0000
  7 C      6.0044     6.0000    -0.0044     3.6896     3.6896    -0.0000
  8 C      6.0821     6.0000    -0.0821     3.7683     3.7683    -0.0000
  9 C      5.8811     6.0000     0.1189     3.8560     3.8560     0.0000
 10 C      6.0949     6.0000    -0.0949     3.8732     3.8732     0.0000
 11 C      6.0239     6.0000    -0.0239     3.8070     3.8070    -0.0000
 12 S     15.8171    16.0000     0.1829     2.3905     2.3905    -0.0000
 13 C      6.1241     6.0000    -0.1241     3.8383     3.8383    -0.0000
 14 C      5.9608     6.0000     0.0392     3.8954     3.8954     0.0000
 15 Br    34.9826    35.0000     0.0174     1.1330     1.1330    -0.0000
 16 C      5.8894     6.0000     0.1106     4.1259     4.1259    -0.0000
 17 O      8.1553     8.0000    -0.1553     2.3693     2.3693     0.0000
 18 C      6.1025     6.0000    -0.1025     3.6266     3.6266     0.0000
 19 C      6.0679     6.0000    -0.0679     3.7981     3.7981     0.0000
 20 C      5.9426     6.0000     0.0574     3.7698     3.7698    -0.0000
 21 C      5.9936     6.0000     0.0064     4.0214     4.0214     0.0000
 22 C      6.0232     6.0000    -0.0232     3.9464     3.9464     0.0000
 23 C      5.9407     6.0000     0.0593     3.8303     3.8303    -0.0000
 24 C      5.8867     6.0000     0.1133     3.8575     3.8575    -0.0000
 25 C      5.9441     6.0000     0.0559     3.8600     3.8600    -0.0000
 26 C      5.9666     6.0000     0.0334     3.9081     3.9081    -0.0000
 27 C      6.0687     6.0000    -0.0687     3.8746     3.8746     0.0000
 28 S     15.8422    16.0000     0.1578     2.5035     2.5035    -0.0000
 29 C      6.1534     6.0000    -0.1534     3.8085     3.8085    -0.0000
 30 C      6.0287     6.0000    -0.0287     3.8053     3.8053    -0.0000
 31 C      6.0770     6.0000    -0.0770     3.8053     3.8053    -0.0000
 32 C      5.9039     6.0000     0.0961     3.7357     3.7357    -0.0000
 33 C      5.9769     6.0000     0.0231     3.9859     3.9859    -0.0000
 34 C      6.0869     6.0000    -0.0869     3.9001     3.9001     0.0000
 35 C      5.9205     6.0000     0.0795     3.6745     3.6745     0.0000
 36 C      5.8882     6.0000     0.1118     3.8141     3.8141    -0.0000
 37 C      5.9687     6.0000     0.0313     3.8345     3.8345     0.0000
 38 C      5.9619     6.0000     0.0381     3.9047     3.9047    -0.0000
 39 C      6.1191     6.0000    -0.1191     3.8339     3.8339    -0.0000
 40 S     15.7645    16.0000     0.2355     2.6693     2.6693    -0.0000
 41 C      6.1683     6.0000    -0.1683     3.7871     3.7871    -0.0000
 42 C      6.0361     6.0000    -0.0361     3.8014     3.8014    -0.0000
 43 C      6.1606     6.0000    -0.1606     3.8475     3.8475     0.0000
 44 C      5.8203     6.0000     0.1797     3.8616     3.8616     0.0000
 45 C      5.8731     6.0000     0.1269     3.8332     3.8332    -0.0000
 46 O      8.2494     8.0000    -0.2494     2.2363     2.2363    -0.0000
 47 C      5.7805     6.0000     0.2195     3.9995     3.9995    -0.0000
 48 C      5.7812     6.0000     0.2188     3.9789     3.9789     0.0000
 49 C      6.1813     6.0000    -0.1813     3.8150     3.8150     0.0000
 50 S     15.9072    16.0000     0.0928     2.4616     2.4616    -0.0000
 51 C      6.1771     6.0000    -0.1771     3.8180     3.8180    -0.0000
 52 O      8.2576     8.0000    -0.2576     2.2458     2.2458    -0.0000
 53 C      5.9789     6.0000     0.0211     3.8158     3.8158    -0.0000
 54 C      6.0884     6.0000    -0.0884     3.8358     3.8358    -0.0000
 55 C      5.8872     6.0000     0.1128     3.7702     3.7702    -0.0000
 56 C      6.0974     6.0000    -0.0974     3.7564     3.7564    -0.0000
 57 C      5.9407     6.0000     0.0593     3.8580     3.8580    -0.0000
 58 C      6.0904     6.0000    -0.0904     3.7593     3.7593    -0.0000
 59 C      6.0373     6.0000    -0.0373     4.0183     4.0183    -0.0000
 60 C      5.8684     6.0000     0.1316     4.0490     4.0490    -0.0000
 61 N      7.2103     7.0000    -0.2103     3.0884     3.0884     0.0000
 62 C      5.8323     6.0000     0.1677     4.0271     4.0271    -0.0000
 63 N      7.2268     7.0000    -0.2268     3.0778     3.0778    -0.0000
 64 C      5.9000     6.0000     0.1000     3.8846     3.8846    -0.0000
 65 C      6.1195     6.0000    -0.1195     3.8220     3.8220    -0.0000
 66 C      5.8365     6.0000     0.1635     3.7511     3.7511     0.0000
 67 C      6.0669     6.0000    -0.0669     3.9104     3.9104    -0.0000
 68 C      5.9881     6.0000     0.0119     3.8195     3.8195    -0.0000
 69 C      5.9937     6.0000     0.0063     3.7576     3.7576    -0.0000
 70 C      5.9694     6.0000     0.0306     3.7496     3.7496    -0.0000
 71 C      6.0090     6.0000    -0.0090     3.7637     3.7637    -0.0000
 72 C      6.0324     6.0000    -0.0324     3.7864     3.7864    -0.0000
 73 C      6.0877     6.0000    -0.0877     4.0795     4.0795    -0.0000
 74 C      5.9938     6.0000     0.0062     3.9613     3.9613    -0.0000
 75 H      1.0237     1.0000    -0.0237     1.0009     1.0009     0.0000
 76 H      1.0071     1.0000    -0.0071     1.0412     1.0412     0.0000
 77 H      1.0092     1.0000    -0.0092     1.0021     1.0021     0.0000
 78 H      0.9984     1.0000     0.0016     1.0278     1.0278     0.0000
 79 H      0.9747     1.0000     0.0253     0.9895     0.9895     0.0000
 80 H      0.9794     1.0000     0.0206     0.9858     0.9858     0.0000
 81 H      0.9836     1.0000     0.0164     0.9993     0.9993    -0.0000
 82 H      0.9374     1.0000     0.0626     0.9875     0.9875    -0.0000
 83 H      0.9514     1.0000     0.0486     0.9966     0.9966     0.0000
 84 H      1.0220     1.0000    -0.0220     1.0121     1.0121     0.0000
 85 H      0.9861     1.0000     0.0139     1.0160     1.0160    -0.0000
 86 H      0.9993     1.0000     0.0007     0.9880     0.9880    -0.0000
 87 H      0.9894     1.0000     0.0106     0.9848     0.9848     0.0000
 88 H      0.9968     1.0000     0.0032     1.0014     1.0014     0.0000
 89 H      0.9530     1.0000     0.0470     0.9894     0.9894     0.0000
 90 H      0.9635     1.0000     0.0365     1.0445     1.0445    -0.0000
 91 H      1.0212     1.0000    -0.0212     1.0117     1.0117     0.0000
 92 H      0.9886     1.0000     0.0114     0.9986     0.9986     0.0000
 93 H      0.9839     1.0000     0.0161     1.0041     1.0041     0.0000
 94 H      0.9807     1.0000     0.0193     1.0043     1.0043     0.0000
 95 H      0.9936     1.0000     0.0064     1.0057     1.0057    -0.0000
 96 H      0.9973     1.0000     0.0027     0.9993     0.9993     0.0000
 97 H      1.0379     1.0000    -0.0379     1.0024     1.0024    -0.0000
 98 H      1.0071     1.0000    -0.0071     1.0272     1.0272     0.0000
 99 H      1.0244     1.0000    -0.0244     0.9757     0.9757     0.0000
100 H      0.9994     1.0000     0.0006     0.9879     0.9879    -0.0000
101 H      0.9142     1.0000     0.0858     1.0033     1.0033     0.0000
102 H      0.9130     1.0000     0.0870     0.9964     0.9964     0.0000
103 H      1.0314     1.0000    -0.0314     0.9808     0.9808    -0.0000
104 H      1.0242     1.0000    -0.0242     0.9828     0.9828    -0.0000
105 H      0.9010     1.0000     0.0990     1.0092     1.0092     0.0000
106 H      0.9132     1.0000     0.0868     0.9965     0.9965    -0.0000
107 H      1.0150     1.0000    -0.0150     1.0041     1.0041     0.0000
108 H      0.9709     1.0000     0.0291     0.9761     0.9761     0.0000
109 H      1.0118     1.0000    -0.0118     0.9876     0.9876    -0.0000
110 H      1.0417     1.0000    -0.0417     0.9810     0.9810     0.0000
111 H      1.0459     1.0000    -0.0459     0.9815     0.9815     0.0000
112 H      1.0324     1.0000    -0.0324     0.9880     0.9880    -0.0000
113 H      0.9969     1.0000     0.0031     0.9817     0.9817    -0.0000
114 H      0.9750     1.0000     0.0250     0.9996     0.9996    -0.0000
115 H      0.9800     1.0000     0.0200     0.9750     0.9750    -0.0000

  Mayer bond orders larger than 0.100000
B(  0-C ,  1-C ) :   1.5959 B(  0-C ,  6-C ) :   0.9936 B(  0-C , 18-C ) :   1.1064 
B(  1-C ,  2-C ) :   1.1468 B(  1-C ,  4-C ) :   1.1506 B(  2-C ,  3-N ) :   2.9619 
B(  4-C ,  5-N ) :   2.9716 B(  6-C ,  7-C ) :   1.2756 B(  6-C , 11-C ) :   1.4160 
B(  7-C ,  8-C ) :   1.4322 B(  7-C , 16-C ) :   0.9280 B(  8-C ,  9-C ) :   1.2384 
B(  8-C , 75-H ) :   1.0153 B(  9-C , 10-C ) :   1.3177 B(  9-C , 14-C ) :   1.1619 
B( 10-C , 11-C ) :   1.3232 B( 10-C , 12-S ) :   1.0815 B( 11-C , 76-H ) :   0.9787 
B( 12-S , 13-C ) :   1.0886 B( 13-C , 14-C ) :   1.6183 B( 13-C , 15-Br) :   1.0153 
B( 14-C , 77-H ) :   0.9998 B( 16-C , 17-O ) :   2.2009 B( 16-C , 18-C ) :   0.9685 
B( 18-C , 19-C ) :   1.4785 B( 19-C , 20-C ) :   1.2616 B( 19-C , 78-H ) :   0.9327 
B( 20-C , 21-C ) :   1.0187 B( 20-C , 25-C ) :   1.3744 B( 21-C , 22-C ) :   1.8668 
B( 21-C , 23-C ) :   1.0410 B( 22-C , 79-H ) :   0.9392 B( 22-C , 80-H ) :   0.9321 
B( 23-C , 24-C ) :   1.0723 B( 23-C , 30-C ) :   1.5402 B( 24-C , 25-C ) :   1.0914 
B( 24-C , 29-C ) :   1.6036 B( 25-C , 26-C ) :   1.1975 B( 26-C , 27-C ) :   1.6545 
B( 26-C , 81-H ) :   0.9687 B( 27-C , 28-S ) :   1.1394 B( 27-C , 82-H ) :   0.9370 
B( 28-S , 29-C ) :   1.1280 B( 29-C , 83-H ) :   0.9297 B( 30-C , 31-C ) :   1.2386 
B( 30-C , 84-H ) :   0.9544 B( 31-C , 32-C ) :   1.4617 B( 31-C , 85-H ) :   0.9552 
B( 32-C , 33-C ) :   1.0136 B( 32-C , 37-C ) :   1.1790 B( 33-C , 34-C ) :   1.8398 
B( 33-C , 35-C ) :   1.0586 B( 34-C , 86-H ) :   0.9348 B( 34-C , 87-H ) :   0.9286 
B( 35-C , 36-C ) :   1.2577 B( 35-C , 42-C ) :   1.2467 B( 36-C , 37-C ) :   1.0787 
B( 36-C , 41-C ) :   1.3697 B( 37-C , 38-C ) :   1.3635 B( 38-C , 39-C ) :   1.4782 
B( 38-C , 88-H ) :   0.9680 B( 39-C , 40-S ) :   1.1892 B( 39-C , 89-H ) :   0.9406 
B( 40-S , 41-C ) :   1.2726 B( 41-C , 90-H ) :   0.9287 B( 42-C , 43-C ) :   1.4869 
B( 42-C , 91-H ) :   0.9645 B( 43-C , 44-C ) :   1.2473 B( 43-C , 92-H ) :   0.9629 
B( 44-C , 45-C ) :   1.4091 B( 44-C , 52-O ) :   1.0504 B( 45-C , 46-O ) :   1.0218 
B( 45-C , 53-C ) :   1.1810 B( 46-O , 47-C ) :   1.0828 B( 47-C , 48-C ) :   1.1949 
B( 47-C , 51-C ) :   1.5705 B( 48-C , 49-C ) :   1.5664 B( 48-C , 52-O ) :   1.0634 
B( 49-C , 50-S ) :   1.1370 B( 49-C , 93-H ) :   0.9736 B( 50-S , 51-C ) :   1.1323 
B( 51-C , 94-H ) :   0.9704 B( 53-C , 54-C ) :   1.6150 B( 53-C , 95-H ) :   0.9475 
B( 54-C , 55-C ) :   1.0940 B( 54-C , 96-H ) :   0.9747 B( 55-C , 56-C ) :   1.4982 
B( 55-C , 72-C ) :   1.0937 B( 56-C , 57-C ) :   1.1608 B( 56-C , 97-H ) :   0.9895 
B( 57-C , 58-C ) :   1.4755 B( 57-C , 70-C ) :   1.1080 B( 58-C , 59-C ) :   1.0474 
B( 58-C , 64-C ) :   1.0857 B( 59-C , 60-C ) :   1.0352 B( 59-C , 62-C ) :   1.0362 
B( 59-C , 98-H ) :   0.8753 B( 60-C , 61-N ) :   1.1034 B( 60-C , 99-H ) :   0.9241 
B( 60-C ,100-H ) :   0.9460 B( 61-N ,101-H ) :   0.9704 B( 61-N ,102-H ) :   0.9679 
B( 62-C , 63-N ) :   1.0917 B( 62-C ,103-H ) :   0.9283 B( 62-C ,104-H ) :   0.9325 
B( 63-N ,105-H ) :   0.9682 B( 63-N ,106-H ) :   0.9663 B( 64-C , 65-C ) :   1.6808 
B( 64-C , 69-C ) :   1.0510 B( 65-C , 66-C ) :   0.9699 B( 65-C ,107-H ) :   0.9554 
B( 66-C , 67-C ) :   1.0032 B( 66-C , 73-C ) :   0.9508 B( 66-C ,108-H ) :   0.8641 
B( 67-C , 68-C ) :   1.7125 B( 67-C ,109-H ) :   0.9732 B( 68-C , 69-C ) :   1.1231 
B( 68-C ,110-H ) :   0.9915 B( 69-C , 70-C ) :   1.4455 B( 70-C , 71-C ) :   1.1330 
B( 71-C , 72-C ) :   1.6037 B( 71-C ,111-H ) :   0.9916 B( 72-C ,112-H ) :   0.9897 
B( 73-C , 74-C ) :   2.0416 B( 73-C ,113-H ) :   0.9656 B( 74-C ,114-H ) :   0.9372 
B( 74-C ,115-H ) :   0.9551 

-------
TIMINGS
-------

Total SCF time: 0 days 0 hours 15 min 34 sec 

Total time                  ....     934.606 sec
Sum of individual times     ....     931.169 sec  ( 99.6%)

Fock matrix formation       ....     877.214 sec  ( 93.9%)
  Split-RI-J                ....     102.206 sec  ( 11.7% of F)
  Chain of spheres X        ....     733.604 sec  ( 83.6% of F)
  COS-X 1 center corr.      ....       0.000 sec  (  0.0% of F)
  XC integration            ....      39.124 sec  (  4.5% of F)
    Basis function eval.    ....      13.892 sec  ( 35.5% of XC)
    Density eval.           ....       8.312 sec  ( 21.2% of XC)
    XC-Functional eval.     ....       7.370 sec  ( 18.8% of XC)
    XC-Potential eval.      ....       7.392 sec  ( 18.9% of XC)
Diagonalization             ....       4.342 sec  (  0.5%)
Density matrix formation    ....       0.721 sec  (  0.1%)
Population analysis         ....       0.477 sec  (  0.1%)
Initial guess               ....       3.774 sec  (  0.4%)
Orbital Transformation      ....       0.000 sec  (  0.0%)
Orbital Orthonormalization  ....       0.000 sec  (  0.0%)
DIIS solution               ....       3.681 sec  (  0.4%)
SOSCF solution              ....       4.720 sec  (  0.5%)
Grid generation             ....      36.240 sec  (  3.9%)


           ************************************************************
           *        Program running with 6 parallel MPI-processes     *
           *              working on a common directory               *
           ************************************************************

---------------------------------------------------------------------------------

                       ORCA sTD-DFT CALCULATION

                       please cite in your paper           
 orginal sTDA method:  S. Grimme, J. Chem. Phys. 138, 244104 (2013)           
 range-separated sTDA: T. Risthaus, A. Hansen, S. Grimme, Phys. Chem. Chem. Phys.
                       16, 14408-14419 (2014) 
 sTD-DFT approach:     C. Bannwarth, S. Grimme, Comp. Theor. Chem. 
                       1040-1041, 45-53 (2014)

---------------------------------------------------------------------------------


spectral range up to (eV)      ...    5.000000
occ. MO cut-off (eV)           ...   -15.818319
virt. MO cut-off (eV)          ...    8.274563
perturbation threshold         ...   1.000e-04 
MOs in sTD-DFT                 ...         206 
occ. MOs in sTD-DFT            ...         106 
virt. in sTD-DFT               ...         100 
calculate triplets           ...   no  

Calculating the dipole lengths integrals ... 
Transforming integrals ... 
Calculating the dipole velocity integrals ... 
Transforming integrals ... 
Calculating magnetic dipole integrals ... 
Transforming integrals ... 





























































SCF atom population (using active MOs):

   1.809   1.479   2.144   3.892   2.132   3.894   2.081   2.074   2.178   1.985
   2.073   2.174   3.611   2.171   2.063   4.793   1.846   4.437   2.146   1.965
   2.133   2.165   2.550   2.078   1.943   1.932   2.077   1.941   3.558   2.110
   2.199   2.210   2.141   2.342   2.834   2.421   2.144   2.163   2.372   2.342
   3.582   2.265   2.519   2.675   1.935   2.017   3.607   1.952   1.941   2.645
   3.906   2.675   3.595   2.579   2.582   2.276   2.488   2.390   2.456   2.425
   2.599   3.699   2.603   3.812   2.296   2.268   2.383   2.508   2.473   2.310
   2.300   2.420   2.460   2.493   2.761   0.548   0.554   0.405   0.466   0.572
   0.541   0.581   0.366   0.453   0.500   0.530   0.610   0.635   0.605   0.457
   0.490   0.609   0.634   0.583   0.596   0.645   0.620   0.606   0.618   0.690
   0.650   0.546   0.543   0.683   0.656   0.564   0.583   0.514   0.652   0.583
   0.643   0.601   0.595   0.556   0.580   0.639

Number of electrons in sTDA:  212.000

ax(DF)   :  0.3800
s^k      :  2.0000
beta  (J):  1.8600
alpha (K):  0.9000

hardness table read
setting up gammas ...
computing q(ij,n)
memory needed for q data:            14.1 MB 
memory available for q data:       2477.1 MB 

CSF included by energy:           81 
CSF considered in PT2:         10519 

ordered frontier orbitals
           eV         # centers 
  95      -8.333      26.6
  96      -8.029       2.9
  97      -7.909      23.2
  98      -7.850      22.1
  99      -7.798       4.6
 100      -7.484      28.2
 101      -7.353      16.6
 102      -6.789      23.2
 103      -6.352      28.4
 104      -5.787      12.2
 105      -4.765      16.3

 106      -2.778      13.5
 107      -2.509      11.7
 108      -1.704      12.1
 109      -1.583      15.7
 110      -1.027      15.2
 111      -0.480      25.7
 112      -0.396      30.1
 113       0.230      16.6
 114       0.389      15.9
 115       0.515      15.7
 116       0.958      17.4

           eV        nm       excitation i->a                     eV 
   0      0.39    3213.9   105 -> 106      gap,J,K:    1.987     2.234     0.316
   1      0.97    1272.6   105 -> 107      gap,J,K:    2.257     1.309     0.013
   2      1.50     827.4   105 -> 108      gap,J,K:    3.062     1.979     0.208
   3      1.50     825.8   104 -> 106      gap,J,K:    3.009     1.688     0.090
   4      1.91     650.8   105 -> 109      gap,J,K:    3.182     1.288     0.006
   5      1.99     622.7   103 -> 106      gap,J,K:    3.573     2.088     0.253
   6      2.06     603.2   105 -> 110      gap,J,K:    3.739     2.034     0.175
   7      2.19     566.3   102 -> 106      gap,J,K:    4.010     2.069     0.124
   8      2.25     550.3   104 -> 108      gap,J,K:    4.083     2.659     0.414
   9      2.28     544.4   104 -> 107      gap,J,K:    3.279     1.016     0.007
  10      2.50     496.8   103 -> 107      gap,J,K:    3.843     1.533     0.093
  11      2.69     461.3   105 -> 112      gap,J,K:    4.370     2.094     0.206
  12      2.76     449.5   102 -> 107      gap,J,K:    4.280     2.091     0.285
  13      2.83     437.9   105 -> 111      gap,J,K:    4.285     1.684     0.115
  14      3.01     412.4   101 -> 106      gap,J,K:    4.575     1.677     0.054
  15      3.03     408.8   100 -> 106      gap,J,K:    4.706     2.002     0.164
  16      3.13     396.5   103 -> 108      gap,J,K:    4.648     1.732     0.106
  17      3.17     391.7   104 -> 109      gap,J,K:    4.204     1.046     0.003
  18      3.31     374.9   104 -> 110      gap,J,K:    4.761     1.533     0.040
  19      3.39     365.7   103 -> 109      gap,J,K:    4.769     1.462     0.042
  20      3.46     358.1   105 -> 115      gap,J,K:    5.280     2.443     0.313
  21      3.53     351.6   100 -> 107      gap,J,K:    4.975     1.684     0.117
  22      3.54     350.3   102 -> 109      gap,J,K:    5.206     1.969     0.151
  23      3.56     348.2   105 -> 114      gap,J,K:    5.154     1.820     0.113
  24      3.61     343.3    98 -> 106      gap,J,K:    5.072     1.506     0.023

average / max PT2 energy lowering (eV):       0.027       0.112

CSF included by PT:                   379 
total number of CSF included:         460 
 
sTD-DFT procedure...
setting up A+B and A-B matrices...  done
estimated time (min):    0.004
calculating (A-B)^0.5 ...
Error (STDDFT): (A-B) is not positive definite!
                The ground-state wave function is non-real unstable.
                Check your ground-state and/or resort to sTDA.
[file orca_cis/cis_stda.cpp, line 1998, Process 5]: Non-real instability encountered...

[file orca_cis/cis_stda.cpp, line 1998, Process 1]: Non-real instability encountered...

[file orca_cis/cis_stda.cpp, line 1998, Process 2]: Non-real instability encountered...

[file orca_cis/cis_stda.cpp, line 1998, Process 3]: Non-real instability encountered...

[file orca_cis/cis_stda.cpp, line 1998, Process 4]: Non-real instability encountered...

[file orca_cis/cis_stda.cpp, line 1998, Process 0]: Non-real instability encountered...


ORCA finished by error termination in CIS
Calling Command: mpirun -np 6  /ihome/crc/build/orca/orca_4_2_0_linux_x86-64_openmpi314/orca_cis_mpi xtbopt.cisinp.tmp xtbopt 
[file orca_tools/qcmsg.cpp, line 458]: 
  .... aborting the run

