
                                 *****************
                                 * O   R   C   A *
                                 *****************

           --- An Ab Initio, DFT and Semiempirical electronic structure package ---

                  #######################################################
                  #                        -***-                        #
                  #          Department of theory and spectroscopy      #
                  #               Directorship: Frank Neese             #
                  #        Max Planck Institute fuer Kohlenforschung    #
                  #                Kaiser Wilhelm Platz 1               #
                  #                 D-45470 Muelheim/Ruhr               #
                  #                      Germany                        #
                  #                                                     #
                  #                  All rights reserved                #
                  #                        -***-                        #
                  #######################################################


                         Program Version 4.2.0 -  RELEASE  -


 With contributions from (in alphabetic order):
   Daniel Aravena         : Magnetic Suceptibility
   Michael Atanasov       : Ab Initio Ligand Field Theory (pilot matlab implementation)
   Alexander A. Auer      : GIAO ZORA, VPT2
   Ute Becker             : Parallelization
   Giovanni Bistoni       : ED, misc. LED, open-shell LED, HFLED
   Martin Brehm           : Molecular dynamics
   Dmytro Bykov           : SCF Hessian
   Vijay G. Chilkuri      : MRCI spin determinant printing, contributions to CSF-ICE
   Dipayan Datta          : RHF DLPNO-CCSD density
   Achintya Kumar Dutta   : EOM-CC, STEOM-CC
   Dmitry Ganyushin       : Spin-Orbit,Spin-Spin,Magnetic field MRCI
   Miquel Garcia          : C-PCM Hessian, Gaussian charge scheme
   Yang Guo               : DLPNO-NEVPT2, CIM, IAO-localization
   Andreas Hansen         : Spin unrestricted coupled pair/coupled cluster methods
   Benjamin Helmich-Paris : CASSCF linear response (MC-RPA)
   Lee Huntington         : MR-EOM, pCC
   Robert Izsak           : Overlap fitted RIJCOSX, COSX-SCS-MP3, EOM
   Christian Kollmar      : KDIIS, OOCD, Brueckner-CCSD(T), CCSD density
   Simone Kossmann        : Meta GGA functionals, TD-DFT gradient, OOMP2, MP2 Hessian
   Martin Krupicka        : AUTO-CI
   Lucas Lang             : DCDCAS
   Dagmar Lenk            : GEPOL surface, SMD
   Dimitrios Liakos       : Extrapolation schemes; Compound Job, initial MDCI parallelization
   Dimitrios Manganas     : Further ROCIS development; embedding schemes
   Dimitrios Pantazis     : SARC Basis sets
   Taras Petrenko         : DFT Hessian,TD-DFT gradient, ASA, ECA, R-Raman, ABS, FL, XAS/XES, NRVS
   Peter Pinski           : DLPNO-MP2, DLPNO-MP2 Gradient
   Christoph Reimann      : Effective Core Potentials
   Marius Retegan         : Local ZFS, SOC
   Christoph Riplinger    : Optimizer, TS searches, QM/MM, DLPNO-CCSD(T), (RO)-DLPNO pert. Triples
   Tobias Risthaus        : Range-separated hybrids, TD-DFT gradient, RPA, STAB
   Michael Roemelt        : Original ROCIS implementation
   Masaaki Saitow         : Open-shell DLPNO-CCSD energy and density
   Barbara Sandhoefer     : DKH picture change effects
   Avijit Sen             : IP-ROCIS
   Kantharuban Sivalingam : CASSCF convergence, NEVPT2, FIC-MRCI
   Bernardo de Souza      : ESD, SOC TD-DFT
   Georgi Stoychev        : AutoAux, RI-MP2 NMR
   Willem Van den Heuvel  : Paramagnetic NMR
   Boris Wezisla          : Elementary symmetry handling
   Frank Wennmohs         : Technical directorship


 We gratefully acknowledge several colleagues who have allowed us to
 interface, adapt or use parts of their codes:
   Stefan Grimme, W. Hujo, H. Kruse,             : VdW corrections, initial TS optimization,
                  C. Bannwarth                     DFT functionals, gCP, sTDA/sTD-DF
   Ed Valeev, F. Pavosevic, A. Kumar             : LibInt (2-el integral package), F12 methods
   Garnet Chan, S. Sharma, J. Yang, R. Olivares  : DMRG
   Ulf Ekstrom                                   : XCFun DFT Library
   Mihaly Kallay                                 : mrcc  (arbitrary order and MRCC methods)
   Andreas Klamt, Michael Diedenhofen            : otool_cosmo (COSMO solvation model)
   Jiri Pittner, Ondrej Demel                    : Mk-CCSD
   Frank Weinhold                                : gennbo (NPA and NBO analysis)
   Christopher J. Cramer and Donald G. Truhlar   : smd solvation model
   Lars Goerigk                                  : TD-DFT with DH, B97 family of functionals
   V. Asgeirsson, H. Jonsson                     : NEB implementation
   FAccTs GmbH                                   : IRC, NEB, NEB-TS, Multilevel, MM, QM/MM, CI optimization
   S Lehtola, MJT Oliveira, MAL Marques          : LibXC Library


 Your calculation uses the libint2 library for the computation of 2-el integrals
 For citations please refer to: http://libint.valeyev.net

 Your ORCA version has been built with support for libXC version: 4.2.3
 For citations please refer to: https://tddft.org/programs/libxc/

 This ORCA versions uses:
   CBLAS   interface :  Fast vector & matrix operations
   LAPACKE interface :  Fast linear algebra routines
   SCALAPACK package :  Parallel linear algebra routines


XCFun DFT library Copyright 2009-2010 Ulf Ekstrom and contributors.
See http://admol.org/xcfun for more information. This is free soft-
ware; see the source code for copying conditions. There is ABSOLUTELY
NO WARRANTY; not even for MERCHANTABILITY or FITNESS FOR A PARTICULAR
PURPOSE. For details see the documentation. Scientific users of this 
library should cite U. Ekstrom, L. Visscher, R. Bast, A. J. Thorvald-
sen and K. Ruud; J.Chem.Theor.Comp. 2010, DOI: 10.1021/ct100117s
XCFun Version 0.99 
----- Orbital basis set information -----
Your calculation utilizes the basis: def2-SVP
   F. Weigend and R. Ahlrichs, Phys. Chem. Chem. Phys. 7, 3297 (2005).

----- AuxJ basis set information -----
Your calculation utilizes the auxiliary basis: def2/J
   F. Weigend, Phys. Chem. Chem. Phys. 8, 1057 (2006).

================================================================================
                                        WARNINGS
                       Please study these warnings very carefully!
================================================================================

INFO   : Checking CIS options ...

WARNING: CIS/ROCIS methods need fully converged wavefunctions
  ===> : Setting SCFConvForced true
         You can overwrite this default with %scf ConvForced false 


INFO   : the flag for use of LIBINT has been found!

================================================================================
                                       INPUT FILE
================================================================================
NAME = xtbopt.inp
|  1> # ORCA input file
|  2> # SCF done       -192.795518411582          0.000907129459
|  3> ! CAM-B3LYP def2-SVP def2/J RIJCOSX Grid4 TightSCF
|  4> %maxcore 5000
|  5> %tddft
|  6>     Mode sTDDFT
|  7>     Ethresh 5.0
|  8>     maxcore 5000
|  9> end
| 10> 
| 11> %pal
| 12>   nprocs 6
| 13>   end
| 14> * xyz 0 1
| 15>    C      -12.40593         4.14435         4.86470
| 16>    C      -12.18805         3.38698         5.98932
| 17>    C      -12.64366         3.73824         7.27688
| 18>    N      -12.99085         3.96050         8.34887
| 19>    C      -11.48944         2.16390         6.05246
| 20>    N      -10.93599         1.16868         6.21022
| 21>    C      -13.12432         5.41640         4.84046
| 22>    C      -13.14849         5.89855         3.50925
| 23>    C      -13.75022         7.08110         3.15591
| 24>    C      -14.35928         7.82999         4.16866
| 25>    C      -14.33117         7.34224         5.49613
| 26>    C      -13.72295         6.14399         5.85190
| 27>    S      -15.14127         8.42266         6.59059
| 28>    C      -15.50045         9.49926         5.26703
| 29>    C      -15.03922         9.07465         4.06705
| 30>   Br      -16.44990        11.08337         5.59419
| 31>    C      -12.44821         4.93756         2.63494
| 32>    O      -12.30611         5.03918         1.42976
| 33>    C      -11.98340         3.85649         3.50936
| 34>    C      -11.24237         2.76474         3.12501
| 35>    C      -10.79753         2.36217         1.86061
| 36>    S      -11.32505         3.02601         0.33244
| 37>    C      -10.54229         1.75973        -0.50938
| 38>    C       -9.87546         0.87555         0.29007
| 39>    C       -9.08548        -0.28758        -0.21077
| 40>    C       -9.98768         1.22332         1.65865
| 41>    C       -9.32123         0.49551         2.69768
| 42>    C       -8.77580         1.04325         3.80788
| 43>    C       -8.13354         0.31529         4.85282
| 44>    C       -8.28227        -1.00828         5.08318
| 45>    C       -7.59155        -1.72755         6.08934
| 46>    N       -7.72295        -3.01006         6.28401
| 47>    C       -6.88913        -3.44305         7.23204
| 48>    C       -6.07410        -2.49338         7.80108
| 49>    S       -6.38581        -0.95026         7.14503
| 50>    C       -5.16397        -3.07558         8.80977
| 51>    C       -5.30721        -4.61166         8.52452
| 52>    C       -6.71471        -4.78622         7.88959
| 53>    C       -6.89943        -5.92223         6.87418
| 54>    C       -6.46940        -7.30912         7.33704
| 55>    C       -7.79542        -4.84264         9.00693
| 56>    C       -7.53769        -5.75662        10.20240
| 57>    N       -4.14801        -5.04669         7.75297
| 58>    C       -3.00248        -4.44815         8.35463
| 59>    S       -3.39305        -2.65535         8.62587
| 60>    C       -4.12371        -5.03059         6.34537
| 61>    O       -4.48578        -3.84434         5.75797
| 62>    C       -4.52808        -3.76562         4.39653
| 63>    C       -4.93649        -2.62722         3.76851
| 64>    F       -5.27293        -1.47283         4.34315
| 65>    S       -4.96433        -2.76132         2.04771
| 66>    C       -3.68958        -6.12015         5.71468
| 67>    S       -3.56261        -6.33976         3.97715
| 68>    C       -4.19017        -4.78269         3.45814
| 69>    C       -4.36879        -4.40784         2.14608
| 70>    C       -4.15457        -5.09026         0.91024
| 71>    C       -3.61406        -6.31629         0.77049
| 72>    C       -3.36964        -7.03029        -0.45684
| 73>    C       -3.90022        -6.73007        -1.71119
| 74>    O       -4.72943        -5.65561        -1.78337
| 75>    C       -5.82061        -5.63439        -2.68360
| 76>    C       -3.54315        -7.50449        -2.86997
| 77>    O       -4.04667        -7.05230        -4.05353
| 78>    C       -3.70663        -7.73313        -5.23733
| 79>    C       -2.72619        -8.60363        -2.77859
| 80>    C       -2.21368        -8.95865        -1.52342
| 81>    C       -2.52277        -8.16790        -0.36775
| 82>    N       -1.94178        -8.64235         0.73078
| 83>    S       -1.09466        -9.95616         0.34133
| 84>    N       -1.41759        -9.98707        -1.23792
| 85>    H      -13.75011         7.41867         2.13136
| 86>    H      -13.73065         5.81859         6.87848
| 87>    H      -15.17208         9.61454         3.14734
| 88>    H      -10.95712         2.08054         3.91446
| 89>    H      -10.59410         1.73272        -1.58143
| 90>    H       -9.10137        -0.31567        -1.29691
| 91>    H       -9.50074        -1.22105         0.16797
| 92>    H       -8.05205        -0.21842         0.12564
| 93>    H       -9.19537        -0.56343         2.51959
| 94>    H       -8.75235         2.12158         3.90120
| 95>    H       -7.49441         0.88465         5.51471
| 96>    H       -8.95319        -1.60886         4.48600
| 97>    H       -5.45512        -2.81092         9.83022
| 98>    H       -5.22892        -5.16623         9.46307
| 99>    H       -7.95669        -5.93831         6.60159
|100>    H       -6.35895        -5.66778         5.96324
|101>    H       -7.18275        -7.72741         8.04108
|102>    H       -5.48809        -7.27563         7.80239
|103>    H       -6.41898        -7.97759         6.48029
|104>    H       -7.94679        -3.83002         9.39051
|105>    H       -8.72902        -5.13934         8.52646
|106>    H       -6.79931        -5.33206        10.87887
|107>    H       -7.20304        -6.74263         9.89937
|108>    H       -8.46363        -5.86875        10.76259
|109>    H       -2.11868        -4.52692         7.72693
|110>    H       -2.81431        -4.88936         9.33589
|111>    H       -3.41028        -6.99468         6.27153
|112>    H       -4.44519        -4.52840         0.03672
|113>    H       -3.26524        -6.85516         1.63944
|114>    H       -6.54069        -4.94364        -2.24273
|115>    H       -6.28027        -6.61916        -2.78437
|116>    H       -5.52332        -5.26971        -3.66854
|117>    H       -2.62597        -7.72530        -5.40719
|118>    H       -4.20288        -7.18739        -6.03846
|119>    H       -4.06726        -8.76612        -5.22434
|120>    H       -2.45015        -9.19445        -3.63427
|121> *
|122> 
|123>                          ****END OF INPUT****
================================================================================

                       ****************************
                       * Single Point Calculation *
                       ****************************

---------------------------------
CARTESIAN COORDINATES (ANGSTROEM)
---------------------------------
  C    -12.405930    4.144350    4.864700
  C    -12.188050    3.386980    5.989320
  C    -12.643660    3.738240    7.276880
  N    -12.990850    3.960500    8.348870
  C    -11.489440    2.163900    6.052460
  N    -10.935990    1.168680    6.210220
  C    -13.124320    5.416400    4.840460
  C    -13.148490    5.898550    3.509250
  C    -13.750220    7.081100    3.155910
  C    -14.359280    7.829990    4.168660
  C    -14.331170    7.342240    5.496130
  C    -13.722950    6.143990    5.851900
  S    -15.141270    8.422660    6.590590
  C    -15.500450    9.499260    5.267030
  C    -15.039220    9.074650    4.067050
  Br   -16.449900   11.083370    5.594190
  C    -12.448210    4.937560    2.634940
  O    -12.306110    5.039180    1.429760
  C    -11.983400    3.856490    3.509360
  C    -11.242370    2.764740    3.125010
  C    -10.797530    2.362170    1.860610
  S    -11.325050    3.026010    0.332440
  C    -10.542290    1.759730   -0.509380
  C     -9.875460    0.875550    0.290070
  C     -9.085480   -0.287580   -0.210770
  C     -9.987680    1.223320    1.658650
  C     -9.321230    0.495510    2.697680
  C     -8.775800    1.043250    3.807880
  C     -8.133540    0.315290    4.852820
  C     -8.282270   -1.008280    5.083180
  C     -7.591550   -1.727550    6.089340
  N     -7.722950   -3.010060    6.284010
  C     -6.889130   -3.443050    7.232040
  C     -6.074100   -2.493380    7.801080
  S     -6.385810   -0.950260    7.145030
  C     -5.163970   -3.075580    8.809770
  C     -5.307210   -4.611660    8.524520
  C     -6.714710   -4.786220    7.889590
  C     -6.899430   -5.922230    6.874180
  C     -6.469400   -7.309120    7.337040
  C     -7.795420   -4.842640    9.006930
  C     -7.537690   -5.756620   10.202400
  N     -4.148010   -5.046690    7.752970
  C     -3.002480   -4.448150    8.354630
  S     -3.393050   -2.655350    8.625870
  C     -4.123710   -5.030590    6.345370
  O     -4.485780   -3.844340    5.757970
  C     -4.528080   -3.765620    4.396530
  C     -4.936490   -2.627220    3.768510
  F     -5.272930   -1.472830    4.343150
  S     -4.964330   -2.761320    2.047710
  C     -3.689580   -6.120150    5.714680
  S     -3.562610   -6.339760    3.977150
  C     -4.190170   -4.782690    3.458140
  C     -4.368790   -4.407840    2.146080
  C     -4.154570   -5.090260    0.910240
  C     -3.614060   -6.316290    0.770490
  C     -3.369640   -7.030290   -0.456840
  C     -3.900220   -6.730070   -1.711190
  O     -4.729430   -5.655610   -1.783370
  C     -5.820610   -5.634390   -2.683600
  C     -3.543150   -7.504490   -2.869970
  O     -4.046670   -7.052300   -4.053530
  C     -3.706630   -7.733130   -5.237330
  C     -2.726190   -8.603630   -2.778590
  C     -2.213680   -8.958650   -1.523420
  C     -2.522770   -8.167900   -0.367750
  N     -1.941780   -8.642350    0.730780
  S     -1.094660   -9.956160    0.341330
  N     -1.417590   -9.987070   -1.237920
  H    -13.750110    7.418670    2.131360
  H    -13.730650    5.818590    6.878480
  H    -15.172080    9.614540    3.147340
  H    -10.957120    2.080540    3.914460
  H    -10.594100    1.732720   -1.581430
  H     -9.101370   -0.315670   -1.296910
  H     -9.500740   -1.221050    0.167970
  H     -8.052050   -0.218420    0.125640
  H     -9.195370   -0.563430    2.519590
  H     -8.752350    2.121580    3.901200
  H     -7.494410    0.884650    5.514710
  H     -8.953190   -1.608860    4.486000
  H     -5.455120   -2.810920    9.830220
  H     -5.228920   -5.166230    9.463070
  H     -7.956690   -5.938310    6.601590
  H     -6.358950   -5.667780    5.963240
  H     -7.182750   -7.727410    8.041080
  H     -5.488090   -7.275630    7.802390
  H     -6.418980   -7.977590    6.480290
  H     -7.946790   -3.830020    9.390510
  H     -8.729020   -5.139340    8.526460
  H     -6.799310   -5.332060   10.878870
  H     -7.203040   -6.742630    9.899370
  H     -8.463630   -5.868750   10.762590
  H     -2.118680   -4.526920    7.726930
  H     -2.814310   -4.889360    9.335890
  H     -3.410280   -6.994680    6.271530
  H     -4.445190   -4.528400    0.036720
  H     -3.265240   -6.855160    1.639440
  H     -6.540690   -4.943640   -2.242730
  H     -6.280270   -6.619160   -2.784370
  H     -5.523320   -5.269710   -3.668540
  H     -2.625970   -7.725300   -5.407190
  H     -4.202880   -7.187390   -6.038460
  H     -4.067260   -8.766120   -5.224340
  H     -2.450150   -9.194450   -3.634270

----------------------------
CARTESIAN COORDINATES (A.U.)
----------------------------
  NO LB      ZA    FRAG     MASS         X           Y           Z
   0 C     6.0000    0    12.011  -23.443810    7.831687    9.192951
   1 C     6.0000    0    12.011  -23.032077    6.400465   11.318175
   2 C     6.0000    0    12.011  -23.893055    7.064250   13.751310
   3 N     7.0000    0    14.007  -24.549149    7.484260   15.777078
   4 C     6.0000    0    12.011  -21.711895    4.089178   11.437492
   5 N     7.0000    0    14.007  -20.666026    2.208485   11.735615
   6 C     6.0000    0    12.011  -24.801370   10.235513    9.147144
   7 C     6.0000    0    12.011  -24.847045   11.146644    6.631521
   8 C     6.0000    0    12.011  -25.984150   13.381340    5.963806
   9 C     6.0000    0    12.011  -27.135107   14.796537    7.877626
  10 C     6.0000    0    12.011  -27.081986   13.874823   10.386180
  11 C     6.0000    0    12.011  -25.932617   11.610458   11.058488
  12 S    16.0000    0    32.060  -28.612854   15.916521   12.454410
  13 C     6.0000    0    12.011  -29.291605   17.951000    9.953244
  14 C     6.0000    0    12.011  -28.420007   17.148603    7.685611
  15 Br   35.0000    0    79.900  -31.085806   20.944534   10.571487
  16 C     6.0000    0    12.011  -23.523708    9.330636    4.979315
  17 O     8.0000    0    15.999  -23.255178    9.522670    2.701855
  18 C     6.0000    0    12.011  -22.645344    7.287710    6.631729
  19 C     6.0000    0    12.011  -21.245000    5.224601    5.905413
  20 C     6.0000    0    12.011  -20.404375    4.463854    3.516043
  21 S    16.0000    0    32.060  -21.401243    5.718330    0.628221
  22 C     6.0000    0    12.011  -19.922041    3.325408   -0.962589
  23 C     6.0000    0    12.011  -18.661915    1.654550    0.548153
  24 C     6.0000    0    12.011  -17.169069   -0.543447   -0.398298
  25 C     6.0000    0    12.011  -18.873980    2.311740    3.134394
  26 C     6.0000    0    12.011  -17.614572    0.936378    5.097876
  27 C     6.0000    0    12.011  -16.583859    1.971457    7.195850
  28 C     6.0000    0    12.011  -15.370163    0.595812    9.170501
  29 C     6.0000    0    12.011  -15.651222   -1.905373    9.605818
  30 C     6.0000    0    12.011  -14.345950   -3.264596   11.507185
  31 N     7.0000    0    14.007  -14.594260   -5.688189   11.875058
  32 C     6.0000    0    12.011  -13.018569   -6.506422   13.666575
  33 C     6.0000    0    12.011  -11.478386   -4.711805   14.741905
  34 S    16.0000    0    32.060  -12.067432   -1.795731   13.502150
  35 C     6.0000    0    12.011   -9.758489   -5.812004   16.648053
  36 C     6.0000    0    12.011  -10.029173   -8.714774   16.109008
  37 C     6.0000    0    12.011  -12.688963   -9.044645   14.909164
  38 C     6.0000    0    12.011  -13.038033  -11.191393   12.990318
  39 C     6.0000    0    12.011  -12.225394  -13.812235   13.864996
  40 C     6.0000    0    12.011  -14.731209   -9.151263   17.020631
  41 C     6.0000    0    12.011  -14.244170  -10.878435   19.279742
  42 N     7.0000    0    14.007   -7.838603   -9.536862   14.650990
  43 C     6.0000    0    12.011   -5.673865   -8.405785   15.787963
  44 S    16.0000    0    32.060   -6.411935   -5.017884   16.300532
  45 C     6.0000    0    12.011   -7.792683   -9.506437   11.991012
  46 O     8.0000    0    15.999   -8.476896   -7.264750   10.880986
  47 C     6.0000    0    12.011   -8.556831   -7.115991    8.308238
  48 C     6.0000    0    12.011   -9.328614   -4.964726    7.121452
  49 F     9.0000    0    18.998   -9.964394   -2.783245    8.207364
  50 S    16.0000    0    32.060   -9.381224   -5.218139    3.869611
  51 C     6.0000    0    12.011   -6.972296  -11.565407   10.799180
  52 S    16.0000    0    32.060   -6.732357  -11.980410    7.515724
  53 C     6.0000    0    12.011   -7.918274   -9.037974    6.534938
  54 C     6.0000    0    12.011   -8.255817   -8.329610    4.055503
  55 C     6.0000    0    12.011   -7.851000   -9.619197    1.720104
  56 C     6.0000    0    12.011   -6.829584  -11.936058    1.456015
  57 C     6.0000    0    12.011   -6.367697  -13.285323   -0.863302
  58 C     6.0000    0    12.011   -7.370348  -12.717989   -3.233680
  59 O     8.0000    0    15.999   -8.937327  -10.687554   -3.370081
  60 C     6.0000    0    12.011  -10.999359  -10.647454   -5.071269
  61 C     6.0000    0    12.011   -6.695583  -14.181431   -5.423457
  62 O     8.0000    0    15.999   -7.647098  -13.326916   -7.660062
  63 C     6.0000    0    12.011   -7.004516  -14.613498   -9.897119
  64 C     6.0000    0    12.011   -5.151752  -16.258504   -5.250774
  65 C     6.0000    0    12.011   -4.183249  -16.929395   -2.878847
  66 C     6.0000    0    12.011   -4.767344  -15.435094   -0.694947
  67 N     7.0000    0    14.007   -3.669432  -16.331675    1.380974
  68 S    16.0000    0    32.060   -2.068608  -18.814416    0.645020
  69 N     7.0000    0    14.007   -2.678857  -18.872827   -2.339330
  70 H     1.0000    0     1.008  -25.983942   14.019255    4.027687
  71 H     1.0000    0     1.008  -25.947168   10.995542   12.998443
  72 H     1.0000    0     1.008  -28.671076   18.168848    5.947611
  73 H     1.0000    0     1.008  -20.705956    3.931651    7.397257
  74 H     1.0000    0     1.008  -20.019948    3.274366   -2.988470
  75 H     1.0000    0     1.008  -17.199097   -0.596530   -2.450805
  76 H     1.0000    0     1.008  -17.953797   -2.307450    0.317417
  77 H     1.0000    0     1.008  -15.216169   -0.412754    0.237425
  78 H     1.0000    0     1.008  -17.376731   -1.064728    4.761335
  79 H     1.0000    0     1.008  -16.539545    4.009205    7.372200
  80 H     1.0000    0     1.008  -14.162382    1.671746   10.421292
  81 H     1.0000    0     1.008  -16.919077   -3.040305    8.477311
  82 H     1.0000    0     1.008  -10.308683   -5.311869   18.576424
  83 H     1.0000    0     1.008   -9.881227   -9.762760   17.882611
  84 H     1.0000    0     1.008  -15.035965  -11.221780   12.475197
  85 H     1.0000    0     1.008  -12.016674  -10.710552   11.268890
  86 H     1.0000    0     1.008  -13.573430  -14.602689   15.195439
  87 H     1.0000    0     1.008  -10.370987  -13.748948   14.744380
  88 H     1.0000    0     1.008  -12.130114  -15.075460   12.245973
  89 H     1.0000    0     1.008  -15.017257   -7.237689   17.745492
  90 H     1.0000    0     1.008  -16.495457   -9.711945   16.112674
  91 H     1.0000    0     1.008  -12.848834  -10.076133   20.558085
  92 H     1.0000    0     1.008  -13.611773  -12.741724   18.707098
  93 H     1.0000    0     1.008  -15.993943  -11.090330   20.338348
  94 H     1.0000    0     1.008   -4.003725   -8.554639   14.601782
  95 H     1.0000    0     1.008   -5.318275   -9.239551   17.642275
  96 H     1.0000    0     1.008   -6.444495  -13.218030   11.851474
  97 H     1.0000    0     1.008   -8.400192   -8.557436    0.069391
  98 H     1.0000    0     1.008   -6.170409  -12.954375    3.098093
  99 H     1.0000    0     1.008  -12.360113   -9.342126   -4.238145
 100 H     1.0000    0     1.008  -11.867990  -12.508400   -5.261697
 101 H     1.0000    0     1.008  -10.437562   -9.958309   -6.932536
 102 H     1.0000    0     1.008   -4.962364  -14.598701  -10.218108
 103 H     1.0000    0     1.008   -7.942292  -13.582199  -11.411036
 104 H     1.0000    0     1.008   -7.686008  -16.565566   -9.872572
 105 H     1.0000    0     1.008   -4.630112  -17.374992   -6.867775

--------------------------------
INTERNAL COORDINATES (ANGSTROEM)
--------------------------------
 C      0   0   0     0.000000000000     0.00000000     0.00000000
 C      1   0   0     1.373262959415     0.00000000     0.00000000
 C      2   1   0     1.410239275194   123.99158698     0.00000000
 N      3   2   1     1.148522078064   176.40613195   174.23185834
 C      2   1   3     1.409952934711   126.42010011   180.13773048
 N      5   2   1     1.149633841055   174.63938765   177.25588699
 C      1   2   3     1.461089652349   124.87243367     0.52967844
 C      7   1   2     1.416041268996   108.68872773   180.06452321
 C      8   7   1     1.373081443688   122.86365535   180.17168158
 C      9   8   7     1.399090017904   117.74221241     0.09431090
 C     10   9   8     1.414520001803   119.08429255   359.91293659
 C      7   1   2     1.382300965275   131.22756324     0.28730024
 S     11  10   9     1.738220952008   111.54964327   179.98218694
 C     13  11  10     1.743527718736    90.10527383     0.00000000
 C     14  13  11     1.353875461555   114.14185572     0.00000000
 Br    14  13  11     1.875604825170   119.56347392   180.03664220
 C      8   7   1     1.475910510363   109.09286343     0.35147404
 O     17   8   7     1.217775786752   125.96501601   178.81207161
 C      1   2   3     1.448565323380   127.61552693   180.41223128
 C     19   1   2     1.374324723601   125.22615659   358.04048114
 C     20  19   1     1.399518699589   130.73443373   178.55516783
 S     21  20  19     1.747645400217   125.78810385   348.14777104
 C     22  21  20     1.710216117454    90.63099161   190.81526595
 C     23  22  21     1.365853880838   114.49757809   358.54801156
 C     24  23  22     1.492575124709   124.50354560   181.82370785
 C     21  20  19     1.411957572521   122.92531253   177.26431230
 C     26  21  20     1.432985114891   124.93859668   347.75541881
 C     27  26  21     1.352796005501   125.23426655   324.20500511
 C     28  27  26     1.426297049285   125.17993077   178.82530642
 C     29  28  27     1.351674475382   125.10539751   341.01859101
 C     30  29  28     1.416616178398   124.37285616   177.09612907
 N     31  30  29     1.303838283301   123.80299239   181.47165522
 C     32  31  30     1.334727317994   111.23458229   175.63687735
 C     33  32  31     1.374755807916   116.12095800   359.74494316
 S     34  33  32     1.705515775653   110.94319273     1.45372560
 C     34  33  32     1.478089636321   112.05064721   181.58825526
 C     36  34  33     1.568893567614   101.85025111    13.28496937
 C     33  32  31     1.505622790675   132.21941056   174.99257805
 C     38  33  32     1.534828220551   110.94185622    37.98302589
 C     39  38  33     1.524017405609   116.01899646   167.81255070
 C     38  33  32     1.555495418219   105.40156139   277.28375628
 C     41  38  33     1.526739242372   117.83246323   205.17397732
 N     37  36  34     1.458864333446   108.39533815   101.23912591
 C     43  37  36     1.425652085223   106.86236548    44.04983997
 S     36  34  33     1.829363307083   115.91214521   129.20225490
 C     43  37  36     1.407901793450   122.61976111   270.07940299
 O     46  43  37     1.372341979027   115.67505655    51.30364802
 C     47  46  43     1.364369818634   119.02303189   182.10113883
 C     48  47  46     1.362777461107   121.15381593   177.17179342
 F     49  48  47     1.332673731751   126.90914530     3.28650565
 S     49  48  47     1.726241731508   113.53604372   181.93958780
 C     46  43  37     1.331683042845   118.01953412   227.71635960
 S     52  46  43     1.755950008941   126.47950346   180.17253300
 C     48  47  46     1.424496523372   127.50193645   357.69662460
 C     54  48  47     1.376197322516   113.75248778   178.47602081
 C     55  54  48     1.427896274384   132.49395253   179.62830898
 C     56  55  54     1.347156517818   125.79778314   355.47425277
 C     57  56  55     1.440790083704   127.40438885   180.70029306
 C     58  57  56     1.394647305701   126.50803818   344.96554913
 O     59  58  57     1.359140709456   116.74675527     0.08668533
 C     60  59  58     1.414757270241   121.07834807   213.65390817
 C     59  58  57     1.438748209278   120.93730538   178.17169219
 O     62  59  58     1.363386394277   115.40396481   184.75494325
 C     63  62  59     1.407316286589   118.72057888   178.02560420
 C     62  59  58     1.372546059555   121.67764554     3.36572580
 C     65  62  59     1.401484009684   118.69510061   358.89429863
 C     58  57  56     1.421014544999   116.38637481   166.25571192
 N     67  58  57     1.330195603473   126.69934730     0.41336887
 S     68  67  58     1.611018408647   108.71747327   179.24455314
 N     66  65  62     1.331509382055   127.32456916   179.61647769
 H      9   8   7     1.078728983341   120.92223954   180.01091372
 H     12   7   1     1.076945191920   122.78878750   359.74744916
 H     15  14  13     1.074709019130   123.97501115   179.98650897
 H     20  19   1     1.082925900050   116.10733832   359.62926130
 H     23  22  21     1.073641010161   119.21190667   179.70409890
 H     25  24  23     1.086619362887   110.35351418     1.16621327
 H     25  24  23     1.089610524958   110.44210739   241.02036904
 H     25  24  23     1.089005215139   110.43319945   121.65215934
 H     27  26  21     1.081161741508   115.60492533   148.87353787
 H     28  27  26     1.082614480690   118.86623552   354.34518454
 H     29  28  27     1.082014943797   116.46042453   162.15391763
 H     30  29  28     1.080487822791   121.22602933   357.60453590
 H     36  34  33     1.093677941901   112.17888056   252.79824783
 H     37  36  34     1.092956225793   109.51910487   214.37226305
 H     39  38  33     1.091953562245   107.01255198   290.49069905
 H     39  38  33     1.089346187628   108.70110393    44.52409106
 H     40  39  38     1.086051135168   111.22545230    74.52083185
 H     40  39  38     1.086573291914   110.90722404   312.89360763
 H     40  39  38     1.087848739393   109.45610804   193.43081871
 H     41  38  33     1.093364421270   108.33655302   327.59065081
 H     41  38  33     1.091096361876   106.74002108    82.19682866
 H     42  41  38     1.087689238202   111.58696504    75.14370960
 H     42  41  38     1.084450793489   112.18499346   312.99825763
 H     42  41  38     1.088003151006   108.73507461   193.32809915
 H     44  43  37     1.086882902110   112.28548179   192.90172439
 H     44  43  37     1.092220399278   110.36415136    69.19103301
 H     52  46  43     1.073728612546   120.36958032     2.66087673
 H     56  55  54     1.078510006630   114.30479884   176.91837378
 H     57  56  55     1.080338082176   120.00379482   357.67804229
 H     61  60  59     1.090879061033   105.15637976   154.61745490
 H     61  60  59     1.091427442114   111.71850663    36.15217138
 H     61  60  59     1.091549197288   111.66097868   273.21695755
 H     64  63  62     1.093956015615   111.45892328   299.62523695
 H     64  63  62     1.088992877387   105.44253159   181.00124863
 H     64  63  62     1.094207967938   111.53641028    62.38677109
 H     65  62  59     1.075850647813   122.65238957   179.92686442

---------------------------
INTERNAL COORDINATES (A.U.)
---------------------------
 C      0   0   0     0.000000000000     0.00000000     0.00000000
 C      1   0   0     2.595090903152     0.00000000     0.00000000
 C      2   1   0     2.664966013416   123.99158698     0.00000000
 N      3   2   1     2.170392186303   176.40613195   174.23185834
 C      2   1   3     2.664424908322   126.42010011   180.13773048
 N      5   2   1     2.172493113883   174.63938765   177.25588699
 C      1   2   3     2.761059300045   124.87243367     0.52967844
 C      7   1   2     2.675930192733   108.68872773   180.06452321
 C      8   7   1     2.594747888139   122.86365535   180.17168158
 C      9   8   7     2.643896970542   117.74221241     0.09431090
 C     10   9   8     2.673055414361   119.08429255   359.91293659
 C      7   1   2     2.612170259025   131.22756324     0.28730024
 S     11  10   9     3.284761559539   111.54964327   179.98218694
 C     13  11  10     3.294789895311    90.10527383     0.00000000
 C     14  13  11     2.558453841775   114.14185572     0.00000000
 Br    14  13  11     3.544379455032   119.56347392   180.03664220
 C      8   7   1     2.789066662762   109.09286343     0.35147404
 O     17   8   7     2.301262729482   125.96501601   178.81207161
 C      1   2   3     2.737391748284   127.61552693   180.41223128
 C     19   1   2     2.597097346682   125.22615659   358.04048114
 C     20  19   1     2.644707061525   130.73443373   178.55516783
 S     21  20  19     3.302571185618   125.78810385   348.14777104
 C     22  21  20     3.231840091806    90.63099161   190.81526595
 C     23  22  21     2.581089773737   114.49757809   358.54801156
 C     24  23  22     2.820558220003   124.50354560   181.82370785
 C     21  20  19     2.668213124781   122.92531253   177.26431230
 C     26  21  20     2.707949421130   124.93859668   347.75541881
 C     27  26  21     2.556413965460   125.23426655   324.20500511
 C     28  27  26     2.695310808769   125.17993077   178.82530642
 C     29  28  27     2.554294580684   125.10539751   341.01859101
 C     30  29  28     2.677016614055   124.37285616   177.09612907
 N     31  30  29     2.463897278360   123.80299239   181.47165522
 C     32  31  30     2.522269094472   111.23458229   175.63687735
 C     33  32  31     2.597911977980   116.12095800   359.74494316
 S     34  33  32     3.222957733066   110.94319273     1.45372560
 C     34  33  32     2.793184614034   112.05064721   181.58825526
 C     36  34  33     2.964779176061   101.85025111    13.28496937
 C     33  32  31     2.845214735366   132.21941056   174.99257805
 C     38  33  32     2.900404999455   110.94185622    37.98302589
 C     39  38  33     2.879975519931   116.01899646   167.81255070
 C     38  33  32     2.939460343003   105.40156139   277.28375628
 C     41  38  33     2.885119045994   117.83246323   205.17397732
 N     37  36  34     2.756854056758   108.39533815   101.23912591
 C     43  37  36     2.694092003325   106.86236548    44.04983997
 S     36  34  33     3.456995649831   115.91214521   129.20225490
 C     43  37  36     2.660548813077   122.61976111   270.07940299
 O     46  43  37     2.593350502445   115.67505655    51.30364802
 C     47  46  43     2.578285302607   119.02303189   182.10113883
 C     48  47  46     2.575276182972   121.15381593   177.17179342
 F     49  48  47     2.518388378881   126.90914530     3.28650565
 S     49  48  47     3.262124113496   113.53604372   181.93958780
 C     46  43  37     2.516516248163   118.01953412   227.71635960
 S     52  46  43     3.318264621755   126.47950346   180.17253300
 C     48  47  46     2.691908307897   127.50193645   357.69662460
 C     54  48  47     2.600636045791   113.75248778   178.47602081
 C     55  54  48     2.698332906232   132.49395253   179.62830898
 C     56  55  54     2.545756878203   125.79778314   355.47425277
 C     57  56  55     2.722698674670   127.40438885   180.70029306
 C     58  57  56     2.635501461187   126.50803818   344.96554913
 O     59  58  57     2.568403718335   116.74675527     0.08668533
 C     60  59  58     2.673503786730   121.07834807   213.65390817
 C     59  58  57     2.718840091205   120.93730538   178.17169219
 O     62  59  58     2.576426899898   115.40396481   184.75494325
 C     63  62  59     2.659442365461   118.72057888   178.02560420
 C     62  59  58     2.593736158752   121.67764554     3.36572580
 C     65  62  59     2.648420959373   118.69510061   358.89429863
 C     58  57  56     2.685328322368   116.38637481   166.25571192
 N     67  58  57     2.513705395111   126.69934730     0.41336887
 S     68  67  58     3.044383589049   108.71747327   179.24455314
 N     66  65  62     2.516188076830   127.32456916   179.61647769
 H      9   8   7     2.038502351238   120.92223954   180.01091372
 H     12   7   1     2.035131473972   122.78878750   359.74744916
 H     15  14  13     2.030905719811   123.97501115   179.98650897
 H     20  19   1     2.046433374425   116.10733832   359.62926130
 H     23  22  21     2.028887475351   119.21190667   179.70409890
 H     25  24  23     2.053413007672   110.35351418     1.16621327
 H     25  24  23     2.059065484809   110.44210739   241.02036904
 H     25  24  23     2.057921615025   110.43319945   121.65215934
 H     27  26  21     2.043099597923   115.60492533   148.87353787
 H     28  27  26     2.045844877122   118.86623552   354.34518454
 H     29  28  27     2.044711916587   116.46042453   162.15391763
 H     30  29  28     2.041826076112   121.22602933   357.60453590
 H     36  34  33     2.066751788903   112.17888056   252.79824783
 H     37  36  34     2.065387943113   109.51910487   214.37226305
 H     39  38  33     2.063493183603   107.01255198   290.49069905
 H     39  38  33     2.058565959648   108.70110393    44.52409106
 H     40  39  38     2.052339212902   111.22545230    74.52083185
 H     40  39  38     2.053325946150   110.90722404   312.89360763
 H     40  39  38     2.055736192585   109.45610804   193.43081871
 H     41  38  33     2.066159320774   108.33655302   327.59065081
 H     41  38  33     2.061873309664   106.74002108    82.19682866
 H     42  41  38     2.055434779015   111.58696504    75.14370960
 H     42  41  38     2.049315005409   112.18499346   312.99825763
 H     42  41  38     2.056027988246   108.73507461   193.32809915
 H     44  43  37     2.053911024630   112.28548179   192.90172439
 H     44  43  37     2.063997432518   110.36415136    69.19103301
 H     52  46  43     2.029053019867   120.36958032     2.66087673
 H     56  55  54     2.038088545223   114.30479884   176.91837378
 H     57  56  55     2.041543107359   120.00379482   357.67804229
 H     61  60  59     2.061462670581   105.15637976   154.61745490
 H     61  60  59     2.062498960642   111.71850663    36.15217138
 H     61  60  59     2.062729044576   111.66097868   273.21695755
 H     64  63  62     2.067277272068   111.45892328   299.62523695
 H     64  63  62     2.057898300053   105.44253159   181.00124863
 H     64  63  62     2.067753392958   111.53641028    62.38677109
 H     65  62  59     2.033063085369   122.65238957   179.92686442

---------------------
BASIS SET INFORMATION
---------------------
There are 7 groups of distinct atoms

 Group   1 Type C   : 7s4p1d contracted to 3s2p1d pattern {511/31/1}
 Group   2 Type N   : 7s4p1d contracted to 3s2p1d pattern {511/31/1}
 Group   3 Type S   : 10s7p1d contracted to 4s3p1d pattern {5311/511/1}
 Group   4 Type Br  : 14s10p6d contracted to 5s4p3d pattern {63311/5311/411}
 Group   5 Type O   : 7s4p1d contracted to 3s2p1d pattern {511/31/1}
 Group   6 Type F   : 7s4p1d contracted to 3s2p1d pattern {511/31/1}
 Group   7 Type H   : 4s1p contracted to 2s1p pattern {31/1}

Atom   0C    basis set group =>   1
Atom   1C    basis set group =>   1
Atom   2C    basis set group =>   1
Atom   3N    basis set group =>   2
Atom   4C    basis set group =>   1
Atom   5N    basis set group =>   2
Atom   6C    basis set group =>   1
Atom   7C    basis set group =>   1
Atom   8C    basis set group =>   1
Atom   9C    basis set group =>   1
Atom  10C    basis set group =>   1
Atom  11C    basis set group =>   1
Atom  12S    basis set group =>   3
Atom  13C    basis set group =>   1
Atom  14C    basis set group =>   1
Atom  15Br   basis set group =>   4
Atom  16C    basis set group =>   1
Atom  17O    basis set group =>   5
Atom  18C    basis set group =>   1
Atom  19C    basis set group =>   1
Atom  20C    basis set group =>   1
Atom  21S    basis set group =>   3
Atom  22C    basis set group =>   1
Atom  23C    basis set group =>   1
Atom  24C    basis set group =>   1
Atom  25C    basis set group =>   1
Atom  26C    basis set group =>   1
Atom  27C    basis set group =>   1
Atom  28C    basis set group =>   1
Atom  29C    basis set group =>   1
Atom  30C    basis set group =>   1
Atom  31N    basis set group =>   2
Atom  32C    basis set group =>   1
Atom  33C    basis set group =>   1
Atom  34S    basis set group =>   3
Atom  35C    basis set group =>   1
Atom  36C    basis set group =>   1
Atom  37C    basis set group =>   1
Atom  38C    basis set group =>   1
Atom  39C    basis set group =>   1
Atom  40C    basis set group =>   1
Atom  41C    basis set group =>   1
Atom  42N    basis set group =>   2
Atom  43C    basis set group =>   1
Atom  44S    basis set group =>   3
Atom  45C    basis set group =>   1
Atom  46O    basis set group =>   5
Atom  47C    basis set group =>   1
Atom  48C    basis set group =>   1
Atom  49F    basis set group =>   6
Atom  50S    basis set group =>   3
Atom  51C    basis set group =>   1
Atom  52S    basis set group =>   3
Atom  53C    basis set group =>   1
Atom  54C    basis set group =>   1
Atom  55C    basis set group =>   1
Atom  56C    basis set group =>   1
Atom  57C    basis set group =>   1
Atom  58C    basis set group =>   1
Atom  59O    basis set group =>   5
Atom  60C    basis set group =>   1
Atom  61C    basis set group =>   1
Atom  62O    basis set group =>   5
Atom  63C    basis set group =>   1
Atom  64C    basis set group =>   1
Atom  65C    basis set group =>   1
Atom  66C    basis set group =>   1
Atom  67N    basis set group =>   2
Atom  68S    basis set group =>   3
Atom  69N    basis set group =>   2
Atom  70H    basis set group =>   7
Atom  71H    basis set group =>   7
Atom  72H    basis set group =>   7
Atom  73H    basis set group =>   7
Atom  74H    basis set group =>   7
Atom  75H    basis set group =>   7
Atom  76H    basis set group =>   7
Atom  77H    basis set group =>   7
Atom  78H    basis set group =>   7
Atom  79H    basis set group =>   7
Atom  80H    basis set group =>   7
Atom  81H    basis set group =>   7
Atom  82H    basis set group =>   7
Atom  83H    basis set group =>   7
Atom  84H    basis set group =>   7
Atom  85H    basis set group =>   7
Atom  86H    basis set group =>   7
Atom  87H    basis set group =>   7
Atom  88H    basis set group =>   7
Atom  89H    basis set group =>   7
Atom  90H    basis set group =>   7
Atom  91H    basis set group =>   7
Atom  92H    basis set group =>   7
Atom  93H    basis set group =>   7
Atom  94H    basis set group =>   7
Atom  95H    basis set group =>   7
Atom  96H    basis set group =>   7
Atom  97H    basis set group =>   7
Atom  98H    basis set group =>   7
Atom  99H    basis set group =>   7
Atom 100H    basis set group =>   7
Atom 101H    basis set group =>   7
Atom 102H    basis set group =>   7
Atom 103H    basis set group =>   7
Atom 104H    basis set group =>   7
Atom 105H    basis set group =>   7
---------------------------------
AUXILIARY/J BASIS SET INFORMATION
---------------------------------
There are 7 groups of distinct atoms

 Group   1 Type C   : 12s5p4d2f1g contracted to 6s4p3d1f1g pattern {711111/2111/211/2/1}
 Group   2 Type N   : 12s5p4d2f1g contracted to 6s4p3d1f1g pattern {711111/2111/211/2/1}
 Group   3 Type S   : 14s5p5d2f1g contracted to 8s4p3d1f1g pattern {71111111/2111/311/2/1}
 Group   4 Type Br  : 19s5p5d3f1g contracted to 8s4p3d2f1g pattern {121111111/2111/311/21/1}
 Group   5 Type O   : 12s5p4d2f1g contracted to 6s4p3d1f1g pattern {711111/2111/211/2/1}
 Group   6 Type F   : 12s5p4d2f1g contracted to 6s4p3d1f1g pattern {711111/2111/211/2/1}
 Group   7 Type H   : 5s2p1d contracted to 3s1p1d pattern {311/2/1}

Atom   0C    basis set group =>   1
Atom   1C    basis set group =>   1
Atom   2C    basis set group =>   1
Atom   3N    basis set group =>   2
Atom   4C    basis set group =>   1
Atom   5N    basis set group =>   2
Atom   6C    basis set group =>   1
Atom   7C    basis set group =>   1
Atom   8C    basis set group =>   1
Atom   9C    basis set group =>   1
Atom  10C    basis set group =>   1
Atom  11C    basis set group =>   1
Atom  12S    basis set group =>   3
Atom  13C    basis set group =>   1
Atom  14C    basis set group =>   1
Atom  15Br   basis set group =>   4
Atom  16C    basis set group =>   1
Atom  17O    basis set group =>   5
Atom  18C    basis set group =>   1
Atom  19C    basis set group =>   1
Atom  20C    basis set group =>   1
Atom  21S    basis set group =>   3
Atom  22C    basis set group =>   1
Atom  23C    basis set group =>   1
Atom  24C    basis set group =>   1
Atom  25C    basis set group =>   1
Atom  26C    basis set group =>   1
Atom  27C    basis set group =>   1
Atom  28C    basis set group =>   1
Atom  29C    basis set group =>   1
Atom  30C    basis set group =>   1
Atom  31N    basis set group =>   2
Atom  32C    basis set group =>   1
Atom  33C    basis set group =>   1
Atom  34S    basis set group =>   3
Atom  35C    basis set group =>   1
Atom  36C    basis set group =>   1
Atom  37C    basis set group =>   1
Atom  38C    basis set group =>   1
Atom  39C    basis set group =>   1
Atom  40C    basis set group =>   1
Atom  41C    basis set group =>   1
Atom  42N    basis set group =>   2
Atom  43C    basis set group =>   1
Atom  44S    basis set group =>   3
Atom  45C    basis set group =>   1
Atom  46O    basis set group =>   5
Atom  47C    basis set group =>   1
Atom  48C    basis set group =>   1
Atom  49F    basis set group =>   6
Atom  50S    basis set group =>   3
Atom  51C    basis set group =>   1
Atom  52S    basis set group =>   3
Atom  53C    basis set group =>   1
Atom  54C    basis set group =>   1
Atom  55C    basis set group =>   1
Atom  56C    basis set group =>   1
Atom  57C    basis set group =>   1
Atom  58C    basis set group =>   1
Atom  59O    basis set group =>   5
Atom  60C    basis set group =>   1
Atom  61C    basis set group =>   1
Atom  62O    basis set group =>   5
Atom  63C    basis set group =>   1
Atom  64C    basis set group =>   1
Atom  65C    basis set group =>   1
Atom  66C    basis set group =>   1
Atom  67N    basis set group =>   2
Atom  68S    basis set group =>   3
Atom  69N    basis set group =>   2
Atom  70H    basis set group =>   7
Atom  71H    basis set group =>   7
Atom  72H    basis set group =>   7
Atom  73H    basis set group =>   7
Atom  74H    basis set group =>   7
Atom  75H    basis set group =>   7
Atom  76H    basis set group =>   7
Atom  77H    basis set group =>   7
Atom  78H    basis set group =>   7
Atom  79H    basis set group =>   7
Atom  80H    basis set group =>   7
Atom  81H    basis set group =>   7
Atom  82H    basis set group =>   7
Atom  83H    basis set group =>   7
Atom  84H    basis set group =>   7
Atom  85H    basis set group =>   7
Atom  86H    basis set group =>   7
Atom  87H    basis set group =>   7
Atom  88H    basis set group =>   7
Atom  89H    basis set group =>   7
Atom  90H    basis set group =>   7
Atom  91H    basis set group =>   7
Atom  92H    basis set group =>   7
Atom  93H    basis set group =>   7
Atom  94H    basis set group =>   7
Atom  95H    basis set group =>   7
Atom  96H    basis set group =>   7
Atom  97H    basis set group =>   7
Atom  98H    basis set group =>   7
Atom  99H    basis set group =>   7
Atom 100H    basis set group =>   7
Atom 101H    basis set group =>   7
Atom 102H    basis set group =>   7
Atom 103H    basis set group =>   7
Atom 104H    basis set group =>   7
Atom 105H    basis set group =>   7


           ************************************************************
           *        Program running with 6 parallel MPI-processes     *
           *              working on a common directory               *
           ************************************************************
------------------------------------------------------------------------------
                           ORCA GTO INTEGRAL CALCULATION
                           -- RI-GTO INTEGRALS CHOSEN --
------------------------------------------------------------------------------

                         BASIS SET STATISTICS AND STARTUP INFO

Gaussian basis set:
 # of primitive gaussian shells          ... 1080
 # of primitive gaussian functions       ... 2066
 # of contracted shells                  ...  548
 # of contracted basis functions         ... 1206
 Highest angular momentum                ...    2
 Maximum contraction depth               ...    6
Auxiliary gaussian basis set:
 # of primitive gaussian shells          ... 1998
 # of primitive gaussian functions       ... 5544
 # of contracted shells                  ... 1247
 # of contracted aux-basis functions     ... 3849
 Highest angular momentum                ...    4
 Maximum contraction depth               ...   12
Ratio of auxiliary to basis functions    ...  3.19
Integral package used                  ... LIBINT
 One Electron integrals                  ... done
 Ordering auxiliary basis shells         ... done
 Integral threshhold             Thresh  ...  2.500e-11
 Primitive cut-off               TCut    ...  2.500e-12
 Pre-screening matrix                    ... done
 Shell pair data                         ... 
 Ordering of the shell pairs             ... done (   0.010 sec) 50099 of 150426 pairs
 Determination of significant pairs      ... done (   0.000 sec)
 Creation of shell pair data             ... done (   0.007 sec)
 Storage of shell pair data              ... done (   0.016 sec)
 Shell pair data done in (   0.033 sec)
 Computing two index integrals           ... done
 Cholesky decomposition of the V-matrix  ... done


Timings:
 Total evaluation time                   ...   2.435 sec (  0.041 min)
 One electron matrix time                ...   0.638 sec (  0.011 min) = 26.2%
 Schwartz matrix evaluation time         ...   0.767 sec (  0.013 min) = 31.5%
 Two index repulsion integral time       ...   0.355 sec (  0.006 min) = 14.6%
 Cholesky decomposition of V             ...   0.624 sec (  0.010 min) = 25.6%
 Three index repulsion integral time     ...   0.000 sec (  0.000 min) =  0.0%



           ************************************************************
           *        Program running with 6 parallel MPI-processes     *
           *              working on a common directory               *
           ************************************************************
-------------------------------------------------------------------------------
                                 ORCA SCF
-------------------------------------------------------------------------------

------------
SCF SETTINGS
------------
Hamiltonian:
 Density Functional     Method          .... DFT(GTOs)
 Exchange Functional    Exchange        .... WB88
 Correlation Functional Correlation     .... LYP
 LDA part of GGA corr.  LDAOpt          .... VWN-5
 Gradients option       PostSCFGGA      .... off
 Hybrid DFT is turned on
   Fraction HF Exchange ScalHFX         ....  0.190000
   Scaling of DF-GGA-X  ScalDFX         ....  0.350000
   Scaling of DF-GGA-C  ScalDFC         ....  0.810000
   Scaling of DF-LDA-C  ScalLDAC        ....  1.000000
   Perturbative correction              ....  0.000000
   Density functional embedding theory  .... OFF
 Long-range corrected/Screened/Range-Separated Hybrid DFT is turned on
   Amount of maximum screened exact exchange              ....  0.460000
   Range separation parameter mu (erf(mu*r12)/r12)        ....  0.330000
 RI-approximation to the Coulomb term is turned on
   Number of auxiliary basis functions  .... 3849
   RIJ-COSX (HFX calculated with COS-X)).... on


General Settings:
 Integral files         IntName         .... xtbopt
 Hartree-Fock type      HFTyp           .... RHF
 Total Charge           Charge          ....    0
 Multiplicity           Mult            ....    1
 Number of Electrons    NEL             ....  572
 Basis Dimension        Dim             .... 1206
 Nuclear Repulsion      ENuc            ....  12511.3160440857 Eh

Convergence Acceleration:
 DIIS                   CNVDIIS         .... on
   Start iteration      DIISMaxIt       ....    12
   Startup error        DIISStart       ....  0.200000
   # of expansion vecs  DIISMaxEq       ....     5
   Bias factor          DIISBfac        ....   1.050
   Max. coefficient     DIISMaxC        ....  10.000
 Newton-Raphson         CNVNR           .... off
 SOSCF                  CNVSOSCF        .... on
   Start iteration      SOSCFMaxIt      ....   150
   Startup grad/error   SOSCFStart      ....  0.003300
 Level Shifting         CNVShift        .... on
   Level shift para.    LevelShift      ....    0.2500
   Turn off err/grad.   ShiftErr        ....    0.0010
 Zerner damping         CNVZerner       .... off
 Static damping         CNVDamp         .... on
   Fraction old density DampFac         ....    0.7000
   Max. Damping (<1)    DampMax         ....    0.9800
   Min. Damping (>=0)   DampMin         ....    0.0000
   Turn off err/grad.   DampErr         ....    0.1000
 Fernandez-Rico         CNVRico         .... off

SCF Procedure:
 Maximum # iterations   MaxIter         ....   125
 SCF integral mode      SCFMode         .... Direct
   Integral package                     .... LIBINT
 Reset frequency        DirectResetFreq ....    20
 Integral Threshold     Thresh          ....  2.500e-11 Eh
 Primitive CutOff       TCut            ....  2.500e-12 Eh

Convergence Tolerance:
 Convergence Check Mode ConvCheckMode   .... Total+1el-Energy
 Convergence forced     ConvForced      .... 1
 Energy Change          TolE            ....  1.000e-08 Eh
 1-El. energy change                    ....  1.000e-05 Eh
 Orbital Gradient       TolG            ....  1.000e-05
 Orbital Rotation angle TolX            ....  1.000e-05
 DIIS Error             TolErr          ....  5.000e-07


Diagonalization of the overlap matrix:
Smallest eigenvalue                        ... 1.521e-04
Time for diagonalization                   ...    0.225 sec
Threshold for overlap eigenvalues          ... 1.000e-08
Number of eigenvalues below threshold      ... 0
Time for construction of square roots      ...    0.163 sec
Total time needed                          ...    0.392 sec

-------------------
DFT GRID GENERATION
-------------------

General Integration Accuracy     IntAcc      ...  4.670
Radial Grid Type                 RadialGrid  ... Gauss-Chebyshev
Angular Grid (max. acc.)         AngularGrid ... Lebedev-302
Angular grid pruning method      GridPruning ... 3 (G Style)
Weight generation scheme         WeightScheme... Becke
Basis function cutoff            BFCut       ...    1.0000e-11
Integration weight cutoff        WCut        ...    1.0000e-14
Grids for H and He will be reduced by one unit

# of grid points (after initial pruning)     ... 564926 (   0.0 sec)
# of grid points (after weights+screening)   ... 480345 (   6.5 sec)
nearest neighbour list constructed           ...    0.0 sec
Grid point re-assignment to atoms done       ...    0.1 sec
Grid point division into batches done        ...    1.7 sec
Reduced shell lists constructed in    2.7 sec

Total number of grid points                  ...   480345
Total number of batches                      ...     7557
Average number of points per batch           ...       63
Average number of grid points per atom       ...     4532
Average number of shells per batch           ...    82.27 (15.01%)
Average number of basis functions per batch  ...   176.90 (14.67%)
Average number of large shells per batch     ...    51.33 (62.39%)
Average number of large basis fcns per batch ...   112.52 (63.60%)
Maximum spatial batch extension              ...  20.82, 21.39, 20.17 au
Average spatial batch extension              ...   0.40,  0.37,  0.36 au

Time for grid setup =    9.595 sec

------------------------------
INITIAL GUESS: MODEL POTENTIAL
------------------------------
Loading Hartree-Fock densities                     ... done
Calculating cut-offs                               ... done
Setting up the integral package                    ... done
Initializing the effective Hamiltonian             ... done
Starting the Coulomb interaction                   ... done (   1.5 sec)
Reading the grid                                   ... done
Mapping shells                                     ... done
Starting the XC term evaluation                    ... done (   1.5 sec)
  promolecular density results
     # of electrons  =    571.983288438
     EX              =   -617.308628967
     EC              =    -20.601853543
     EX+EC           =   -637.910482510
Transforming the Hamiltonian                       ... done (   0.1 sec)
Diagonalizing the Hamiltonian                      ... done (   0.2 sec)
Back transforming the eigenvectors                 ... done (   0.1 sec)
Now organizing SCF variables                       ... done
                      ------------------
                      INITIAL GUESS DONE (  13.1 sec)
                      ------------------
--------------------
COSX GRID GENERATION
--------------------

General Integration Accuracy     IntAcc      ...  3.340
Radial Grid Type                 RadialGrid  ... Gauss-Chebyshev
Angular Grid (max. acc.)         AngularGrid ... Lebedev-50
Angular grid pruning method      GridPruning ... 3 (G Style)
Weight generation scheme         WeightScheme... Becke
Basis function cutoff            BFCut       ...    1.0000e-11
Integration weight cutoff        WCut        ...    1.0000e-14
Grids for H and He will be reduced by one unit

# of grid points (after initial pruning)     ...  53380 (   0.0 sec)
# of grid points (after weights+screening)   ...  47442 (   0.6 sec)
nearest neighbour list constructed           ...    0.0 sec
Grid point re-assignment to atoms done       ...    0.0 sec
Grid point division into batches done        ...    0.0 sec
Reduced shell lists constructed in    0.2 sec

Total number of grid points                  ...    47442
Total number of batches                      ...      794
Average number of points per batch           ...       59
Average number of grid points per atom       ...      448
Average number of shells per batch           ...   100.30 (18.30%)
Average number of basis functions per batch  ...   217.58 (18.04%)
Average number of large shells per batch     ...    61.93 (61.74%)
Average number of large basis fcns per batch ...   137.64 (63.26%)
Maximum spatial batch extension              ...  27.85, 21.51, 17.24 au
Average spatial batch extension              ...   1.00,  0.79,  0.68 au

Overlap Fitting                  UseSFitting ... on
Constructing numerical overlap ... done (      0.1 sec)
Inverting numerical overlap    ... done (      0.1 sec)
Obtaining analytic overlap     ... done (      0.0 sec)
Final contraction and storage  ... done (      0.1 sec)


General Integration Accuracy     IntAcc      ...  3.670
Radial Grid Type                 RadialGrid  ... Gauss-Chebyshev
Angular Grid (max. acc.)         AngularGrid ... Lebedev-50
Angular grid pruning method      GridPruning ... 3 (G Style)
Weight generation scheme         WeightScheme... Becke
Basis function cutoff            BFCut       ...    1.0000e-11
Integration weight cutoff        WCut        ...    1.0000e-14
Grids for H and He will be reduced by one unit

# of grid points (after initial pruning)     ...  66860 (   0.0 sec)
# of grid points (after weights+screening)   ...  59168 (   0.7 sec)
nearest neighbour list constructed           ...    0.0 sec
Grid point re-assignment to atoms done       ...    0.0 sec
Grid point division into batches done        ...    0.0 sec
Reduced shell lists constructed in    0.2 sec

Total number of grid points                  ...    59168
Total number of batches                      ...      975
Average number of points per batch           ...       60
Average number of grid points per atom       ...      558
Average number of shells per batch           ...    98.45 (17.96%)
Average number of basis functions per batch  ...   213.36 (17.69%)
Average number of large shells per batch     ...    60.76 (61.72%)
Average number of large basis fcns per batch ...   135.13 (63.34%)
Maximum spatial batch extension              ...  30.31, 19.77, 18.58 au
Average spatial batch extension              ...   0.89,  0.71,  0.63 au

Overlap Fitting                  UseSFitting ... on
Constructing numerical overlap ... done (      0.1 sec)
Inverting numerical overlap    ... done (      0.1 sec)
Obtaining analytic overlap     ... done (      0.0 sec)
Final contraction and storage  ... done (      0.1 sec)


General Integration Accuracy     IntAcc      ...  4.010
Radial Grid Type                 RadialGrid  ... Gauss-Chebyshev
Angular Grid (max. acc.)         AngularGrid ... Lebedev-110
Angular grid pruning method      GridPruning ... 3 (G Style)
Weight generation scheme         WeightScheme... Becke
Basis function cutoff            BFCut       ...    1.0000e-11
Integration weight cutoff        WCut        ...    1.0000e-14
Grids for H and He will be reduced by one unit

# of grid points (after initial pruning)     ... 128864 (   0.0 sec)
# of grid points (after weights+screening)   ... 113096 (   1.5 sec)
nearest neighbour list constructed           ...    0.0 sec
Grid point re-assignment to atoms done       ...    0.0 sec
Grid point division into batches done        ...    0.1 sec
Reduced shell lists constructed in    0.4 sec

Total number of grid points                  ...   113096
Total number of batches                      ...     1821
Average number of points per batch           ...       62
Average number of grid points per atom       ...     1067
Average number of shells per batch           ...    93.82 (17.12%)
Average number of basis functions per batch  ...   202.81 (16.82%)
Average number of large shells per batch     ...    58.64 (62.50%)
Average number of large basis fcns per batch ...   129.56 (63.88%)
Maximum spatial batch extension              ...  20.20, 15.97, 18.59 au
Average spatial batch extension              ...   0.71,  0.59,  0.55 au

Overlap Fitting                  UseSFitting ... on
Constructing numerical overlap ... done (      0.2 sec)
Inverting numerical overlap    ... done (      0.1 sec)
Obtaining analytic overlap     ... done (      0.0 sec)
Final contraction and storage  ... done (      0.1 sec)

Time for X-Grid setup             =    4.660 sec
--------------
SCF ITERATIONS
--------------
ITER       Energy         Delta-E        Max-DP      RMS-DP      [F,P]     Damp
               ***  Starting incremental Fock matrix formation  ***
  0  -8049.9042846461   0.000000000000 0.07897818  0.00088468  0.2355040 0.7000
  1  -8050.5032791230  -0.598994476908 0.04343054  0.00062740  0.0982855 0.7000
                               ***Turning on DIIS***
  2  -8050.7638125115  -0.260533388511 0.09846465  0.00113880  0.0418930 0.0000
  3  -8051.1710487817  -0.407236270232 0.07142702  0.00048990  0.0703579 0.0000
  4  -8051.2607869215  -0.089738139788 0.01884922  0.00014532  0.0228957 0.0000
  5  -8051.2655476487  -0.004760727177 0.00911303  0.00006132  0.0149678 0.0000
                      *** Initiating the SOSCF procedure ***
                           *** Shutting down DIIS ***
                      *** Re-Reading the Fockian *** 
                      *** Removing any level shift *** 
ITER      Energy       Delta-E        Grad      Rot      Max-DP    RMS-DP
  6  -8051.26677566  -0.0012280103  0.001759  0.001759  0.003581  0.000033
               *** Restarting incremental Fock matrix formation ***
  7  -8051.26709828  -0.0003226227  0.001107  0.007091  0.002177  0.000031
  8  -8051.26728854  -0.0001902633  0.000737  0.007275  0.002268  0.000035
  9  -8051.26730481  -0.0000162634  0.001006  0.002910  0.001555  0.000015
 10  -8051.26735194  -0.0000471279  0.000231  0.000894  0.000602  0.000006
 11  -8051.26735008   0.0000018606  0.000184  0.000665  0.000397  0.000004
 12  -8051.26735511  -0.0000050305  0.000020  0.000087  0.000110  0.000001
 13  -8051.26735504   0.0000000697  0.000021  0.000046  0.000067  0.000001
 14  -8051.26735520  -0.0000001618  0.000004  0.000019  0.000019  0.000000
 15  -8051.26735518   0.0000000194  0.000005  0.000012  0.000012  0.000000
                  ***Gradient check signals convergence***
              ***Rediagonalizing the Fockian in SOSCF/NRSCF***

               *****************************************************
               *                     SUCCESS                       *
               *           SCF CONVERGED AFTER  16 CYCLES          *
               *****************************************************

Setting up the final grid:

General Integration Accuracy     IntAcc      ...  5.010
Radial Grid Type                 RadialGrid  ... Gauss-Chebyshev
Angular Grid (max. acc.)         AngularGrid ... Lebedev-434
Angular grid pruning method      GridPruning ... 3 (G Style)
Weight generation scheme         WeightScheme... Becke
Basis function cutoff            BFCut       ...    1.0000e-11
Integration weight cutoff        WCut        ...    1.0000e-14
Grids for H and He will be reduced by one unit

# of grid points (after initial pruning)     ... 1002390 (   0.1 sec)
# of grid points (after weights+screening)   ... 849293 (  11.2 sec)
nearest neighbour list constructed           ...    0.0 sec
Grid point re-assignment to atoms done       ...    0.1 sec
Grid point division into batches done        ...    5.4 sec
Reduced shell lists constructed in    7.1 sec

Total number of grid points                  ...   849293
Total number of batches                      ...    13327
Average number of points per batch           ...       63
Average number of grid points per atom       ...     8012
Average number of shells per batch           ...    78.50 (14.32%)
Average number of basis functions per batch  ...   168.65 (13.98%)
Average number of large shells per batch     ...    49.08 (62.52%)
Average number of large basis fcns per batch ...   107.58 (63.79%)
Maximum spatial batch extension              ...  21.74, 18.96, 19.46 au
Average spatial batch extension              ...   0.32,  0.30,  0.29 au

Final grid set up in   18.9 sec
Final integration                            ... done (   3.4 sec)
Change in XC energy                          ...    -0.000152719
Integrated number of electrons               ...   571.999941591
Previous integrated no of electrons          ...   572.000480011
Old exchange energy                            =   -163.806184981 Eh
New exchange energy                            =   -163.803857377 Eh
Exchange energy change after final integration =      0.002327604 Eh
Total energy after final integration           =  -8051.265180323 Eh
Final COS-X integration done in                =    65.655 sec

----------------
TOTAL SCF ENERGY
----------------

Total Energy       :        -8051.26518032 Eh         -219086.06368 eV

Components:
Nuclear Repulsion  :        12511.31604409 Eh          340450.21771 eV
Electronic Energy  :       -20562.58122441 Eh         -559536.28139 eV
One Electron Energy:       -36033.14167058 Eh         -980511.63310 eV
Two Electron Energy:        15470.56044617 Eh          420975.35171 eV

Virial components:
Potential Energy   :       -16068.10795909 Eh         -437235.44619 eV
Kinetic Energy     :         8016.84277876 Eh          218149.38251 eV
Virial Ratio       :            2.00429376


DFT components:
N(Alpha)           :      285.999970795746 electrons
N(Beta)            :      285.999970795746 electrons
N(Total)           :      571.999941591493 electrons
E(XC)              :     -482.889186689270 Eh       
DFET-embed. en.    :        0.000000000000 Eh       

---------------
SCF CONVERGENCE
---------------

  Last Energy change         ...   -2.9631e-08  Tolerance :   1.0000e-08
  Last MAX-Density change    ...    7.5495e-15  Tolerance :   1.0000e-07
  Last RMS-Density change    ...    3.9891e-17  Tolerance :   5.0000e-09
  Last Orbital Gradient      ...    9.0258e-07  Tolerance :   1.0000e-05
  Last Orbital Rotation      ...    7.0075e-06  Tolerance :   1.0000e-05

             **** THE GBW FILE WAS UPDATED (xtbopt.gbw) ****
             **** DENSITY FILE WAS UPDATED (xtbopt.scfp) ****
             **** ENERGY FILE WAS UPDATED (xtbopt.en.tmp) ****
             **** THE GBW FILE WAS UPDATED (xtbopt.gbw) ****
             **** DENSITY FILE WAS UPDATED (xtbopt.scfp) ****
----------------
ORBITAL ENERGIES
----------------

  NO   OCC          E(Eh)            E(eV) 
   0   2.0000    -482.881187    -13139.8651 
   1   2.0000     -89.003793     -2421.9163 
   2   2.0000     -88.969960     -2420.9957 
   3   2.0000     -88.957085     -2420.6453 
   4   2.0000     -88.952403     -2420.5179 
   5   2.0000     -88.945908     -2420.3412 
   6   2.0000     -88.941379     -2420.2180 
   7   2.0000     -88.895602     -2418.9723 
   8   2.0000     -62.558922     -1702.3148 
   9   2.0000     -56.392864     -1534.5278 
  10   2.0000     -56.390164     -1534.4544 
  11   2.0000     -56.390123     -1534.4533 
  12   2.0000     -24.793577      -674.6675 
  13   2.0000     -19.269660      -524.3541 
  14   2.0000     -19.260378      -524.1015 
  15   2.0000     -19.248087      -523.7671 
  16   2.0000     -19.210338      -522.7399 
  17   2.0000     -14.423339      -392.4790 
  18   2.0000     -14.421838      -392.4382 
  19   2.0000     -14.420159      -392.3925 
  20   2.0000     -14.408631      -392.0788 
  21   2.0000     -14.405623      -391.9969 
  22   2.0000     -14.393453      -391.6658 
  23   2.0000     -10.368470      -282.1404 
  24   2.0000     -10.362640      -281.9818 
  25   2.0000     -10.359267      -281.8900 
  26   2.0000     -10.353513      -281.7334 
  27   2.0000     -10.349909      -281.6353 
  28   2.0000     -10.343412      -281.4585 
  29   2.0000     -10.340718      -281.3853 
  30   2.0000     -10.333696      -281.1942 
  31   2.0000     -10.333148      -281.1792 
  32   2.0000     -10.331162      -281.1252 
  33   2.0000     -10.319131      -280.7978 
  34   2.0000     -10.318830      -280.7896 
  35   2.0000     -10.316921      -280.7377 
  36   2.0000     -10.316656      -280.7305 
  37   2.0000     -10.311910      -280.6013 
  38   2.0000     -10.311882      -280.6006 
  39   2.0000     -10.309514      -280.5361 
  40   2.0000     -10.309297      -280.5302 
  41   2.0000     -10.308681      -280.5135 
  42   2.0000     -10.307517      -280.4818 
  43   2.0000     -10.307409      -280.4788 
  44   2.0000     -10.304018      -280.3866 
  45   2.0000     -10.301791      -280.3260 
  46   2.0000     -10.301319      -280.3131 
  47   2.0000     -10.300575      -280.2929 
  48   2.0000     -10.298848      -280.2459 
  49   2.0000     -10.298456      -280.2352 
  50   2.0000     -10.294403      -280.1249 
  51   2.0000     -10.293032      -280.0876 
  52   2.0000     -10.291900      -280.0568 
  53   2.0000     -10.291607      -280.0489 
  54   2.0000     -10.286773      -279.9173 
  55   2.0000     -10.284899      -279.8663 
  56   2.0000     -10.284714      -279.8613 
  57   2.0000     -10.282552      -279.8025 
  58   2.0000     -10.281870      -279.7839 
  59   2.0000     -10.279383      -279.7162 
  60   2.0000     -10.278973      -279.7051 
  61   2.0000     -10.277102      -279.6542 
  62   2.0000     -10.276431      -279.6359 
  63   2.0000     -10.276409      -279.6353 
  64   2.0000     -10.274545      -279.5846 
  65   2.0000     -10.273917      -279.5675 
  66   2.0000     -10.271752      -279.5086 
  67   2.0000     -10.270632      -279.4781 
  68   2.0000     -10.269574      -279.4493 
  69   2.0000     -10.265138      -279.3286 
  70   2.0000     -10.256599      -279.0962 
  71   2.0000     -10.250280      -278.9243 
  72   2.0000     -10.250263      -278.9238 
  73   2.0000     -10.243702      -278.7453 
  74   2.0000      -8.788367      -239.1436 
  75   2.0000      -8.095958      -220.3022 
  76   2.0000      -8.065959      -219.4859 
  77   2.0000      -8.053456      -219.1457 
  78   2.0000      -8.046573      -218.9584 
  79   2.0000      -8.041188      -218.8119 
  80   2.0000      -8.035961      -218.6696 
  81   2.0000      -7.992330      -217.4824 
  82   2.0000      -6.624652      -180.2660 
  83   2.0000      -6.610092      -179.8698 
  84   2.0000      -6.609931      -179.8654 
  85   2.0000      -6.067270      -165.0988 
  86   2.0000      -6.059621      -164.8907 
  87   2.0000      -6.057995      -164.8464 
  88   2.0000      -6.035663      -164.2387 
  89   2.0000      -6.031372      -164.1220 
  90   2.0000      -6.027174      -164.0078 
  91   2.0000      -6.022832      -163.8896 
  92   2.0000      -6.019208      -163.7910 
  93   2.0000      -6.015976      -163.7030 
  94   2.0000      -6.014683      -163.6678 
  95   2.0000      -6.011271      -163.5750 
  96   2.0000      -6.010185      -163.5454 
  97   2.0000      -6.008924      -163.5111 
  98   2.0000      -6.006404      -163.4425 
  99   2.0000      -6.006395      -163.4423 
 100   2.0000      -6.003572      -163.3655 
 101   2.0000      -6.002057      -163.3243 
 102   2.0000      -5.995949      -163.1581 
 103   2.0000      -5.962876      -162.2581 
 104   2.0000      -5.959163      -162.1571 
 105   2.0000      -5.951173      -161.9397 
 106   2.0000      -2.740509       -74.5731 
 107   2.0000      -2.736464       -74.4630 
 108   2.0000      -2.736292       -74.4583 
 109   2.0000      -2.724745       -74.1441 
 110   2.0000      -2.724733       -74.1437 
 111   2.0000      -1.307881       -35.5892 
 112   2.0000      -1.181864       -32.1602 
 113   2.0000      -1.170209       -31.8430 
 114   2.0000      -1.143745       -31.1229 
 115   2.0000      -1.125688       -30.6315 
 116   2.0000      -1.106231       -30.1021 
 117   2.0000      -1.054519       -28.6949 
 118   2.0000      -1.043448       -28.3937 
 119   2.0000      -1.016016       -27.6472 
 120   2.0000      -1.006437       -27.3865 
 121   2.0000      -0.988536       -26.8994 
 122   2.0000      -0.988216       -26.8907 
 123   2.0000      -0.986225       -26.8366 
 124   2.0000      -0.981161       -26.6987 
 125   2.0000      -0.962646       -26.1949 
 126   2.0000      -0.947196       -25.7745 
 127   2.0000      -0.939187       -25.5566 
 128   2.0000      -0.935814       -25.4648 
 129   2.0000      -0.915615       -24.9152 
 130   2.0000      -0.910922       -24.7874 
 131   2.0000      -0.901882       -24.5415 
 132   2.0000      -0.896738       -24.4015 
 133   2.0000      -0.895189       -24.3593 
 134   2.0000      -0.887193       -24.1417 
 135   2.0000      -0.879305       -23.9271 
 136   2.0000      -0.872827       -23.7508 
 137   2.0000      -0.868137       -23.6232 
 138   2.0000      -0.867028       -23.5930 
 139   2.0000      -0.855686       -23.2844 
 140   2.0000      -0.848379       -23.0856 
 141   2.0000      -0.842497       -22.9255 
 142   2.0000      -0.833874       -22.6909 
 143   2.0000      -0.828409       -22.5422 
 144   2.0000      -0.826485       -22.4898 
 145   2.0000      -0.822972       -22.3942 
 146   2.0000      -0.811392       -22.0791 
 147   2.0000      -0.806796       -21.9540 
 148   2.0000      -0.797507       -21.7013 
 149   2.0000      -0.784382       -21.3441 
 150   2.0000      -0.778905       -21.1951 
 151   2.0000      -0.775549       -21.1038 
 152   2.0000      -0.773850       -21.0575 
 153   2.0000      -0.754132       -20.5210 
 154   2.0000      -0.749635       -20.3986 
 155   2.0000      -0.744527       -20.2596 
 156   2.0000      -0.738346       -20.0914 
 157   2.0000      -0.725780       -19.7495 
 158   2.0000      -0.713650       -19.4194 
 159   2.0000      -0.704993       -19.1838 
 160   2.0000      -0.697937       -18.9918 
 161   2.0000      -0.690141       -18.7797 
 162   2.0000      -0.688137       -18.7252 
 163   2.0000      -0.683660       -18.6033 
 164   2.0000      -0.682083       -18.5604 
 165   2.0000      -0.681114       -18.5341 
 166   2.0000      -0.675036       -18.3687 
 167   2.0000      -0.662486       -18.0272 
 168   2.0000      -0.657731       -17.8978 
 169   2.0000      -0.652705       -17.7610 
 170   2.0000      -0.643767       -17.5178 
 171   2.0000      -0.638866       -17.3844 
 172   2.0000      -0.636466       -17.3191 
 173   2.0000      -0.633560       -17.2400 
 174   2.0000      -0.621945       -16.9240 
 175   2.0000      -0.616465       -16.7749 
 176   2.0000      -0.615256       -16.7420 
 177   2.0000      -0.613777       -16.7017 
 178   2.0000      -0.612122       -16.6567 
 179   2.0000      -0.605686       -16.4816 
 180   2.0000      -0.605403       -16.4738 
 181   2.0000      -0.591151       -16.0860 
 182   2.0000      -0.588049       -16.0016 
 183   2.0000      -0.580496       -15.7961 
 184   2.0000      -0.579103       -15.7582 
 185   2.0000      -0.576795       -15.6954 
 186   2.0000      -0.572920       -15.5899 
 187   2.0000      -0.571506       -15.5515 
 188   2.0000      -0.566317       -15.4103 
 189   2.0000      -0.561001       -15.2656 
 190   2.0000      -0.557283       -15.1644 
 191   2.0000      -0.553200       -15.0533 
 192   2.0000      -0.552557       -15.0358 
 193   2.0000      -0.546282       -14.8651 
 194   2.0000      -0.544636       -14.8203 
 195   2.0000      -0.537942       -14.6381 
 196   2.0000      -0.534545       -14.5457 
 197   2.0000      -0.534051       -14.5323 
 198   2.0000      -0.532562       -14.4917 
 199   2.0000      -0.530886       -14.4462 
 200   2.0000      -0.529752       -14.4153 
 201   2.0000      -0.527772       -14.3614 
 202   2.0000      -0.523395       -14.2423 
 203   2.0000      -0.521381       -14.1875 
 204   2.0000      -0.520351       -14.1595 
 205   2.0000      -0.516919       -14.0661 
 206   2.0000      -0.513074       -13.9615 
 207   2.0000      -0.510014       -13.8782 
 208   2.0000      -0.509679       -13.8691 
 209   2.0000      -0.508448       -13.8356 
 210   2.0000      -0.505273       -13.7492 
 211   2.0000      -0.502593       -13.6763 
 212   2.0000      -0.500736       -13.6257 
 213   2.0000      -0.494336       -13.4516 
 214   2.0000      -0.493744       -13.4355 
 215   2.0000      -0.489818       -13.3286 
 216   2.0000      -0.488274       -13.2866 
 217   2.0000      -0.487432       -13.2637 
[...]
  99      -1.322      12.0
 100      -0.857      16.4
 101      -0.118      12.2
 102      -0.083      14.3
 103       0.676      15.1
 104       1.083      10.4
 105       1.134       2.9
 106       1.207      26.2
 107       1.303      14.2

           eV        nm       excitation i->a                     eV 
   0      2.73     454.3    95 ->  97      gap,J,K:    4.262     1.694     0.081
   1      2.75     450.9    96 ->  97      gap,J,K:    4.214     1.583     0.060
   2      3.14     394.9    94 ->  97      gap,J,K:    4.497     1.390     0.017
   3      3.29     376.9    93 ->  97      gap,J,K:    5.164     2.625     0.375
   4      3.52     352.3    96 ->  99      gap,J,K:    5.223     1.953     0.125
   5      3.66     338.4    95 ->  99      gap,J,K:    5.271     1.981     0.187
   6      3.69     335.9    94 ->  99      gap,J,K:    5.506     2.177     0.181
   7      3.70     335.0    91 ->  97      gap,J,K:    5.545     2.234     0.195
   8      3.72     333.2    95 ->  98      gap,J,K:    5.117     1.513     0.059
   9      3.74     331.3    96 ->  98      gap,J,K:    5.068     1.413     0.044
  10      3.85     322.2    85 ->  97      gap,J,K:    6.553     2.716     0.006
  11      3.87     320.1    89 ->  97      gap,J,K:    5.776     2.335     0.216
  12      3.98     311.8    92 ->  97      gap,J,K:    5.277     1.302     0.001
  13      4.00     310.1    93 ->  98      gap,J,K:    6.018     2.532     0.255
  14      4.11     301.5    96 -> 100      gap,J,K:    5.688     1.925     0.175
  15      4.12     300.6    87 ->  97      gap,J,K:    6.106     2.280     0.149
  16      4.14     299.7    94 ->  98      gap,J,K:    5.352     1.239     0.012
  17      4.18     296.4    95 -> 100      gap,J,K:    5.737     2.004     0.225
  18      4.25     292.0    85 ->  98      gap,J,K:    7.408     3.169     0.003
  19      4.30     288.2    94 -> 100      gap,J,K:    5.972     1.743     0.037
  20      4.34     285.5    91 ->  98      gap,J,K:    6.400     2.525     0.234
  21      4.55     272.5    96 -> 101      gap,J,K:    6.427     2.235     0.179
  22      4.60     269.5    93 -> 100      gap,J,K:    6.638     2.342     0.152
  23      4.62     268.5    90 ->  97      gap,J,K:    5.559     0.941     0.000
  24      4.66     266.0    94 -> 101      gap,J,K:    6.711     2.486     0.219

average / max PT2 energy lowering (eV):       0.037       0.115

CSF included by PT:                   232 
total number of CSF included:         266 
 
sTD-DFT procedure...
setting up A+B and A-B matrices...  done
estimated time (min):    0.001
calculating (A-B)^0.5 ... done
calculating (A+B)*(A-B)^0.5 ... done
calculating (A-B)^0.5 *(A+B)*(A-B)^0.5 ... done
diagonalizing ...using LAPACKE_ssyevr ...done

   37 roots found, lowest/highest eigenvalue :     2.256     4.928

excitation energies, transition moments and amplitudes

molecular weight: 1120.205
state   eV        nm        fL         fV        Rl        RV
   0   2.256     549.6   0.580975   0.647818   2.249129  -7.930981     0.49 (  95->  97)    0.41 (  96->  97)    0.04 (  94->  97)
   1   2.930     423.1   0.012572   0.014256   2.813887   3.838102     0.51 (  96->  97)    0.29 (  95->  97)    0.10 (  94->  97)
   2   3.039     407.9   0.127845   0.140222  -43.046559  -34.481783     0.38 (  94->  97)    0.36 (  93->  97)    0.15 (  95->  97)
   3   3.083     402.1   0.123898   0.130119  -56.358050  -43.231108     0.47 (  93->  97)    0.35 (  94->  97)    0.03 (  89->  97)
   4   3.097     400.3   0.517679   0.525564  70.535498  64.605030     0.51 (  96->  99)    0.38 (  95->  99)    0.04 (  93->  97)
   5   3.202     387.3   0.212716   0.210809  27.800862  33.941040     0.38 (  95->  98)    0.31 (  96->  98)    0.12 (  93->  98)
   6   3.385     366.3   0.158177   0.143379  17.281822  12.822991     0.72 (  94->  99)    0.09 (  96->  99)    0.09 (  95->  99)
   7   3.512     353.0   0.478720   0.454536  -5.898877  35.594924     0.72 (  91->  97)    0.07 (  89->  97)    0.04 (  96->  98)
   8   3.581     346.2   0.003679   0.004901   8.792066  13.136549     0.34 (  85->  97)    0.30 (  89->  97)    0.11 (  85->  98)
   9   3.710     334.2   0.075402   0.072420   4.242463  13.192364     0.31 (  87->  97)    0.24 (  89->  97)    0.16 (  93->  98)
  10   3.764     329.4   0.160024   0.164340  -35.024050  -16.827429     0.23 (  85->  97)    0.16 (  96-> 100)    0.15 (  95-> 100)
  11   3.775     328.4   0.220444   0.210647  22.746641  16.533145     0.34 (  96-> 100)    0.13 (  93->  98)    0.10 (  96->  98)
  12   3.843     322.7   0.006427   0.005551  -0.374699   0.326017     0.39 (  95->  99)    0.27 (  96->  99)    0.16 (  94->  99)
  13   3.845     322.4   0.029754   0.027615  -18.673821  -18.245394     0.58 (  92->  97)    0.08 (  95-> 100)    0.06 (  92-> 100)
  14   3.866     320.7   0.055052   0.052733   5.705269   1.400604     0.22 (  92->  97)    0.21 (  95-> 100)    0.16 (  95->  98)
  15   3.904     317.6   0.155321   0.142373  28.827067  43.958864     0.22 (  85->  98)    0.18 (  87->  97)    0.12 (  91->  98)
  16   3.992     310.6   0.038684   0.034881  13.591874  13.710395     0.34 (  94-> 100)    0.33 (  94->  98)    0.08 (  95->  98)
  17   4.030     307.6   0.096345   0.085641  -13.712461  -12.323411     0.36 (  85->  98)    0.20 (  85->  97)    0.11 (  93->  98)
  18   4.174     297.0   0.494494   0.444426  -209.458003  -225.434186     0.39 (  96-> 101)    0.24 (  95-> 101)    0.17 (  90->  99)
  19   4.190     295.9   0.331093   0.308089  140.235422  127.426928     0.45 (  91->  98)    0.31 (  87->  97)    0.06 (  90->  99)
  20   4.213     294.3   0.513689   0.473977  118.443186  121.606794     0.68 (  90->  99)    0.13 (  96-> 101)    0.06 (  95-> 101)
  21   4.231     293.1   0.000136   0.000098   0.042933   0.070877     0.30 (  96-> 100)    0.24 (  95-> 100)    0.23 (  96->  98)
  22   4.349     285.1   0.148367   0.140809  66.088479  29.084269     0.73 (  94-> 101)    0.13 (  95-> 101)    0.03 (  96->  99)
  23   4.385     282.7   0.004223   0.003759  -1.594483  -1.033435     0.43 (  94->  98)    0.35 (  94-> 100)    0.05 (  93-> 100)
  24   4.436     279.5   0.081720   0.071865  -43.056416  -38.105107     0.73 (  93-> 100)    0.10 (  89->  98)    0.02 (  93->  98)
  25   4.501     275.5   0.002291   0.002371  -6.829157  -6.462996     0.29 (  83->  97)    0.20 (  84->  97)    0.16 (  86->  97)
  26   4.577     270.9   0.000368   0.000304   0.752780   0.677956     0.72 (  90->  97)    0.21 (  88->  97)    0.01 (  94-> 100)
  27   4.639     267.3   0.071920   0.060350  64.752050  49.157198     0.59 (  89->  98)    0.13 (  93-> 100)    0.03 (  95-> 102)
  28   4.670     265.5   0.001745   0.001434   0.276181  -0.551598     0.54 (  88->  97)    0.22 (  90->  97)    0.04 (  92-> 100)
  29   4.699     263.8   0.010555   0.011805  -4.281706  -4.204625     0.79 (  88->  99)    0.03 (  92->  99)    0.02 (  96-> 101)
  30   4.712     263.1   0.001232   0.001218  -1.509062  -0.439406     0.33 (  92->  98)    0.31 (  92-> 100)    0.11 (  88->  97)
  31   4.768     260.0   0.004477   0.003150  10.428397   9.059832     0.28 (  84->  97)    0.19 (  86->  97)    0.12 (  87->  98)
  32   4.787     259.0   0.012091   0.009682   4.382397   2.874152     0.44 (  86->  97)    0.17 (  83->  97)    0.15 (  87->  98)
  33   4.808     257.9   0.024436   0.021180  -37.578765  -34.735492     0.28 (  87->  98)    0.15 (  95-> 102)    0.12 (  96-> 102)
  34   4.824     257.0   0.002471   0.001771   1.968042   0.977085     0.88 (  92->  99)    0.06 (  92-> 101)    0.04 (  88->  99)
  35   4.863     254.9   0.000925   0.000773  -1.220355  -1.317531     0.43 (  95-> 101)    0.27 (  96-> 101)    0.15 (  94-> 101)
  36   4.928     251.6   0.203637   0.177331  -6.854898   6.507182     0.25 (  84->  97)    0.18 (  95-> 102)    0.16 (  96-> 102)

-----------------------------------------------------------------------------
         ABSORPTION SPECTRUM VIA TRANSITION ELECTRIC DIPOLE MOMENTS
-----------------------------------------------------------------------------
State   Energy  Wavelength   fosc         T2         TX        TY        TZ  
        (cm-1)    (nm)                  (au**2)     (au)      (au)      (au) 
-----------------------------------------------------------------------------
   0   18196.3    549.6   0.580975090  10.51117  -2.14874   2.41928  -0.20296
   1   23635.6    423.1   0.012572252   0.17511   0.10773  -0.13438  -0.38138
   2   24514.8    407.9   0.127845137   1.71685   0.32652  -0.24099  -1.24585
   3   24869.6    402.1   0.123897553   1.64010   0.40529  -0.30115  -1.17692
   4   24979.1    400.3   0.517678713   6.82275   0.53653  -1.18397  -2.26563
   5   25822.7    387.3   0.212715862   2.71190  -0.60982   0.70289  -1.35866
   6   27303.0    366.3   0.158177302   1.90726  -0.36264   1.18912   0.60146
   7   28326.3    353.0   0.478720153   5.56375   1.23878  -1.97081   0.38087
   8   28883.3    346.2   0.003678863   0.04193  -0.07605   0.08532  -0.16991
   9   29922.6    334.2   0.075402354   0.82958  -0.45297   0.69670   0.37285
  10   30360.2    329.4   0.160024374   1.73523  -0.65125   0.90800  -0.69760
  11   30450.4    328.4   0.220444208   2.38331   0.07151   0.47322   1.46774
  12   30992.8    322.7   0.006427106   0.06827  -0.05849   0.19483   0.16399
  13   31012.8    322.4   0.029754008   0.31585   0.03252  -0.18792  -0.52866
  14   31179.2    320.7   0.055051922   0.58128   0.06294   0.18262   0.73754
  15   31490.9    317.6   0.155321256   1.62376   0.63921  -0.98469   0.49555
  16   32195.4    310.6   0.038683838   0.39556   0.13044  -0.03388   0.61433
  17   32505.3    307.6   0.096345110   0.97578   0.53026  -0.76369   0.33373
  18   33667.1    297.0   0.494494440   4.83539   0.89442  -1.70973  -1.05462
  19   33795.8    295.9   0.331093265   3.22525   0.45755  -1.14950   1.30174
  20   33983.3    294.3   0.513689103   4.97635   0.91514  -0.89049   1.82918
  21   34123.2    293.1   0.000136203   0.00131   0.01089   0.01465   0.03132
  22   35078.1    285.1   0.148367386   1.39244  -0.27995   0.91759   0.68709
  23   35369.1    282.7   0.004223052   0.03931  -0.05586   0.09901   0.16243
  24   35776.2    279.5   0.081719910   0.75199  -0.43924   0.63444   0.39565
  25   36300.9    275.5   0.002291218   0.02078   0.08101   0.03086  -0.11517
  26   36914.4    270.9   0.000367600   0.00328  -0.02045   0.00304  -0.05339
  27   37413.5    267.3   0.071920418   0.63285   0.14999  -0.16176   0.76432
  28   37662.4    265.5   0.001744950   0.01525   0.02024  -0.03861   0.11555
  29   37901.5    263.8   0.010554967   0.09168   0.06550  -0.01805  -0.29507
  30   38004.4    263.1   0.001232332   0.01068   0.06299  -0.06934   0.04357
  31   38454.3    260.0   0.004476642   0.03833   0.07338  -0.06620  -0.16899
  32   38611.8    259.0   0.012090796   0.10309   0.10744  -0.05381  -0.29774
  33   38780.1    257.9   0.024435977   0.20744   0.22847  -0.14029  -0.36819
  34   38910.1    257.0   0.002471289   0.02091  -0.02521   0.13583   0.04271
  35   39224.2    254.9   0.000925467   0.00777   0.03459  -0.05215   0.06206
  36   39747.1    251.6   0.203637455   1.68666  -0.12038  -0.06964   1.29125

-----------------------------------------------------------------------------
         ABSORPTION SPECTRUM VIA TRANSITION VELOCITY DIPOLE MOMENTS
-----------------------------------------------------------------------------
State   Energy  Wavelength   fosc         P2         PX        PY        PZ  
        (cm-1)    (nm)                  (au**2)     (au)      (au)      (au) 
-----------------------------------------------------------------------------
   0   18196.3    549.6   0.647817701   0.08056  -0.18866   0.21142  -0.01653
   1   23635.6    423.1   0.014256431   0.00230   0.01252  -0.01581  -0.04354
   2   24514.8    407.9   0.140221575   0.02349   0.03860  -0.02975  -0.14532
   3   24869.6    402.1   0.130119093   0.02212   0.04741  -0.03713  -0.13598
   4   24979.1    400.3   0.525564399   0.08972   0.06183  -0.13453  -0.26039
   5   25822.7    387.3   0.210808740   0.03720  -0.07048   0.08157  -0.15995
   6   27303.0    366.3   0.143378689   0.02675  -0.04278   0.14038   0.07224
   7   28326.3    353.0   0.454535601   0.08800   0.15552  -0.24708   0.05255
   8   28883.3    346.2   0.004900894   0.00097  -0.01181   0.01132  -0.02646
   9   29922.6    334.2   0.072420074   0.01481  -0.06053   0.09431   0.04745
  10   30360.2    329.4   0.164339704   0.03410  -0.08779   0.12597  -0.10259
  11   30450.4    328.4   0.210646754   0.04384   0.01016   0.06338   0.19930
  12   30992.8    322.7   0.005550644   0.00118  -0.00830   0.02589   0.02089
  13   31012.8    322.4   0.027614677   0.00585   0.00508  -0.02539  -0.07199
  14   31179.2    320.7   0.052732949   0.01124   0.01017   0.02413   0.10272
  15   31490.9    317.6   0.142373300   0.03064   0.08661  -0.13429   0.07146
  16   32195.4    310.6   0.034880764   0.00768   0.01828  -0.00443   0.08556
  17   32505.3    307.6   0.085641195   0.01903   0.07307  -0.10688   0.04758
  18   33667.1    297.0   0.444425580   0.10226   0.12833  -0.24769  -0.15634
  19   33795.8    295.9   0.308088975   0.07116   0.06972  -0.17176   0.19183
  20   33983.3    294.3   0.473976580   0.11009   0.13593  -0.13116   0.27277
  21   34123.2    293.1   0.000098294   0.00002   0.00143   0.00236   0.00391
  22   35078.1    285.1   0.140808736   0.03376  -0.04048   0.13566   0.11711
  23   35369.1    282.7   0.003758895   0.00091  -0.00891   0.01555   0.02424
  24   35776.2    279.5   0.071864716   0.01757  -0.06902   0.09633   0.05940
  25   36300.9    275.5   0.002371202   0.00059   0.01549   0.00587  -0.01771
  26   36914.4    270.9   0.000303744   0.00008  -0.00327   0.00046  -0.00811
  27   37413.5    267.3   0.060350092   0.01543   0.02354  -0.02768   0.11879
  28   37662.4    265.5   0.001434129   0.00037   0.00340  -0.00730   0.01745
  29   37901.5    263.8   0.011804889   0.00306   0.01060  -0.00442  -0.05409
  30   38004.4    263.1   0.001218171   0.00032   0.01080  -0.01051   0.00945
  31   38454.3    260.0   0.003150054   0.00083   0.01519  -0.01304  -0.02066
  32   38611.8    259.0   0.009682243   0.00256   0.01878  -0.00880  -0.04610
  33   38780.1    257.9   0.021179625   0.00561   0.03440  -0.02168  -0.06293
  34   38910.1    257.0   0.001771176   0.00047  -0.00336   0.01960   0.00868
  35   39224.2    254.9   0.000772550   0.00021   0.00616  -0.00871   0.00966
  36   39747.1    251.6   0.177330664   0.04817  -0.01599  -0.01154   0.21859

-------------------------------------------------------------------
                             CD SPECTRUM
-------------------------------------------------------------------
State   Energy Wavelength       R         MX        MY        MZ   
        (cm-1)   (nm)       (1e40*cgs)   (au)      (au)      (au)  
-------------------------------------------------------------------
   0   18196.3    549.6      2.24913   0.67911   0.89245   3.49523
   1   23635.6    423.1      2.81389   0.18536   0.91703  -0.23946
   2   24514.8    407.9    -43.04656   1.13257   3.38500  -0.50451
   3   24869.6    402.1    -56.35805   1.10977   3.20798  -0.64185
   4   24979.1    400.3     70.53550  -2.42697   2.32330  -1.65677
   5   25822.7    387.3     27.80086   0.39235   3.02421   1.47525
   6   27303.0    366.3     17.28182   1.01981  -0.51241   1.50603
   7   28326.3    353.0     -5.89888  -1.96737  -2.14271  -4.62292
   8   28883.3    346.2      8.79207   0.45852   0.78199   0.40698
   9   29922.6    334.2      4.24246  -0.05097  -0.97214   1.70632
  10   30360.2    329.4    -35.02405   1.08783   2.73119   2.32637
  11   30450.4    328.4     22.74664  -0.01173  -3.83279   1.17058
  12   30992.8    322.7     -0.37470   0.11659  -0.27803   0.38160
  13   31012.8    322.4    -18.67382  -0.15420   1.22979  -0.59648
  14   31179.2    320.7      5.70527  -0.06610  -2.01247   0.47113
  15   31490.9    317.6     28.82707  -1.03862  -1.93390  -2.74983
  16   32195.4    310.6     13.59187  -0.10736  -1.67797  -0.16361
  17   32505.3    307.6    -13.71246  -0.83589  -1.33215  -1.54600
  18   33667.1    297.0    -209.45800  -2.92850   0.43595  -4.03295
  19   33795.8    295.9    140.23542  -3.19543  -4.96333  -3.71670
  20   33983.3    294.3    118.44319   3.25134  -1.95747  -2.85429
  21   34123.2    293.1      0.04293   0.05820  -0.05313  -0.00120
  22   35078.1    285.1     66.08848   1.27697  -0.90797   1.32482
  23   35369.1    282.7     -1.59448   0.15193  -0.27713   0.26281
  24   35776.2    279.5    -43.05642   0.10320  -0.70707   1.71007
  25   36300.9    275.5     -6.82916  -0.09846   0.33540  -0.23092
  26   36914.4    270.9      0.75278  -0.00538   0.13826   0.06975
  27   37413.5    267.3     64.75205  -1.12085  -2.91820  -0.75704
  28   37662.4    265.5      0.27618  -0.22644  -0.44572  -0.11942
  29   37901.5    263.8     -4.28171  -0.22709   0.51581  -0.14353
  30   38004.4    263.1     -1.50906  -0.09898  -0.29768  -0.18371
  31   38454.3    260.0     10.42840   0.46958   0.85765   0.12971
  32   38611.8    259.0      4.38240   0.65085   1.42699   0.03943
  33   38780.1    257.9    -37.57876   0.90921   1.31150  -0.36853
  34   38910.1    257.0      1.96804   0.12834  -0.09189   0.17251
  35   39224.2    254.9     -1.22036   0.14118  -0.14078  -0.11357
  36   39747.1    251.6     -6.85490  -1.97972  -4.94030  -0.42851

sTD-DFT done

Total run time:        3.623 sec

           *** ORCA-CIS/TD-DFT FINISHED WITHOUT ERROR ***

-------------------------   --------------------
FINAL SINGLE POINT ENERGY     -8051.265180323227
-------------------------   --------------------


                            ***************************************
                            *     ORCA property calculations      *
                            ***************************************

                                    ---------------------
                                    Active property flags
                                    ---------------------
   (+) Dipole Moment


------------------------------------------------------------------------------
                       ORCA ELECTRIC PROPERTIES CALCULATION
------------------------------------------------------------------------------

Dipole Moment Calculation                       ... on
Quadrupole Moment Calculation                   ... off
Polarizability Calculation                      ... off
GBWName                                         ... xtbopt.gbw
Electron density file                           ... xtbopt.scfp
The origin for moment calculation is the CENTER OF MASS  = (-15.286694, -1.338196  7.181292)

-------------
DIPOLE MOMENT
-------------
                                X             Y             Z
Electronic contribution:   -107.52192     197.71935      21.22732
Nuclear contribution   :    107.68378    -198.63926     -24.20696
                        -----------------------------------------
Total Dipole Moment    :      0.16186      -0.91991      -2.97964
                        -----------------------------------------
Magnitude (a.u.)       :      3.12261
Magnitude (Debye)      :      7.93704



--------------------
Rotational spectrum 
--------------------
 
Rotational constants in cm-1:     0.001258     0.000257     0.000219 
Rotational constants in MHz :    37.698972     7.699854     6.573673 

 Dipole components along the rotational axes: 
x,y,z [a.u.] :     1.340626    -2.800018    -0.336607 
x,y,z [Debye]:     3.407600    -7.117081    -0.855588 

 

Timings for individual modules:

Sum of individual times         ...      647.367 sec (=  10.789 min)
GTO integral calculation        ...        3.138 sec (=   0.052 min)   0.5 %
SCF iterations                  ...      639.556 sec (=  10.659 min)  98.8 %
CIS module                      ...        4.673 sec (=   0.078 min)   0.7 %
                             ****ORCA TERMINATED NORMALLY****
TOTAL RUN TIME: 0 days 0 hours 10 minutes 48 seconds 426 msec
