
                                 *****************
                                 * O   R   C   A *
                                 *****************

           --- An Ab Initio, DFT and Semiempirical electronic structure package ---

                  #######################################################
                  #                        -***-                        #
                  #          Department of theory and spectroscopy      #
                  #               Directorship: Frank Neese             #
                  #        Max Planck Institute fuer Kohlenforschung    #
                  #                Kaiser Wilhelm Platz 1               #
                  #                 D-45470 Muelheim/Ruhr               #
                  #                      Germany                        #
                  #                                                     #
                  #                  All rights reserved                #
                  #                        -***-                        #
                  #######################################################


                         Program Version 4.2.0 -  RELEASE  -


 With contributions from (in alphabetic order):
   Daniel Aravena         : Magnetic Suceptibility
   Michael Atanasov       : Ab Initio Ligand Field Theory (pilot matlab implementation)
   Alexander A. Auer      : GIAO ZORA, VPT2
   Ute Becker             : Parallelization
   Giovanni Bistoni       : ED, misc. LED, open-shell LED, HFLED
   Martin Brehm           : Molecular dynamics
   Dmytro Bykov           : SCF Hessian
   Vijay G. Chilkuri      : MRCI spin determinant printing, contributions to CSF-ICE
   Dipayan Datta          : RHF DLPNO-CCSD density
   Achintya Kumar Dutta   : EOM-CC, STEOM-CC
   Dmitry Ganyushin       : Spin-Orbit,Spin-Spin,Magnetic field MRCI
   Miquel Garcia          : C-PCM Hessian, Gaussian charge scheme
   Yang Guo               : DLPNO-NEVPT2, CIM, IAO-localization
   Andreas Hansen         : Spin unrestricted coupled pair/coupled cluster methods
   Benjamin Helmich-Paris : CASSCF linear response (MC-RPA)
   Lee Huntington         : MR-EOM, pCC
   Robert Izsak           : Overlap fitted RIJCOSX, COSX-SCS-MP3, EOM
   Christian Kollmar      : KDIIS, OOCD, Brueckner-CCSD(T), CCSD density
   Simone Kossmann        : Meta GGA functionals, TD-DFT gradient, OOMP2, MP2 Hessian
   Martin Krupicka        : AUTO-CI
   Lucas Lang             : DCDCAS
   Dagmar Lenk            : GEPOL surface, SMD
   Dimitrios Liakos       : Extrapolation schemes; Compound Job, initial MDCI parallelization
   Dimitrios Manganas     : Further ROCIS development; embedding schemes
   Dimitrios Pantazis     : SARC Basis sets
   Taras Petrenko         : DFT Hessian,TD-DFT gradient, ASA, ECA, R-Raman, ABS, FL, XAS/XES, NRVS
   Peter Pinski           : DLPNO-MP2, DLPNO-MP2 Gradient
   Christoph Reimann      : Effective Core Potentials
   Marius Retegan         : Local ZFS, SOC
   Christoph Riplinger    : Optimizer, TS searches, QM/MM, DLPNO-CCSD(T), (RO)-DLPNO pert. Triples
   Tobias Risthaus        : Range-separated hybrids, TD-DFT gradient, RPA, STAB
   Michael Roemelt        : Original ROCIS implementation
   Masaaki Saitow         : Open-shell DLPNO-CCSD energy and density
   Barbara Sandhoefer     : DKH picture change effects
   Avijit Sen             : IP-ROCIS
   Kantharuban Sivalingam : CASSCF convergence, NEVPT2, FIC-MRCI
   Bernardo de Souza      : ESD, SOC TD-DFT
   Georgi Stoychev        : AutoAux, RI-MP2 NMR
   Willem Van den Heuvel  : Paramagnetic NMR
   Boris Wezisla          : Elementary symmetry handling
   Frank Wennmohs         : Technical directorship


 We gratefully acknowledge several colleagues who have allowed us to
 interface, adapt or use parts of their codes:
   Stefan Grimme, W. Hujo, H. Kruse,             : VdW corrections, initial TS optimization,
                  C. Bannwarth                     DFT functionals, gCP, sTDA/sTD-DF
   Ed Valeev, F. Pavosevic, A. Kumar             : LibInt (2-el integral package), F12 methods
   Garnet Chan, S. Sharma, J. Yang, R. Olivares  : DMRG
   Ulf Ekstrom                                   : XCFun DFT Library
   Mihaly Kallay                                 : mrcc  (arbitrary order and MRCC methods)
   Andreas Klamt, Michael Diedenhofen            : otool_cosmo (COSMO solvation model)
   Jiri Pittner, Ondrej Demel                    : Mk-CCSD
   Frank Weinhold                                : gennbo (NPA and NBO analysis)
   Christopher J. Cramer and Donald G. Truhlar   : smd solvation model
   Lars Goerigk                                  : TD-DFT with DH, B97 family of functionals
   V. Asgeirsson, H. Jonsson                     : NEB implementation
   FAccTs GmbH                                   : IRC, NEB, NEB-TS, Multilevel, MM, QM/MM, CI optimization
   S Lehtola, MJT Oliveira, MAL Marques          : LibXC Library


 Your calculation uses the libint2 library for the computation of 2-el integrals
 For citations please refer to: http://libint.valeyev.net

 Your ORCA version has been built with support for libXC version: 4.2.3
 For citations please refer to: https://tddft.org/programs/libxc/

 This ORCA versions uses:
   CBLAS   interface :  Fast vector & matrix operations
   LAPACKE interface :  Fast linear algebra routines
   SCALAPACK package :  Parallel linear algebra routines


XCFun DFT library Copyright 2009-2010 Ulf Ekstrom and contributors.
See http://admol.org/xcfun for more information. This is free soft-
ware; see the source code for copying conditions. There is ABSOLUTELY
NO WARRANTY; not even for MERCHANTABILITY or FITNESS FOR A PARTICULAR
PURPOSE. For details see the documentation. Scientific users of this 
library should cite U. Ekstrom, L. Visscher, R. Bast, A. J. Thorvald-
sen and K. Ruud; J.Chem.Theor.Comp. 2010, DOI: 10.1021/ct100117s
XCFun Version 0.99 
----- Orbital basis set information -----
Your calculation utilizes the basis: def2-SVP
   F. Weigend and R. Ahlrichs, Phys. Chem. Chem. Phys. 7, 3297 (2005).

----- AuxJ basis set information -----
Your calculation utilizes the auxiliary basis: def2/J
   F. Weigend, Phys. Chem. Chem. Phys. 8, 1057 (2006).

================================================================================
                                        WARNINGS
                       Please study these warnings very carefully!
================================================================================

INFO   : Checking CIS options ...

WARNING: CIS/ROCIS methods need fully converged wavefunctions
  ===> : Setting SCFConvForced true
         You can overwrite this default with %scf ConvForced false 


INFO   : the flag for use of LIBINT has been found!

================================================================================
                                       INPUT FILE
================================================================================
NAME = xtbopt.inp
|  1> # ORCA input file
|  2> # SCF done       -170.347057404475          0.000489077113
|  3> ! CAM-B3LYP def2-SVP def2/J RIJCOSX Grid4 TightSCF
|  4> %maxcore 5000
|  5> %tddft
|  6>     Mode sTDDFT
|  7>     Ethresh 5.0
|  8>     maxcore 5000
|  9> end
| 10> 
| 11> %pal
| 12>   nprocs 6
| 13>   end
| 14> * xyz 0 1
| 15>    C       -5.61046        -1.52580        -1.69212
| 16>    C       -4.78717        -2.52240        -1.22904
| 17>    C       -4.45315        -3.67602        -1.96734
| 18>    N       -4.13953        -4.63636        -2.51379
| 19>    C       -4.16224        -2.56331         0.03453
| 20>    N       -3.61805        -2.69274         1.03816
| 21>    C       -6.26034        -1.51602        -3.00148
| 22>    C       -7.05213        -0.34644        -3.10558
| 23>    C       -7.79158        -0.04380        -4.22204
| 24>    C       -7.74578        -0.94034        -5.29513
| 25>    C       -6.95193        -2.10555        -5.18485
| 26>    C       -6.20587        -2.41166        -4.05226
| 27>    S       -7.03547        -3.07380        -6.62556
| 28>    C       -8.12031        -1.91432        -7.34619
| 29>    C       -8.40746        -0.85693        -6.55108
| 30>   Br       -8.77142        -2.20956        -9.08034
| 31>    C       -6.92460         0.43165        -1.86024
| 32>    O       -7.48288         1.48839        -1.61530
| 33>    C       -6.00713        -0.31823        -1.00164
| 34>    C       -5.58677         0.07585         0.24790
| 35>    C       -5.90202         1.22758         0.97126
| 36>    S       -6.96403         2.53273         0.51678
| 37>    C       -6.64503         3.37549         2.00250
| 38>    C       -5.76034         2.66680         2.82287
| 39>    C       -5.34256         1.47013         2.24542
| 40>    O       -4.53450         0.53532         2.79129
| 41>    S       -3.38416         1.00726         3.90168
| 42>    C       -4.51979         1.77585         5.08438
| 43>    S       -5.26195         3.28910         4.39217
| 44>    C       -7.23735         4.61347         2.31230
| 45>    C       -8.11623         5.25112         1.48981
| 46>    C       -8.73417         6.47949         1.77167
| 47>    S       -8.46494         7.37211         3.24918
| 48>    C       -9.61295         8.61843         2.79845
| 49>    C      -10.09052         8.37173         1.50309
| 50>    C       -9.63424         7.16796         0.96026
| 51>    S      -10.22621         6.43803        -0.52754
| 52>    C      -11.70347         7.33698        -0.93564
| 53>    O      -12.57004         6.77427        -1.54600
| 54>    C      -11.76869         8.83131        -0.71865
| 55>    O      -12.43631         9.50284        -1.46102
| 56>    S      -10.82655         9.63727         0.52613
| 57>    C       -9.96061         9.60246         3.73550
| 58>    C      -11.18428        10.23510         3.82491
| 59>    C      -11.55775        11.27813         4.70369
| 60>    C      -12.86084        11.68075         4.58394
| 61>    C      -13.58390        10.96957         3.61165
| 62>    S      -12.57704         9.73152         2.89950
| 63>    C      -14.85790        11.13767         3.08910
| 64>    C      -15.90205        12.01124         3.44306
| 65>    C      -16.99851        11.90619         2.63189
| 66>    C      -16.86844        10.95484         1.59622
| 67>    S      -15.30948        10.17083         1.70577
| 68>    C      -17.78318        10.65713         0.60731
| 69>    C      -17.59876         9.76851        -0.44941
| 70>    S      -16.11585         8.87102        -0.75896
| 71>    C      -16.71924         8.09495        -2.18985
| 72>    C      -18.03232         8.50790        -2.43077
| 73>    C      -18.50607         9.43496        -1.46277
| 74>    N      -19.77281         9.74556        -1.81722
| 75>    N      -20.13999         9.09067        -2.93247
| 76>    C      -19.13121         8.35262        -3.31736
| 77>    C      -15.86379         7.19824        -2.89528
| 78>    C      -16.21106         6.52032        -3.99386
| 79>    H       -8.38453         0.85614        -4.26732
| 80>    H       -5.61721        -3.31292        -4.02048
| 81>    H       -9.05775        -0.05007        -6.83594
| 82>    H       -4.89876        -0.57661         0.77246
| 83>    H       -5.30256         1.06659         5.34546
| 84>    H       -3.94654         2.07128         5.95757
| 85>    H       -6.96834         5.06364         3.26031
| 86>    H       -8.37522         4.79399         0.54294
| 87>    H       -9.24152         9.80185         4.51846
| 88>    H      -10.84715        11.72033         5.37934
| 89>    H      -13.30208        12.48066         5.15157
| 90>    H      -15.82310        12.68914         4.27397
| 91>    H      -17.89051        12.49813         2.74141
| 92>    H      -18.73394        11.17438         0.64526
| 93>    H      -20.42439        10.36869        -1.37067
| 94>    H      -19.21883         7.74666        -4.19543
| 95>    H      -14.86994         7.08694        -2.48206
| 96>    H      -17.18928         6.60407        -4.43357
| 97>    H      -15.51417         5.86028        -4.47818
| 98> *
| 99> 
|100>                          ****END OF INPUT****
================================================================================

                       ****************************
                       * Single Point Calculation *
                       ****************************

---------------------------------
CARTESIAN COORDINATES (ANGSTROEM)
---------------------------------
  C     -5.610460   -1.525800   -1.692120
  C     -4.787170   -2.522400   -1.229040
  C     -4.453150   -3.676020   -1.967340
  N     -4.139530   -4.636360   -2.513790
  C     -4.162240   -2.563310    0.034530
  N     -3.618050   -2.692740    1.038160
  C     -6.260340   -1.516020   -3.001480
  C     -7.052130   -0.346440   -3.105580
  C     -7.791580   -0.043800   -4.222040
  C     -7.745780   -0.940340   -5.295130
  C     -6.951930   -2.105550   -5.184850
  C     -6.205870   -2.411660   -4.052260
  S     -7.035470   -3.073800   -6.625560
  C     -8.120310   -1.914320   -7.346190
  C     -8.407460   -0.856930   -6.551080
  Br    -8.771420   -2.209560   -9.080340
  C     -6.924600    0.431650   -1.860240
  O     -7.482880    1.488390   -1.615300
  C     -6.007130   -0.318230   -1.001640
  C     -5.586770    0.075850    0.247900
  C     -5.902020    1.227580    0.971260
  S     -6.964030    2.532730    0.516780
  C     -6.645030    3.375490    2.002500
  C     -5.760340    2.666800    2.822870
  C     -5.342560    1.470130    2.245420
  O     -4.534500    0.535320    2.791290
  S     -3.384160    1.007260    3.901680
  C     -4.519790    1.775850    5.084380
  S     -5.261950    3.289100    4.392170
  C     -7.237350    4.613470    2.312300
  C     -8.116230    5.251120    1.489810
  C     -8.734170    6.479490    1.771670
  S     -8.464940    7.372110    3.249180
  C     -9.612950    8.618430    2.798450
  C    -10.090520    8.371730    1.503090
  C     -9.634240    7.167960    0.960260
  S    -10.226210    6.438030   -0.527540
  C    -11.703470    7.336980   -0.935640
  O    -12.570040    6.774270   -1.546000
  C    -11.768690    8.831310   -0.718650
  O    -12.436310    9.502840   -1.461020
  S    -10.826550    9.637270    0.526130
  C     -9.960610    9.602460    3.735500
  C    -11.184280   10.235100    3.824910
  C    -11.557750   11.278130    4.703690
  C    -12.860840   11.680750    4.583940
  C    -13.583900   10.969570    3.611650
  S    -12.577040    9.731520    2.899500
  C    -14.857900   11.137670    3.089100
  C    -15.902050   12.011240    3.443060
  C    -16.998510   11.906190    2.631890
  C    -16.868440   10.954840    1.596220
  S    -15.309480   10.170830    1.705770
  C    -17.783180   10.657130    0.607310
  C    -17.598760    9.768510   -0.449410
  S    -16.115850    8.871020   -0.758960
  C    -16.719240    8.094950   -2.189850
  C    -18.032320    8.507900   -2.430770
  C    -18.506070    9.434960   -1.462770
  N    -19.772810    9.745560   -1.817220
  N    -20.139990    9.090670   -2.932470
  C    -19.131210    8.352620   -3.317360
  C    -15.863790    7.198240   -2.895280
  C    -16.211060    6.520320   -3.993860
  H     -8.384530    0.856140   -4.267320
  H     -5.617210   -3.312920   -4.020480
  H     -9.057750   -0.050070   -6.835940
  H     -4.898760   -0.576610    0.772460
  H     -5.302560    1.066590    5.345460
  H     -3.946540    2.071280    5.957570
  H     -6.968340    5.063640    3.260310
  H     -8.375220    4.793990    0.542940
  H     -9.241520    9.801850    4.518460
  H    -10.847150   11.720330    5.379340
  H    -13.302080   12.480660    5.151570
  H    -15.823100   12.689140    4.273970
  H    -17.890510   12.498130    2.741410
  H    -18.733940   11.174380    0.645260
  H    -20.424390   10.368690   -1.370670
  H    -19.218830    7.746660   -4.195430
  H    -14.869940    7.086940   -2.482060
  H    -17.189280    6.604070   -4.433570
  H    -15.514170    5.860280   -4.478180

----------------------------
CARTESIAN COORDINATES (A.U.)
----------------------------
  NO LB      ZA    FRAG     MASS         X           Y           Z
   0 C     6.0000    0    12.011  -10.602233   -2.883344   -3.197643
   1 C     6.0000    0    12.011   -9.046440   -4.766645   -2.322549
   2 C     6.0000    0    12.011   -8.415234   -6.946671   -3.717734
   3 N     7.0000    0    14.007   -7.822578   -8.761451   -4.750375
   4 C     6.0000    0    12.011   -7.865494   -4.843954    0.065252
   5 N     7.0000    0    14.007   -6.837124   -5.088541    1.961838
   6 C     6.0000    0    12.011  -11.830328   -2.864863   -5.671975
   7 C     6.0000    0    12.011  -13.326594   -0.654677   -5.868696
   8 C     6.0000    0    12.011  -14.723952   -0.082770   -7.978499
   9 C     6.0000    0    12.011  -14.637403   -1.776985  -10.006346
  10 C     6.0000    0    12.011  -13.137244   -3.978913   -9.797947
  11 C     6.0000    0    12.011  -11.727395   -4.557377   -7.657662
  12 S    16.0000    0    32.060  -13.295112   -5.808640  -12.520494
  13 C     6.0000    0    12.011  -15.345162   -3.617541  -13.882287
  14 C     6.0000    0    12.011  -15.887797   -1.619363  -12.379747
  15 Br   35.0000    0    79.900  -16.575582   -4.175463  -17.159356
  16 C     6.0000    0    12.011  -13.085598    0.815700   -3.515344
  17 O     8.0000    0    15.999  -14.140594    2.812649   -3.052475
  18 C     6.0000    0    12.011  -11.351831   -0.601368   -1.892825
  19 C     6.0000    0    12.011  -10.557465    0.143336    0.468463
  20 C     6.0000    0    12.011  -11.153201    2.319790    1.835415
  21 S    16.0000    0    32.060  -13.160109    4.786166    0.976573
  22 C     6.0000    0    12.011  -12.557287    6.378752    3.784177
  23 C     6.0000    0    12.011  -10.885465    5.039522    5.334451
  24 C     6.0000    0    12.011  -10.095975    2.778143    4.243229
  25 O     8.0000    0    15.999   -8.568963    1.011608    5.274774
  26 S    16.0000    0    32.060   -6.395136    1.903446    7.373107
  27 C     6.0000    0    12.011   -8.541165    3.355870    9.608086
  28 S    16.0000    0    32.060   -9.943644    6.215498    8.299998
  29 C     6.0000    0    12.011  -13.676609    8.718195    4.369614
  30 C     6.0000    0    12.011  -15.337452    9.923179    2.815333
  31 C     6.0000    0    12.011  -16.505189   12.244462    3.347971
  32 S    16.0000    0    32.060  -15.996418   13.931269    6.140060
  33 C     6.0000    0    12.011  -18.165843   16.286472    5.288304
  34 C     6.0000    0    12.011  -19.068319   15.820277    2.840428
  35 C     6.0000    0    12.011  -18.206075   13.545481    1.814628
  36 S    16.0000    0    32.060  -19.324736   12.166114   -0.996906
  37 C     6.0000    0    12.011  -22.116353   13.864883   -1.768103
  38 O     8.0000    0    15.999  -23.753933   12.801515   -2.921517
  39 C     6.0000    0    12.011  -22.239601   16.688757   -1.358052
  40 O     8.0000    0    15.999  -23.501220   17.957765   -2.760928
  41 S    16.0000    0    32.060  -20.459214   18.211801    0.994242
  42 C     6.0000    0    12.011  -18.822825   18.146020    7.059072
  43 C     6.0000    0    12.011  -21.135226   19.341536    7.228032
  44 C     6.0000    0    12.011  -21.840982   21.312577    8.888686
  45 C     6.0000    0    12.011  -24.303465   22.073419    8.662391
  46 C     6.0000    0    12.011  -25.669851   20.729483    6.825029
  47 S    16.0000    0    32.060  -23.767161   18.389908    5.479261
  48 C     6.0000    0    12.011  -28.077362   21.047146    5.837553
  49 C     6.0000    0    12.011  -30.050519   22.697954    6.506440
  50 C     6.0000    0    12.011  -32.122529   22.499438    4.973551
  51 C     6.0000    0    12.011  -31.876732   20.701647    3.016419
  52 S    16.0000    0    32.060  -28.930724   19.220083    3.223438
  53 C     6.0000    0    12.011  -33.605340   20.139057    1.147650
  54 C     6.0000    0    12.011  -33.256837   18.459809   -0.849262
  55 S    16.0000    0    32.060  -30.454543   16.763798   -1.434227
  56 C     6.0000    0    12.011  -31.594785   15.297239   -4.138217
  57 C     6.0000    0    12.011  -34.076146   16.077601   -4.593490
  58 C     6.0000    0    12.011  -34.971404   17.829490   -2.764235
  59 N     7.0000    0    14.007  -37.365196   18.416439   -3.434048
  60 N     7.0000    0    14.007  -38.059065   17.178877   -5.541565
  61 C     6.0000    0    12.011  -36.152748   15.784164   -6.268902
  62 C     6.0000    0    12.011  -29.978219   13.602702   -5.471286
  63 C     6.0000    0    12.011  -30.634464   12.321619   -7.547302
  64 H     1.0000    0     1.008  -15.844465    1.617870   -8.064066
  65 H     1.0000    0     1.008  -10.614989   -6.260512   -7.597606
  66 H     1.0000    0     1.008  -17.116667   -0.094619  -12.918054
  67 H     1.0000    0     1.008   -9.257315   -1.089635    1.459738
  68 H     1.0000    0     1.008  -10.020386    2.015563   10.101455
  69 H     1.0000    0     1.008   -7.457880    3.914152   11.258176
  70 H     1.0000    0     1.008  -13.168254    9.568893    6.161093
  71 H     1.0000    0     1.008  -15.826872    9.059328    1.026008
  72 H     1.0000    0     1.008  -17.463942   18.522812    8.538652
  73 H     1.0000    0     1.008  -20.498143   22.148214   10.165479
  74 H     1.0000    0     1.008  -25.137288   23.585029    9.735056
  75 H     1.0000    0     1.008  -29.901326   23.978999    8.076633
  76 H     1.0000    0     1.008  -33.808164   23.618043    5.180514
  77 H     1.0000    0     1.008  -35.402016   21.116518    1.219365
  78 H     1.0000    0     1.008  -38.596504   19.593984   -2.590191
  79 H     1.0000    0     1.008  -36.318325   14.639066   -7.928214
  80 H     1.0000    0     1.008  -28.100114   13.392376   -4.690414
  81 H     1.0000    0     1.008  -32.483032   12.479884   -8.378233
  82 H     1.0000    0     1.008  -29.317532   11.074324   -8.462534

--------------------------------
INTERNAL COORDINATES (ANGSTROEM)
--------------------------------
 C      0   0   0     0.000000000000     0.00000000     0.00000000
 C      1   0   0     1.373120923481     0.00000000     0.00000000
 C      2   1   0     1.409785570504   124.01114103     0.00000000
 N      3   2   1     1.148572166866   176.41216565   178.44887194
 C      2   1   3     1.410255394565   126.07999134   180.53253654
 N      5   2   1     1.148985664793   174.73714963   175.31351612
 C      1   2   3     1.461801379258   124.99390267     0.30348066
 C      7   1   2     1.416222295581   108.65813208   178.59142684
 C      8   7   1     1.372902110021   122.88460881   179.95938393
 C      9   8   7     1.399072464063   117.70008920   359.83717668
 C     10   9   8     1.414239670282   119.11327665     0.09099396
 C      7   1   2     1.381765753990   131.24622980   358.42399103
 S     11  10   9     1.737852783811   111.55638660   180.12430811
 C     13  11  10     1.743725693135    90.11684528     0.03578434
 C     14  13  11     1.353783087019   114.11698089   359.95023145
 Br    14  13  11     1.875736418637   119.56244691   179.95507551
 C      8   7   1     1.473960536989   108.99455726     0.25744223
 O     17   8   7     1.219988356338   125.96499041   180.52446094
 C      1   2   3     1.446490589046   127.54238399   179.72201267
 C     19   1   2     1.375991201861   126.07169866     2.37030791
 C     20  19   1     1.396106817188   129.62754558   178.84117097
 S     21  20  19     1.742938275729   128.33303365     1.08090539
 C     22  21  20     1.737633257048    91.62562313   180.52452773
 C     23  22  21     1.399258678408   111.82176436   359.46207675
 C     24  23  22     1.392841598962   112.44025283     0.59295505
 O     25  24  23     1.350853343853   127.33276049   182.67405298
 S     26  25  24     1.667025924004   119.08007843   330.89509836
 C     27  26  25     1.810846590686    97.03319003    57.62446278
 S     24  23  22     1.760213729097   121.51087287   180.00645586
 C     23  22  21     1.406916309807   122.53077263   180.12484255
 C     30  23  22     1.362173769018   123.40687432     0.67234391
 C     31  30  23     1.403633769934   124.92189790   179.42120734
 S     32  31  30     1.747080724351   123.30567746   359.55619044
 C     33  32  31     1.753396143317    92.57176193   182.62735268
 C     34  33  32     1.402459099047   109.59376567   355.71683100
 C     32  31  30     1.393737110757   126.84805355   179.81632121
 S     36  32  31     1.759765645136   120.30176700     5.89007350
 C     37  36  32     1.776781871840   105.30830502   160.99701009
 O     38  37  36     1.200052264945   118.68289116   208.91211601
 C     38  37  36     1.511410089089   120.20711740    38.78021500
 O     40  38  37     1.203238223379   119.15409374   148.03546165
 S     40  38  37     1.756894006365   122.14992682   331.69754482
 C     34  33  32     1.402585191352   119.29050979   172.24662917
 C     43  34  33     1.380433188025   125.76932068   211.47639127
 C     44  43  34     1.414088296465   127.76324646   183.59556199
 C     45  44  43     1.369118868105   114.45145164   181.75424903
 C     46  45  44     1.404969964127   113.67182101     0.43053933
 S     44  43  34     1.746355319544   122.71641166     8.82466555
 C     47  46  45     1.387224607805   132.22023404   187.22397318
 C     49  47  46     1.406649014147   131.46616199   353.56952563
 C     50  49  47     1.367938888620   113.45784688   177.19016624
 C     51  50  49     1.412302154746   114.37827959   359.54745209
 S     49  47  46     1.747084992466   117.94205499   171.02445720
 C     52  51  50     1.379609908561   127.58544723   182.06108785
 C     54  52  51     1.392951326931   126.41723124   175.99085605
 S     55  54  52     1.760775843400   124.75274837   358.10418774
 C     56  55  54     1.736032928576    94.59106315   181.16042213
 C     57  56  55     1.397408041805   109.66930330   359.86086665
 C     55  54  52     1.400487603730   127.95795694   179.47081178
 N     59  55  54     1.351568492567   137.92068585   358.73398486
 N     60  59  55     1.344427248683   111.19696820   180.12694527
 C     61  60  59     1.307859014955   107.96009339     0.00000000
 C     57  56  55     1.426013678581   118.70759878   179.74853433
 C     63  57  56     1.336805893053   124.72110652   178.79695444
 H      9   8   7     1.078671397832   120.93876348   179.96196242
 H     12   7   1     1.076940180140   122.78948277     0.07637435
 H     15  14  13     1.074730367720   123.99062938   180.00508770
 H     20  19   1     1.083616632071   117.45929784   359.62544570
 H     28  27  26     1.088090707110   109.34166577    53.14423085
 H     28  27  26     1.085520715371   108.04132406   174.50210763
 H     30  23  22     1.083393912250   116.98575828   180.50636103
 H     31  30  23     1.082869546113   118.99119429   359.60068250
 H     43  34  33     1.081606750071   116.62571033    24.47604937
 H     45  44  43     1.075637542344   121.27245477     3.50868554
 H     46  45  44     1.075524319855   124.26504733   181.98996354
 H     50  49  47     1.075264125971   122.10517831   357.30631251
 H     51  50  49     1.076128056506   124.18068147   180.55661488
 H     54  52  51     1.083020010249   116.99358209   356.95066458
 H     60  59  55     1.006108540765   129.26516608     0.16555553
 H     62  61  60     1.070453974209   119.84881788   180.02362074
 H     63  57  56     1.082070367813   115.26146877   358.66288743
 H     64  63  57     1.075766384955   122.18412387   359.81147361
 H     64  63  57     1.075115964024   120.87385299   179.88336330

---------------------------
INTERNAL COORDINATES (A.U.)
---------------------------
 C      0   0   0     0.000000000000     0.00000000     0.00000000
 C      1   0   0     2.594822494135     0.00000000     0.00000000
 C      2   1   0     2.664108635806   124.01114103     0.00000000
 N      3   2   1     2.170486840422   176.41216565   178.44887194
 C      2   1   3     2.664996474613   126.07999134   180.53253654
 N      5   2   1     2.171268238260   174.73714963   175.31351612
 C      1   2   3     2.762404268986   124.99390267     0.30348066
 C      7   1   2     2.676272283401   108.65813208   178.59142684
 C      8   7   1     2.594408996622   122.88460881   179.95938393
 C      9   8   7     2.643863798590   117.70008920   359.83717668
 C     10   9   8     2.672525664561   119.11327665     0.09099396
 C      7   1   2     2.611158856273   131.24622980   358.42399103
 S     11  10   9     3.284065822476   111.55638660   180.12430811
 C     13  11  10     3.295164012708    90.11684528     0.03578434
 C     14  13  11     2.558279279201   114.11698089   359.95023145
 Br    14  13  11     3.544628130646   119.56244691   179.95507551
 C      8   7   1     2.785381747116   108.99455726     0.25744223
 O     17   8   7     2.305443880051   125.96499041   180.52446094
 C      1   2   3     2.733471068592   127.54238399   179.72201267
 C     19   1   2     2.600246534203   126.07169866     2.37030791
 C     20  19   1     2.638259538187   129.62754558   178.84117097
 S     21  20  19     3.293676009456   128.33303365     1.08090539
 C     22  21  20     3.283650977015    91.62562313   180.52452773
 C     23  22  21     2.644215692704   111.82176436   359.46207675
 C     24  23  22     2.632089169972   112.44025283     0.59295505
 O     25  24  23     2.552742866975   127.33276049   182.67405298
 S     26  25  24     3.150222454514   119.08007843   330.89509836
 C     27  26  25     3.422004126942    97.03319003    57.62446278
 S     24  23  22     3.326321885161   121.51087287   180.00645586
 C     23  22  21     2.658686518882   122.53077263   180.12484255
 C     30  23  22     2.574135370255   123.40687432     0.67234391
 C     31  30  23     2.652483417499   124.92189790   179.42120734
 S     32  31  30     3.301504102877   123.30567746   359.55619044
 C     33  32  31     3.313438515143    92.57176193   182.62735268
 C     34  33  32     2.650263611225   109.59376567   355.71683100
 C     32  31  30     2.633781442013   126.84805355   179.81632121
 S     36  32  31     3.325475129190   120.30176700     5.89007350
 C     37  36  32     3.357631137494   105.30830502   160.99701009
 O     38  37  36     2.267770127138   118.68289116   208.91211601
 C     38  37  36     2.856151144424   120.20711740    38.78021500
 O     40  38  37     2.273790716052   119.15409374   148.03546165
 S     40  38  37     3.320048518357   122.14992682   331.69754482
 C     34  33  32     2.650501891149   119.29050979   172.24662917
 C     43  34  33     2.608640671542   125.76932068   211.47639127
 C     44  43  34     2.672239609503   127.76324646   183.59556199
 C     45  44  43     2.587259705502   114.45145164   181.75424903
 C     46  45  44     2.655008458586   113.67182101     0.43053933
 S     44  43  34     3.300133286455   122.71641166     8.82466555
 C     47  46  45     2.621474594988   132.22023404   187.22397318
 C     49  47  46     2.658181403288   131.46616199   353.56952563
 C     50  49  47     2.585029867433   113.45784688   177.19016624
 C     51  50  49     2.668864290817   114.37827959   359.54745209
 S     49  47  46     3.301512168445   117.94205499   171.02445720
 C     52  51  50     2.607084898825   127.58544723   182.06108785
 C     54  52  51     2.632296525783   126.41723124   175.99085605
 S     55  54  52     3.327384127250   124.75274837   358.10418774
 C     56  55  54     3.280626794478    94.59106315   181.16042213
 C     57  56  55     2.640718496350   109.66930330   359.86086665
 C     55  54  52     2.646538025000   127.95795694   179.47081178
 N     59  55  54     2.554094302189   137.92068585   358.73398486
 N     60  59  55     2.540599306991   111.19696820   180.12694527
 C     61  60  59     2.471495360046   107.96009339     0.00000000
 C     57  56  55     2.694775315744   118.70759878   179.74853433
 C     63  57  56     2.526197032081   124.72110652   178.79695444
 H      9   8   7     2.038393530396   120.93876348   179.96196242
 H     12   7   1     2.035122003080   122.78948277     0.07637435
 H     15  14  13     2.030946062800   123.99062938   180.00508770
 H     20  19   1     2.047738668776   117.45929784   359.62544570
 H     28  27  26     2.056193445303   109.34166577    53.14423085
 H     28  27  26     2.051336864750   108.04132406   174.50210763
 H     30  23  22     2.047317789310   116.98575828   180.50636103
 H     31  30  23     2.046326880918   118.99119429   359.60068250
 H     43  34  33     2.043940542236   116.62571033    24.47604937
 H     45  44  43     2.032660374394   121.27245477     3.50868554
 H     46  45  44     2.032446414898   124.26504733   181.98996354
 H     50  49  47     2.031954719715   122.10517831   357.30631251
 H     51  50  49     2.033587311826   124.18068147   180.55661488
 H     54  52  51     2.046611216927   116.99358209   356.95066458
 H     60  59  55     1.901269603045   129.26516608     0.16555553
 H     62  61  60     2.022864850223   119.84881788   180.02362074
 H     63  57  56     2.044816652799   115.26146877   358.66288743
 H     64  63  57     2.032903851644   122.18412387   359.81147361
 H     64  63  57     2.031674734213   120.87385299   179.88336330

---------------------
BASIS SET INFORMATION
---------------------
There are 6 groups of distinct atoms

 Group   1 Type C   : 7s4p1d contracted to 3s2p1d pattern {511/31/1}
 Group   2 Type N   : 7s4p1d contracted to 3s2p1d pattern {511/31/1}
 Group   3 Type S   : 10s7p1d contracted to 4s3p1d pattern {5311/511/1}
 Group   4 Type Br  : 14s10p6d contracted to 5s4p3d pattern {63311/5311/411}
 Group   5 Type O   : 7s4p1d contracted to 3s2p1d pattern {511/31/1}
 Group   6 Type H   : 4s1p contracted to 2s1p pattern {31/1}

Atom   0C    basis set group =>   1
Atom   1C    basis set group =>   1
Atom   2C    basis set group =>   1
Atom   3N    basis set group =>   2
Atom   4C    basis set group =>   1
Atom   5N    basis set group =>   2
Atom   6C    basis set group =>   1
Atom   7C    basis set group =>   1
Atom   8C    basis set group =>   1
Atom   9C    basis set group =>   1
Atom  10C    basis set group =>   1
Atom  11C    basis set group =>   1
Atom  12S    basis set group =>   3
Atom  13C    basis set group =>   1
Atom  14C    basis set group =>   1
Atom  15Br   basis set group =>   4
Atom  16C    basis set group =>   1
Atom  17O    basis set group =>   5
Atom  18C    basis set group =>   1
Atom  19C    basis set group =>   1
Atom  20C    basis set group =>   1
Atom  21S    basis set group =>   3
Atom  22C    basis set group =>   1
Atom  23C    basis set group =>   1
Atom  24C    basis set group =>   1
Atom  25O    basis set group =>   5
Atom  26S    basis set group =>   3
Atom  27C    basis set group =>   1
Atom  28S    basis set group =>   3
Atom  29C    basis set group =>   1
Atom  30C    basis set group =>   1
Atom  31C    basis set group =>   1
Atom  32S    basis set group =>   3
Atom  33C    basis set group =>   1
Atom  34C    basis set group =>   1
Atom  35C    basis set group =>   1
Atom  36S    basis set group =>   3
Atom  37C    basis set group =>   1
Atom  38O    basis set group =>   5
Atom  39C    basis set group =>   1
Atom  40O    basis set group =>   5
Atom  41S    basis set group =>   3
Atom  42C    basis set group =>   1
Atom  43C    basis set group =>   1
Atom  44C    basis set group =>   1
Atom  45C    basis set group =>   1
Atom  46C    basis set group =>   1
Atom  47S    basis set group =>   3
Atom  48C    basis set group =>   1
Atom  49C    basis set group =>   1
Atom  50C    basis set group =>   1
Atom  51C    basis set group =>   1
Atom  52S    basis set group =>   3
Atom  53C    basis set group =>   1
Atom  54C    basis set group =>   1
Atom  55S    basis set group =>   3
Atom  56C    basis set group =>   1
Atom  57C    basis set group =>   1
Atom  58C    basis set group =>   1
Atom  59N    basis set group =>   2
Atom  60N    basis set group =>   2
Atom  61C    basis set group =>   1
Atom  62C    basis set group =>   1
Atom  63C    basis set group =>   1
Atom  64H    basis set group =>   6
Atom  65H    basis set group =>   6
Atom  66H    basis set group =>   6
Atom  67H    basis set group =>   6
Atom  68H    basis set group =>   6
Atom  69H    basis set group =>   6
Atom  70H    basis set group =>   6
Atom  71H    basis set group =>   6
Atom  72H    basis set group =>   6
Atom  73H    basis set group =>   6
Atom  74H    basis set group =>   6
Atom  75H    basis set group =>   6
Atom  76H    basis set group =>   6
Atom  77H    basis set group =>   6
Atom  78H    basis set group =>   6
Atom  79H    basis set group =>   6
Atom  80H    basis set group =>   6
Atom  81H    basis set group =>   6
Atom  82H    basis set group =>   6
---------------------------------
AUXILIARY/J BASIS SET INFORMATION
---------------------------------
There are 6 groups of distinct atoms

 Group   1 Type C   : 12s5p4d2f1g contracted to 6s4p3d1f1g pattern {711111/2111/211/2/1}
 Group   2 Type N   : 12s5p4d2f1g contracted to 6s4p3d1f1g pattern {711111/2111/211/2/1}
 Group   3 Type S   : 14s5p5d2f1g contracted to 8s4p3d1f1g pattern {71111111/2111/311/2/1}
 Group   4 Type Br  : 19s5p5d3f1g contracted to 8s4p3d2f1g pattern {121111111/2111/311/21/1}
 Group   5 Type O   : 12s5p4d2f1g contracted to 6s4p3d1f1g pattern {711111/2111/211/2/1}
 Group   6 Type H   : 5s2p1d contracted to 3s1p1d pattern {311/2/1}

Atom   0C    basis set group =>   1
Atom   1C    basis set group =>   1
Atom   2C    basis set group =>   1
Atom   3N    basis set group =>   2
Atom   4C    basis set group =>   1
Atom   5N    basis set group =>   2
Atom   6C    basis set group =>   1
Atom   7C    basis set group =>   1
Atom   8C    basis set group =>   1
Atom   9C    basis set group =>   1
Atom  10C    basis set group =>   1
Atom  11C    basis set group =>   1
Atom  12S    basis set group =>   3
Atom  13C    basis set group =>   1
Atom  14C    basis set group =>   1
Atom  15Br   basis set group =>   4
Atom  16C    basis set group =>   1
Atom  17O    basis set group =>   5
Atom  18C    basis set group =>   1
Atom  19C    basis set group =>   1
Atom  20C    basis set group =>   1
Atom  21S    basis set group =>   3
Atom  22C    basis set group =>   1
Atom  23C    basis set group =>   1
Atom  24C    basis set group =>   1
Atom  25O    basis set group =>   5
Atom  26S    basis set group =>   3
Atom  27C    basis set group =>   1
Atom  28S    basis set group =>   3
Atom  29C    basis set group =>   1
Atom  30C    basis set group =>   1
Atom  31C    basis set group =>   1
Atom  32S    basis set group =>   3
Atom  33C    basis set group =>   1
Atom  34C    basis set group =>   1
Atom  35C    basis set group =>   1
Atom  36S    basis set group =>   3
Atom  37C    basis set group =>   1
Atom  38O    basis set group =>   5
Atom  39C    basis set group =>   1
Atom  40O    basis set group =>   5
Atom  41S    basis set group =>   3
Atom  42C    basis set group =>   1
Atom  43C    basis set group =>   1
Atom  44C    basis set group =>   1
Atom  45C    basis set group =>   1
Atom  46C    basis set group =>   1
Atom  47S    basis set group =>   3
Atom  48C    basis set group =>   1
Atom  49C    basis set group =>   1
Atom  50C    basis set group =>   1
Atom  51C    basis set group =>   1
Atom  52S    basis set group =>   3
Atom  53C    basis set group =>   1
Atom  54C    basis set group =>   1
Atom  55S    basis set group =>   3
Atom  56C    basis set group =>   1
Atom  57C    basis set group =>   1
Atom  58C    basis set group =>   1
Atom  59N    basis set group =>   2
Atom  60N    basis set group =>   2
Atom  61C    basis set group =>   1
Atom  62C    basis set group =>   1
Atom  63C    basis set group =>   1
Atom  64H    basis set group =>   6
Atom  65H    basis set group =>   6
Atom  66H    basis set group =>   6
Atom  67H    basis set group =>   6
Atom  68H    basis set group =>   6
Atom  69H    basis set group =>   6
Atom  70H    basis set group =>   6
Atom  71H    basis set group =>   6
Atom  72H    basis set group =>   6
Atom  73H    basis set group =>   6
Atom  74H    basis set group =>   6
Atom  75H    basis set group =>   6
Atom  76H    basis set group =>   6
Atom  77H    basis set group =>   6
Atom  78H    basis set group =>   6
Atom  79H    basis set group =>   6
Atom  80H    basis set group =>   6
Atom  81H    basis set group =>   6
Atom  82H    basis set group =>   6


           ************************************************************
           *        Program running with 6 parallel MPI-processes     *
           *              working on a common directory               *
           ************************************************************
------------------------------------------------------------------------------
                           ORCA GTO INTEGRAL CALCULATION
                           -- RI-GTO INTEGRALS CHOSEN --
------------------------------------------------------------------------------

                         BASIS SET STATISTICS AND STARTUP INFO

Gaussian basis set:
 # of primitive gaussian shells          ...  941
 # of primitive gaussian functions       ... 1839
 # of contracted shells                  ...  467
 # of contracted basis functions         ... 1049
 Highest angular momentum                ...    2
 Maximum contraction depth               ...    6
Auxiliary gaussian basis set:
 # of primitive gaussian shells          ... 1727
 # of primitive gaussian functions       ... 4873
 # of contracted shells                  ... 1078
 # of contracted aux-basis functions     ... 3374
 Highest angular momentum                ...    4
 Maximum contraction depth               ...   12
Ratio of auxiliary to basis functions    ...  3.22
Integral package used                  ... LIBINT
 One Electron integrals                  ... done
 Ordering auxiliary basis shells         ... done
 Integral threshhold             Thresh  ...  2.500e-11
 Primitive cut-off               TCut    ...  2.500e-12
 Pre-screening matrix                    ... done
 Shell pair data                         ... 
 Ordering of the shell pairs             ... done (   0.006 sec) 35118 of 109278 pairs
 Determination of significant pairs      ... done (   0.000 sec)
 Creation of shell pair data             ... done (   0.005 sec)
 Storage of shell pair data              ... done (   0.006 sec)
 Shell pair data done in (   0.017 sec)
 Computing two index integrals           ... done
 Cholesky decomposition of the V-matrix  ... done


Timings:
 Total evaluation time                   ...   1.844 sec (  0.031 min)
 One electron matrix time                ...   0.364 sec (  0.006 min) = 19.7%
 Schwartz matrix evaluation time         ...   0.639 sec (  0.011 min) = 34.7%
 Two index repulsion integral time       ...   0.319 sec (  0.005 min) = 17.3%
 Cholesky decomposition of V             ...   0.490 sec (  0.008 min) = 26.6%
 Three index repulsion integral time     ...   0.000 sec (  0.000 min) =  0.0%



           ************************************************************
           *        Program running with 6 parallel MPI-processes     *
           *              working on a common directory               *
           ************************************************************
-------------------------------------------------------------------------------
                                 ORCA SCF
-------------------------------------------------------------------------------

------------
SCF SETTINGS
------------
Hamiltonian:
 Density Functional     Method          .... DFT(GTOs)
 Exchange Functional    Exchange        .... WB88
 Correlation Functional Correlation     .... LYP
 LDA part of GGA corr.  LDAOpt          .... VWN-5
 Gradients option       PostSCFGGA      .... off
 Hybrid DFT is turned on
   Fraction HF Exchange ScalHFX         ....  0.190000
   Scaling of DF-GGA-X  ScalDFX         ....  0.350000
   Scaling of DF-GGA-C  ScalDFC         ....  0.810000
   Scaling of DF-LDA-C  ScalLDAC        ....  1.000000
   Perturbative correction              ....  0.000000
   Density functional embedding theory  .... OFF
 Long-range corrected/Screened/Range-Separated Hybrid DFT is turned on
   Amount of maximum screened exact exchange              ....  0.460000
   Range separation parameter mu (erf(mu*r12)/r12)        ....  0.330000
 RI-approximation to the Coulomb term is turned on
   Number of auxiliary basis functions  .... 3374
   RIJ-COSX (HFX calculated with COS-X)).... on


General Settings:
 Integral files         IntName         .... xtbopt
 Hartree-Fock type      HFTyp           .... RHF
 Total Charge           Charge          ....    0
 Multiplicity           Mult            ....    1
 Number of Electrons    NEL             ....  544
 Basis Dimension        Dim             .... 1049
 Nuclear Repulsion      ENuc            ....  11405.5323945534 Eh

Convergence Acceleration:
 DIIS                   CNVDIIS         .... on
   Start iteration      DIISMaxIt       ....    12
   Startup error        DIISStart       ....  0.200000
   # of expansion vecs  DIISMaxEq       ....     5
   Bias factor          DIISBfac        ....   1.050
   Max. coefficient     DIISMaxC        ....  10.000
 Newton-Raphson         CNVNR           .... off
 SOSCF                  CNVSOSCF        .... on
   Start iteration      SOSCFMaxIt      ....   150
   Startup grad/error   SOSCFStart      ....  0.003300
 Level Shifting         CNVShift        .... on
   Level shift para.    LevelShift      ....    0.2500
   Turn off err/grad.   ShiftErr        ....    0.0010
 Zerner damping         CNVZerner       .... off
 Static damping         CNVDamp         .... on
   Fraction old density DampFac         ....    0.7000
   Max. Damping (<1)    DampMax         ....    0.9800
   Min. Damping (>=0)   DampMin         ....    0.0000
   Turn off err/grad.   DampErr         ....    0.1000
 Fernandez-Rico         CNVRico         .... off

SCF Procedure:
 Maximum # iterations   MaxIter         ....   125
 SCF integral mode      SCFMode         .... Direct
   Integral package                     .... LIBINT
 Reset frequency        DirectResetFreq ....    20
 Integral Threshold     Thresh          ....  2.500e-11 Eh
 Primitive CutOff       TCut            ....  2.500e-12 Eh

Convergence Tolerance:
 Convergence Check Mode ConvCheckMode   .... Total+1el-Energy
 Convergence forced     ConvForced      .... 1
 Energy Change          TolE            ....  1.000e-08 Eh
 1-El. energy change                    ....  1.000e-05 Eh
 Orbital Gradient       TolG            ....  1.000e-05
 Orbital Rotation angle TolX            ....  1.000e-05
 DIIS Error             TolErr          ....  5.000e-07


Diagonalization of the overlap matrix:
Smallest eigenvalue                        ... 2.002e-04
Time for diagonalization                   ...    0.158 sec
Threshold for overlap eigenvalues          ... 1.000e-08
Number of eigenvalues below threshold      ... 0
Time for construction of square roots      ...    0.124 sec
Total time needed                          ...    0.284 sec

-------------------
DFT GRID GENERATION
-------------------

General Integration Accuracy     IntAcc      ...  4.670
Radial Grid Type                 RadialGrid  ... Gauss-Chebyshev
Angular Grid (max. acc.)         AngularGrid ... Lebedev-302
Angular grid pruning method      GridPruning ... 3 (G Style)
Weight generation scheme         WeightScheme... Becke
Basis function cutoff            BFCut       ...    1.0000e-11
Integration weight cutoff        WCut        ...    1.0000e-14
Grids for H and He will be reduced by one unit

# of grid points (after initial pruning)     ... 471798 (   0.0 sec)
# of grid points (after weights+screening)   ... 411242 (   3.4 sec)
nearest neighbour list constructed           ...    0.0 sec
Grid point re-assignment to atoms done       ...    0.1 sec
Grid point division into batches done        ...    1.3 sec
Reduced shell lists constructed in    2.2 sec

Total number of grid points                  ...   411242
Total number of batches                      ...     6470
Average number of points per batch           ...       63
Average number of grid points per atom       ...     4955
Average number of shells per batch           ...    78.21 (16.75%)
Average number of basis functions per batch  ...   171.01 (16.30%)
Average number of large shells per batch     ...    50.74 (64.88%)
Average number of large basis fcns per batch ...   111.92 (65.45%)
Maximum spatial batch extension              ...  18.91, 18.87, 18.57 au
Average spatial batch extension              ...   0.40,  0.37,  0.37 au

Time for grid setup =    5.863 sec

------------------------------
INITIAL GUESS: MODEL POTENTIAL
------------------------------
Loading Hartree-Fock densities                     ... done
Calculating cut-offs                               ... done
Setting up the integral package                    ... done
Initializing the effective Hamiltonian             ... done
Starting the Coulomb interaction                   ... done (   0.9 sec)
Reading the grid                                   ... done
Mapping shells                                     ... done
Starting the XC term evaluation                    ... done (   1.0 sec)
  promolecular density results
     # of electrons  =    543.990558514
     EX              =   -633.127267507
     EC              =    -19.911732940
     EX+EC           =   -653.039000447
Transforming the Hamiltonian                       ... done (   0.1 sec)
Diagonalizing the Hamiltonian                      ... done (   0.2 sec)
Back transforming the eigenvectors                 ... done (   0.0 sec)
Now organizing SCF variables                       ... done
                      ------------------
                      INITIAL GUESS DONE (   8.2 sec)
                      ------------------
--------------------
COSX GRID GENERATION
--------------------

General Integration Accuracy     IntAcc      ...  3.340
Radial Grid Type                 RadialGrid  ... Gauss-Chebyshev
Angular Grid (max. acc.)         AngularGrid ... Lebedev-50
Angular grid pruning method      GridPruning ... 3 (G Style)
Weight generation scheme         WeightScheme... Becke
Basis function cutoff            BFCut       ...    1.0000e-11
Integration weight cutoff        WCut        ...    1.0000e-14
Grids for H and He will be reduced by one unit

# of grid points (after initial pruning)     ...  44866 (   0.0 sec)
# of grid points (after weights+screening)   ...  40764 (   0.3 sec)
nearest neighbour list constructed           ...    0.0 sec
Grid point re-assignment to atoms done       ...    0.0 sec
Grid point division into batches done        ...    0.0 sec
Reduced shell lists constructed in    0.1 sec

Total number of grid points                  ...    40764
Total number of batches                      ...      681
Average number of points per batch           ...       59
Average number of grid points per atom       ...      491
Average number of shells per batch           ...    94.35 (20.20%)
Average number of basis functions per batch  ...   208.37 (19.86%)
Average number of large shells per batch     ...    61.12 (64.78%)
Average number of large basis fcns per batch ...   136.98 (65.74%)
Maximum spatial batch extension              ...  24.17, 15.07, 16.23 au
Average spatial batch extension              ...   0.99,  0.82,  0.75 au

Overlap Fitting                  UseSFitting ... on
Constructing numerical overlap ... done (      0.1 sec)
Inverting numerical overlap    ... done (      0.0 sec)
Obtaining analytic overlap     ... done (      0.0 sec)
Final contraction and storage  ... done (      0.1 sec)


General Integration Accuracy     IntAcc      ...  3.670
Radial Grid Type                 RadialGrid  ... Gauss-Chebyshev
Angular Grid (max. acc.)         AngularGrid ... Lebedev-50
Angular grid pruning method      GridPruning ... 3 (G Style)
Weight generation scheme         WeightScheme... Becke
Basis function cutoff            BFCut       ...    1.0000e-11
Integration weight cutoff        WCut        ...    1.0000e-14
Grids for H and He will be reduced by one unit

# of grid points (after initial pruning)     ...  55704 (   0.0 sec)
# of grid points (after weights+screening)   ...  50438 (   0.4 sec)
nearest neighbour list constructed           ...    0.0 sec
Grid point re-assignment to atoms done       ...    0.0 sec
Grid point division into batches done        ...    0.0 sec
Reduced shell lists constructed in    0.1 sec

Total number of grid points                  ...    50438
Total number of batches                      ...      833
Average number of points per batch           ...       60
Average number of grid points per atom       ...      608
Average number of shells per batch           ...    93.44 (20.01%)
Average number of basis functions per batch  ...   206.17 (19.65%)
Average number of large shells per batch     ...    60.49 (64.73%)
Average number of large basis fcns per batch ...   135.33 (65.64%)
Maximum spatial batch extension              ...  29.07, 16.21, 17.03 au
Average spatial batch extension              ...   0.89,  0.74,  0.69 au

Overlap Fitting                  UseSFitting ... on
Constructing numerical overlap ... done (      0.1 sec)
Inverting numerical overlap    ... done (      0.0 sec)
Obtaining analytic overlap     ... done (      0.0 sec)
Final contraction and storage  ... done (      0.1 sec)


General Integration Accuracy     IntAcc      ...  4.010
Radial Grid Type                 RadialGrid  ... Gauss-Chebyshev
Angular Grid (max. acc.)         AngularGrid ... Lebedev-110
Angular grid pruning method      GridPruning ... 3 (G Style)
Weight generation scheme         WeightScheme... Becke
Basis function cutoff            BFCut       ...    1.0000e-11
Integration weight cutoff        WCut        ...    1.0000e-14
Grids for H and He will be reduced by one unit

# of grid points (after initial pruning)     ... 109214 (   0.0 sec)
# of grid points (after weights+screening)   ...  97827 (   0.8 sec)
nearest neighbour list constructed           ...    0.0 sec
Grid point re-assignment to atoms done       ...    0.0 sec
Grid point division into batches done        ...    0.1 sec
Reduced shell lists constructed in    0.3 sec

Total number of grid points                  ...    97827
Total number of batches                      ...     1573
Average number of points per batch           ...       62
Average number of grid points per atom       ...     1179
Average number of shells per batch           ...    87.78 (18.80%)
Average number of basis functions per batch  ...   193.36 (18.43%)
Average number of large shells per batch     ...    57.20 (65.16%)
Average number of large basis fcns per batch ...   127.23 (65.80%)
Maximum spatial batch extension              ...  17.13, 20.83, 21.06 au
Average spatial batch extension              ...   0.71,  0.63,  0.59 au

Overlap Fitting                  UseSFitting ... on
Constructing numerical overlap ... done (      0.1 sec)
Inverting numerical overlap    ... done (      0.0 sec)
Obtaining analytic overlap     ... done (      0.0 sec)
Final contraction and storage  ... done (      0.1 sec)

Time for X-Grid setup             =    2.879 sec
--------------
SCF ITERATIONS
--------------
ITER       Energy         Delta-E        Max-DP      RMS-DP      [F,P]     Damp
               ***  Starting incremental Fock matrix formation  ***
  0  -8796.5649148762   0.000000000000 0.08734470  0.00100264  0.2424386 0.7000
  1  -8797.1122678462  -0.547352969945 0.04853596  0.00068941  0.0952620 0.7000
                               ***Turning on DIIS***
  2  -8797.3394515702  -0.227183724041 0.07133367  0.00123024  0.0357230 0.0000
  3  -8797.7097926045  -0.370341034311 0.04696327  0.00053869  0.0531302 0.0000
  4  -8797.7873677711  -0.077575166564 0.01525989  0.00017477  0.0179344 0.0000
  5  -8797.7937744047  -0.006406633596 0.00812889  0.00008653  0.0096235 0.0000
  6  -8797.7957850403  -0.002010635641 0.00337035  0.00005509  0.0017089 0.0000
  7  -8797.7967694140  -0.000984373679 0.00360797  0.00009889  0.0008018 0.0000
               *** Restarting incremental Fock matrix formation ***
                                   *** Resetting DIIS ***
                      *** Initiating the SOSCF procedure ***
                           *** Shutting down DIIS ***
                      *** Re-Reading the Fockian *** 
                      *** Removing any level shift *** 
ITER      Energy       Delta-E        Grad      Rot      Max-DP    RMS-DP
  8  -8797.79791567  -0.0011462516  0.001301  0.001301  0.002190  0.000024
               *** Restarting incremental Fock matrix formation ***
  9  -8797.79803710  -0.0001214372  0.001091  0.009405  0.002307  0.000035
 10  -8797.79815436  -0.0001172597  0.000801  0.010654  0.001770  0.000041
 11  -8797.79826628  -0.0001119131  0.000315  0.001769  0.000936  0.000010
 12  -8797.79826805  -0.0000017721  0.000260  0.000975  0.000458  0.000005
 13  -8797.79827499  -0.0000069455  0.000058  0.000333  0.000241  0.000003
 14  -8797.79827511  -0.0000001160  0.000074  0.000290  0.000111  0.000001
 15  -8797.79827558  -0.0000004752  0.000021  0.000084  0.000092  0.000001
 16  -8797.79827563  -0.0000000416  0.000020  0.000060  0.000052  0.000000
 17  -8797.79827566  -0.0000000346  0.000005  0.000063  0.000017  0.000000
                  ***Gradient check signals convergence***
              ***Rediagonalizing the Fockian in SOSCF/NRSCF***

               *****************************************************
               *                     SUCCESS                       *
               *           SCF CONVERGED AFTER  18 CYCLES          *
               *****************************************************

Setting up the final grid:

General Integration Accuracy     IntAcc      ...  5.010
Radial Grid Type                 RadialGrid  ... Gauss-Chebyshev
Angular Grid (max. acc.)         AngularGrid ... Lebedev-434
Angular grid pruning method      GridPruning ... 3 (G Style)
Weight generation scheme         WeightScheme... Becke
Basis function cutoff            BFCut       ...    1.0000e-11
Integration weight cutoff        WCut        ...    1.0000e-14
Grids for H and He will be reduced by one unit

# of grid points (after initial pruning)     ... 827660 (   0.0 sec)
# of grid points (after weights+screening)   ... 719266 (   5.9 sec)
nearest neighbour list constructed           ...    0.0 sec
Grid point re-assignment to atoms done       ...    0.1 sec
Grid point division into batches done        ...    4.3 sec
Reduced shell lists constructed in    5.8 sec

Total number of grid points                  ...   719266
Total number of batches                      ...    11281
Average number of points per batch           ...       63
Average number of grid points per atom       ...     8666
Average number of shells per batch           ...    75.49 (16.17%)
Average number of basis functions per batch  ...   164.79 (15.71%)
Average number of large shells per batch     ...    49.02 (64.93%)
Average number of large basis fcns per batch ...   108.03 (65.56%)
Maximum spatial batch extension              ...  21.90, 21.20, 17.14 au
Average spatial batch extension              ...   0.32,  0.31,  0.30 au

Final grid set up in   12.1 sec
Final integration                            ... done (   2.1 sec)
Change in XC energy                          ...    -0.000249278
Integrated number of electrons               ...   543.999935884
Previous integrated no of electrons          ...   543.999841649
Old exchange energy                            =   -164.434068003 Eh
New exchange energy                            =   -164.430092895 Eh
Exchange energy change after final integration =      0.003975108 Eh
Total energy after final integration           =  -8797.794549871 Eh
Final COS-X integration done in                =    42.278 sec

----------------
TOTAL SCF ENERGY
----------------

Total Energy       :        -8797.79454987 Eh         -239400.16057 eV

Components:
Nuclear Repulsion  :        11405.53239455 Eh          310360.31487 eV
Electronic Energy  :       -20203.32694442 Eh         -549760.47544 eV
One Electron Energy:       -34865.70062972 Eh         -948743.94734 eV
Two Electron Energy:        14662.37368529 Eh          398983.47190 eV

Virial components:
Potential Energy   :       -17563.12652043 Eh         -477916.96945 eV
Kinetic Energy     :         8765.33197056 Eh          238516.80888 eV
Virial Ratio       :            2.00370352


DFT components:
N(Alpha)           :      271.999967941753 electrons
N(Beta)            :      271.999967941753 electrons
N(Total)           :      543.999935883505 electrons
E(XC)              :     -496.220906217488 Eh       
DFET-embed. en.    :        0.000000000000 Eh       

---------------
SCF CONVERGENCE
---------------

  Last Energy change         ...   -3.9328e-08  Tolerance :   1.0000e-08
  Last MAX-Density change    ...    4.8850e-15  Tolerance :   1.0000e-07
  Last RMS-Density change    ...    3.8149e-17  Tolerance :   5.0000e-09
  Last Orbital Gradient      ...    2.0509e-06  Tolerance :   1.0000e-05
  Last Orbital Rotation      ...    1.2667e-05  Tolerance :   1.0000e-05

             **** THE GBW FILE WAS UPDATED (xtbopt.gbw) ****
             **** DENSITY FILE WAS UPDATED (xtbopt.scfp) ****
             **** ENERGY FILE WAS UPDATED (xtbopt.en.tmp) ****
             **** THE GBW FILE WAS UPDATED (xtbopt.gbw) ****
             **** DENSITY FILE WAS UPDATED (xtbopt.scfp) ****
----------------
ORBITAL ENERGIES
----------------

  NO   OCC          E(Eh)            E(eV) 
   0   2.0000    -482.879660    -13139.8236 
   1   2.0000     -88.983303     -2421.3588 
   2   2.0000     -88.968174     -2420.9471 
   3   2.0000     -88.967756     -2420.9357 
   4   2.0000     -88.967565     -2420.9305 
   5   2.0000     -88.965168     -2420.8653 
   6   2.0000     -88.962498     -2420.7926 
   7   2.0000     -88.959325     -2420.7063 
   8   2.0000     -88.952911     -2420.5318 
   9   2.0000     -88.947158     -2420.3752 
  10   2.0000     -88.945076     -2420.3186 
  11   2.0000     -62.557359     -1702.2723 
  12   2.0000     -56.391301     -1534.4853 
  13   2.0000     -56.388603     -1534.4119 
  14   2.0000     -56.388565     -1534.4109 
  15   2.0000     -19.283562      -524.7324 
  16   2.0000     -19.249193      -523.7972 
  17   2.0000     -19.234736      -523.4038 
  18   2.0000     -19.210795      -522.7523 
  19   2.0000     -14.488728      -394.2583 
  20   2.0000     -14.439387      -392.9157 
  21   2.0000     -14.403822      -391.9479 
  22   2.0000     -14.402771      -391.9193 
  23   2.0000     -10.407864      -283.2124 
  24   2.0000     -10.398602      -282.9603 
  25   2.0000     -10.360093      -281.9125 
  26   2.0000     -10.358505      -281.8693 
  27   2.0000     -10.351659      -281.6830 
  28   2.0000     -10.339087      -281.3409 
  29   2.0000     -10.329685      -281.0850 
  30   2.0000     -10.328903      -281.0637 
  31   2.0000     -10.328010      -281.0395 
  32   2.0000     -10.326579      -281.0005 
  33   2.0000     -10.322994      -280.9029 
  34   2.0000     -10.321769      -280.8696 
  35   2.0000     -10.319002      -280.7943 
  36   2.0000     -10.318095      -280.7697 
  37   2.0000     -10.317158      -280.7441 
  38   2.0000     -10.316461      -280.7252 
  39   2.0000     -10.316303      -280.7209 
  40   2.0000     -10.314871      -280.6819 
  41   2.0000     -10.311896      -280.6009 
  42   2.0000     -10.311158      -280.5809 
  43   2.0000     -10.310317      -280.5580 
  44   2.0000     -10.309855      -280.5454 
  45   2.0000     -10.307945      -280.4934 
  46   2.0000     -10.307368      -280.4778 
  47   2.0000     -10.306992      -280.4675 
  48   2.0000     -10.306850      -280.4636 
  49   2.0000     -10.306630      -280.4577 
  50   2.0000     -10.300234      -280.2836 
  51   2.0000     -10.299822      -280.2724 
  52   2.0000     -10.299126      -280.2535 
  53   2.0000     -10.298432      -280.2346 
  54   2.0000     -10.297008      -280.1958 
  55   2.0000     -10.296145      -280.1724 
  56   2.0000     -10.292718      -280.0791 
  57   2.0000     -10.292284      -280.0673 
  58   2.0000     -10.290716      -280.0246 
  59   2.0000     -10.289849      -280.0010 
  60   2.0000     -10.289656      -279.9958 
  61   2.0000     -10.284481      -279.8550 
  62   2.0000     -10.283478      -279.8277 
  63   2.0000     -10.282878      -279.8113 
  64   2.0000     -10.282753      -279.8079 
  65   2.0000     -10.281063      -279.7619 
  66   2.0000     -10.279771      -279.7268 
  67   2.0000     -10.271626      -279.5051 
  68   2.0000      -8.786775      -239.1003 
  69   2.0000      -8.075263      -219.7391 
  70   2.0000      -8.064403      -219.4436 
  71   2.0000      -8.064149      -219.4366 
  72   2.0000      -8.062085      -219.3805 
  73   2.0000      -8.060752      -219.3442 
  74   2.0000      -8.058722      -219.2890 
  75   2.0000      -8.052506      -219.1198 
  76   2.0000      -8.049238      -219.0309 
  77   2.0000      -8.043503      -218.8748 
  78   2.0000      -8.040419      -218.7909 
  79   2.0000      -6.623035      -180.2220 
  80   2.0000      -6.608527      -179.8272 
  81   2.0000      -6.608341      -179.8221 
  82   2.0000      -6.049335      -164.6108 
  83   2.0000      -6.041566      -164.3994 
  84   2.0000      -6.034197      -164.1988 
  85   2.0000      -6.033838      -164.1891 
  86   2.0000      -6.031437      -164.1237 
  87   2.0000      -6.031409      -164.1230 
  88   2.0000      -6.030131      -164.0882 
  89   2.0000      -6.029952      -164.0833 
  90   2.0000      -6.029563      -164.0728 
  91   2.0000      -6.028523      -164.0445 
  92   2.0000      -6.027045      -164.0042 
  93   2.0000      -6.026313      -163.9843 
  94   2.0000      -6.025383      -163.9590 
  95   2.0000      -6.025073      -163.9506 
  96   2.0000      -6.024358      -163.9311 
  97   2.0000      -6.024069      -163.9232 
  98   2.0000      -6.022285      -163.8747 
  99   2.0000      -6.022038      -163.8680 
 100   2.0000      -6.019556      -163.8005 
 101   2.0000      -6.018954      -163.7841 
 102   2.0000      -6.017781      -163.7521 
 103   2.0000      -6.014757      -163.6699 
 104   2.0000      -6.014195      -163.6546 
 105   2.0000      -6.013138      -163.6258 
 106   2.0000      -6.010890      -163.5646 
 107   2.0000      -6.010241      -163.5470 
 108   2.0000      -6.008954      -163.5120 
 109   2.0000      -6.006996      -163.4587 
 110   2.0000      -6.004611      -163.3938 
 111   2.0000      -5.999750      -163.2615 
 112   2.0000      -2.738926       -74.5300 
 113   2.0000      -2.734827       -74.4184 
 114   2.0000      -2.734706       -74.4151 
 115   2.0000      -2.723165       -74.1011 
 116   2.0000      -2.723154       -74.1008 
 117   2.0000      -1.182036       -32.1648 
 118   2.0000      -1.178559       -32.0702 
 119   2.0000      -1.147942       -31.2371 
 120   2.0000      -1.144564       -31.1452 
 121   2.0000      -1.125880       -30.6368 
 122   2.0000      -1.014138       -27.5961 
 123   2.0000      -1.013748       -27.5855 
 124   2.0000      -1.003556       -27.3081 
 125   2.0000      -1.003019       -27.2935 
 126   2.0000      -0.996160       -27.1069 
 127   2.0000      -0.989334       -26.9212 
 128   2.0000      -0.982128       -26.7251 
 129   2.0000      -0.979696       -26.6589 
 130   2.0000      -0.976268       -26.5656 
 131   2.0000      -0.939930       -25.5768 
 132   2.0000      -0.932946       -25.3867 
 133   2.0000      -0.931204       -25.3393 
 134   2.0000      -0.928123       -25.2555 
 135   2.0000      -0.924847       -25.1664 
 136   2.0000      -0.901756       -24.5380 
 137   2.0000      -0.899631       -24.4802 
 138   2.0000      -0.897846       -24.4316 
 139   2.0000      -0.886707       -24.1285 
 140   2.0000      -0.880776       -23.9671 
 141   2.0000      -0.877210       -23.8701 
 142   2.0000      -0.870415       -23.6852 
 143   2.0000      -0.869012       -23.6470 
 144   2.0000      -0.858814       -23.3695 
 145   2.0000      -0.854170       -23.2431 
 146   2.0000      -0.845813       -23.0158 
 147   2.0000      -0.832291       -22.6478 
 148   2.0000      -0.826991       -22.5036 
 149   2.0000      -0.825837       -22.4722 
 150   2.0000      -0.820932       -22.3387 
 151   2.0000      -0.813128       -22.1263 
 152   2.0000      -0.796264       -21.6675 
 153   2.0000      -0.780556       -21.2400 
 154   2.0000      -0.775682       -21.1074 
 155   2.0000      -0.763762       -20.7830 
 156   2.0000      -0.750933       -20.4339 
 157   2.0000      -0.749717       -20.4008 
 158   2.0000      -0.745033       -20.2734 
 159   2.0000      -0.728522       -19.8241 
 160   2.0000      -0.718105       -19.5406 
 161   2.0000      -0.707821       -19.2608 
 162   2.0000      -0.703500       -19.1432 
 163   2.0000      -0.701310       -19.0836 
 164   2.0000      -0.691451       -18.8153 
 165   2.0000      -0.685160       -18.6442 
 166   2.0000      -0.681213       -18.5368 
 167   2.0000      -0.672634       -18.3033 
 168   2.0000      -0.667454       -18.1623 
 169   2.0000      -0.652554       -17.7569 
 170   2.0000      -0.648279       -17.6406 
 171   2.0000      -0.645347       -17.5608 
 172   2.0000      -0.634307       -17.2604 
 173   2.0000      -0.633830       -17.2474 
 174   2.0000      -0.625371       -17.0172 
 175   2.0000      -0.621738       -16.9183 
 176   2.0000      -0.617054       -16.7909 
 177   2.0000      -0.614247       -16.7145 
 178   2.0000      -0.613255       -16.6875 
 179   2.0000      -0.608788       -16.5660 
 180   2.0000      -0.600844       -16.3498 
 181   2.0000      -0.595922       -16.2159 
 182   2.0000      -0.590887       -16.0788 
 183   2.0000      -0.588370       -16.0104 
 184   2.0000      -0.580856       -15.8059 
 185   2.0000      -0.568463       -15.4687 
 186   2.0000      -0.563199       -15.3254 
 187   2.0000      -0.559794       -15.2328 
 188   2.0000      -0.554785       -15.0965 
 189   2.0000      -0.553857       -15.0712 
 190   2.0000      -0.549646       -14.9566 
 191   2.0000      -0.549270       -14.9464 
 192   2.0000      -0.544223       -14.8091 
 193   2.0000      -0.540085       -14.6965 
 194   2.0000      -0.539241       -14.6735 
 195   2.0000      -0.534939       -14.5564 
 196   2.0000      -0.533763       -14.5244 
 197   2.0000      -0.532378       -14.4868 
 198   2.0000      -0.530168       -14.4266 
 199   2.0000      -0.526943       -14.3388 
 200   2.0000      -0.525083       -14.2882 
 201   2.0000      -0.520452       -14.1622 
 202   2.0000      -0.518517       -14.1096 
 203   2.0000      -0.512462       -13.9448 
 204   2.0000      -0.508127       -13.8268 
 205   2.0000      -0.507132       -13.7998 
 206   2.0000      -0.504055       -13.7160 
 207   2.0000      -0.502479       -13.6731 
 208   2.0000      -0.500917       -13.6307 
 209   2.0000      -0.497703       -13.5432 
 210   2.0000      -0.495007       -13.4698 
 211   2.0000      -0.488668       -13.2973 
 212   2.0000      -0.487482       -13.2651 
 213   2.0000      -0.485953       -13.2234 
 214   2.0000      -0.483235       -13.1495 
 215   2.0000      -0.478548       -13.0220 
 216   2.0000      -0.477842       -13.0028 
 217   2.0000      -0.476183       -12.9576 
 218   2.0000      -0.471606       -12.8331 
 219   2.0000      -0.470189       -12.7945 
 220   2.0000      -0.467891       -12.7320 
 221   2.0000      -0.466033       -12.6814 
 222   2.0000      -0.461684       -12.5630 
 223   2.0000      -0.459028       -12.4908 
 224   2.0000      -0.457751       -12.4560 
 225   2.0000      -0.450679       -12.2636 
 226   2.0000      -0.449392       -12.2286 
 227   2.0000      -0.448819       -12.2130 
 228   2.0000      -0.441109       -12.0032 
 229   2.0000      -0.439281       -11.9534 
 230   2.0000      -0.437904       -11.9160 
 231   2.0000      -0.437294       -11.8994 
 232   2.0000      -0.435126       -11.8404 
 233   2.0000      -0.432782       -11.7766 
 234   2.0000      -0.430530       -11.7153 
 235   2.0000      -0.427561       -11.6345 
 236   2.0000      -0.422940       -11.5088 
 237   2.0000      -0.422022       -11.4838 
 238   2.0000      -0.418074       -11.3764 
 239   2.0000      -0.416016       -11.3204 
 240   2.0000      -0.414964       -11.2917 
 241   2.0000      -0.409495       -11.1429 
 242   2.0000      -0.403129       -10.9697 
 243   2.0000      -0.400261       -10.8917 
 244   2.0000      -0.399331       -10.8663 
 245   2.0000      -0.396482       -10.7888 
 246   2.0000      -0.394400       -10.7322 
 247   2.0000      -0.392727       -10.6866 
 248   2.0000      -0.384824       -10.4716 
 249   2.0000      -0.378375       -10.2961 
 250   2.0000      -0.374918       -10.2020 
 251   2.0000      -0.369120       -10.0443 
 252   2.0000      -0.365033        -9.9330 
 253   2.0000      -0.360649        -9.8138 
 254   2.0000      -0.359728        -9.7887 
 255   2.0000      -0.347715        -9.4618 
 256   2.0000      -0.346467        -9.4278 
 257   2.0000      -0.340269        -9.2592 
 258   2.0000      -0.337790        -9.1917 
 259   2.0000      -0.329034        -8.9535 
 260   2.0000      -0.325421        -8.8552 
 261   2.0000      -0.321043        -8.7360 
 262   2.0000      -0.318961        -8.6794 
 263   2.0000      -0.314239        -8.5509 
 264   2.0000      -0.308113        -8.3842 
 265   2.0000      -0.300920        -8.1885 
 266   2.0000      -0.291284        -7.9262 
 267   2.0000      -0.285996        -7.7824 
 268   2.0000      -0.281803        -7.6683 
 269   2.0000      -0.271215        -7.3801 
 270   2.0000      -0.244254        -6.6465 
 271   2.0000      -0.206501        -5.6192 
 272   0.0000      -0.101092        -2.7508 
 273   0.0000      -0.082342        -2.2406 
 274   0.0000      -0.057434        -1.5629 
 275   0.0000      -0.052927        -1.4402 
 276   0.0000      -0.037577        -1.0225 
 277   0.0000      -0.023068        -0.6277 
 278   0.0000      -0.000066        -0.0018 
 279   0.0000       0.009723         0.2646 
 280   0.0000       0.017671         0.4809 
 281   0.0000       0.023450         0.6381 
 282   0.0000       0.032281         0.8784 
 283   0.0000       0.037513         1.0208 
 284   0.0000       0.043334         1.1792 
 285   0.0000       0.043956         1.1961 
 286   0.0000       0.049318         1.3420 
 287   0.0000       0.050169         1.3652 
 288   0.0000       0.054037         1.4704 
 289   0.0000       0.057989         1.5780 
 290   0.0000       0.063671         1.7326 
 291   0.0000       0.066899         1.8204 
 292   0.0000       0.068535         1.8649 
 293   0.0000       0.074958         2.0397 
 294   0.0000       0.078182         2.1274 
 295   0.0000       0.085085         2.3153 
 296   0.0000       0.089480         2.4349 
 297   0.0000       0.090670         2.4672 
 298   0.0000       0.095212         2.5908 
 299   0.0000       0.098178         2.6715 
 300   0.0000       0.100455         2.7335 
 301   0.0000       0.106394         2.8951 
 302   0.0000       0.109956         2.9921 
 303   0.0000       0.110213         2.9991 
 304   0.0000       0.111923         3.0456 
 305   0.0000       0.115278         3.1369 
 306   0.0000       0.118100         3.2137 
 307   0.0000       0.120546         3.2802 
 308   0.0000       0.123143         3.3509 
 309   0.0000       0.125508         3.4153 
 310   0.0000       0.126633         3.4459 
 311   0.0000       0.128447         3.4952 
 312   0.0000       0.130713         3.5569 
 313   0.0000       0.134898         3.6708 
 314   0.0000       0.136683         3.7193 
 315   0.0000       0.141066         3.8386 
 316   0.0000       0.144379         3.9288 
 317   0.0000       0.147494         4.0135 
 318   0.0000       0.151674         4.1273 
 319   0.0000       0.153237         4.1698 
 320   0.0000       0.156911         4.2698 
 321   0.0000       0.159902         4.3512 
 322   0.0000       0.163465         4.4481 
 323   0.0000       0.166555         4.5322 
 324   0.0000       0.167924         4.5694 
 325   0.0000       0.168271         4.5789 
 326   0.0000       0.177171         4.8211 
 327   0.0000       0.180627         4.9151 
 328   0.0000       0.186672         5.0796 
 329   0.0000       0.193548         5.2667 
 330   0.0000       0.197142         5.3645 
 331   0.0000       0.200748         5.4626 
 332   0.0000       0.205690         5.5971 
 333   0.0000       0.208040         5.6611 
 334   0.0000       0.215415         5.8617 
 335   0.0000       0.216188         5.8828 
 336   0.0000       0.224133         6.0990 
 337   0.0000       0.231578         6.3016 
 338   0.0000       0.234125         6.3709 
 339   0.0000       0.235364         6.4046 
 340   0.0000       0.237611         6.4657 
 341   0.0000       0.246269         6.7013 
 342   0.0000       0.247832         6.7438 
 343   0.0000       0.251301         6.8382 
 344   0.0000       0.256108         6.9691 
 345   0.0000       0.256656         6.9840 
 346   0.0000       0.260514         7.0889 
 347   0.0000       0.264392         7.1945 
 348   0.0000       0.277711         7.5569 
 349   0.0000       0.281535         7.6610 
 350   0.0000       0.287676         7.8281 
 351   0.0000       0.292956         7.9717 
 352   0.0000       0.295771         8.0483 
 353   0.0000       0.300012         8.1637 
 354   0.0000       0.303692         8.2639 
 355   0.0000       0.306710         8.3460 
 356   0.0000       0.307864         8.3774 
 357   0.0000       0.310526         8.4498 
 358   0.0000       0.312066         8.4918 
 359   0.0000       0.315503         8.5853 
 360   0.0000       0.320228         8.7139 
 361   0.0000       0.325745         8.8640 
 362   0.0000       0.331199         9.0124 
 363   0.0000       0.333679         9.0799 
 364   0.0000       0.338498         9.2110 
 365   0.0000       0.338755         9.2180 
 366   0.0000       0.341730         9.2990 
 367   0.0000       0.342916         9.3312 
 368   0.0000       0.347170         9.4470 
 369   0.0000       0.349376         9.5070 
 370   0.0000       0.353413         9.6169 
 371   0.0000       0.355871         9.6837 
 372   0.0000       0.358014         9.7421 
 373   0.0000       0.359126         9.7723 
 374   0.0000       0.361245         9.8300 
 375   0.0000       0.364584         9.9208 
 376   0.0000       0.368913        10.0386 
 377   0.0000       0.373506        10.1636 
 378   0.0000       0.375076        10.2063 
 379   0.0000       0.379104        10.3159 
 380   0.0000       0.383701        10.4410 
 381   0.0000       0.384916        10.4741 
 382   0.0000       0.390809        10.6345 
 383   0.0000       0.393162        10.6985 
 384   0.0000       0.399060        10.8590 
 385   0.0000       0.400038        10.8856 
 386   0.0000       0.400464        10.8972 
 387   0.0000       0.401548        10.9267 
 388   0.0000       0.402659        10.9569 
 389   0.0000       0.405732        11.0405 
 390   0.0000       0.410614        11.1734 
 391   0.0000       0.412815        11.2333 
 392   0.0000       0.414188        11.2706 
 393   0.0000       0.416041        11.3210 
 394   0.0000       0.420276        11.4363 
 395   0.0000       0.423185        11.5154 
 396   0.0000       0.428934        11.6719 
 397   0.0000       0.432038        11.7564 
 398   0.0000       0.436888        11.8883 
 399   0.0000       0.440561        11.9883 
 400   0.0000       0.442236        12.0338 
 401   0.0000       0.446352        12.1459 
 402   0.0000       0.448184        12.1957 
 403   0.0000       0.453482        12.3399 
 404   0.0000       0.453675        12.3451 
 405   0.0000       0.456878        12.4323 
 406   0.0000       0.461878        12.5683 
[...]
  34   4.320     287.0   0.011822   0.011745  -2.148646  -0.236396     0.27 (  82->  88)    0.18 (  82->  87)    0.12 (  86->  93)
  35   4.346     285.3   0.006783   0.005112  -9.853154  -10.257482     0.26 (  86->  93)    0.12 (  86->  94)    0.07 (  82->  88)
  36   4.389     282.5   0.013520   0.012002  -2.734838  -2.080177     0.51 (  73->  87)    0.09 (  80->  88)    0.05 (  73->  88)
  37   4.407     281.4   0.145238   0.134360   5.908538  -4.869609     0.27 (  86->  98)    0.12 (  72->  87)    0.07 (  80->  88)
  38   4.451     278.5   0.011399   0.009336  24.795718  20.296842     0.14 (  84->  89)    0.12 (  84->  90)    0.11 (  86->  98)
  39   4.492     276.0   0.030705   0.020800  35.923127  23.943325     0.19 (  86-> 100)    0.11 (  86->  98)    0.09 (  74->  87)
  40   4.518     274.4   0.028358   0.025398  -15.819262  -17.132484     0.49 (  86-> 100)    0.06 (  74->  87)    0.05 (  86->  97)
  41   4.567     271.5   0.084205   0.079391  -75.358571  -78.325395     0.16 (  71->  87)    0.14 (  74->  87)    0.08 (  72->  87)
  42   4.596     269.7   0.020892   0.015674   3.417841   3.271784     0.29 (  80->  90)    0.16 (  80->  89)    0.09 (  86->  95)
  43   4.606     269.2   0.000870   0.000991   7.794085   7.276156     0.32 (  86->  95)    0.16 (  85->  95)    0.09 (  80->  90)
  44   4.654     266.4   0.142363   0.110325  -21.909451  -18.342792     0.20 (  83->  89)    0.17 (  83->  90)    0.08 (  83->  91)
  45   4.693     264.2   0.034562   0.032248  25.032886  22.300470     0.16 (  84->  91)    0.09 (  83->  89)    0.08 (  83->  90)
  46   4.716     262.9   0.039807   0.032297  -6.726182  -6.941431     0.18 (  78->  88)    0.12 (  76->  88)    0.09 (  78->  89)
  47   4.729     262.2   0.058394   0.045900  -0.239270   5.876979     0.20 (  84->  91)    0.09 (  79->  89)    0.09 (  79->  88)
  48   4.812     257.6   0.070100   0.058322  44.587112  29.473659     0.25 (  86-> 101)    0.20 (  70->  87)    0.08 (  86-> 104)
  49   4.822     257.1   0.060332   0.043503  14.824618  19.360278     0.21 (  83->  91)    0.20 (  83->  90)    0.10 (  83->  92)
  50   4.831     256.7   0.060042   0.054347  -12.356400  -11.405451     0.21 (  70->  87)    0.11 (  86-> 101)    0.10 (  84->  91)
  51   4.885     253.8   0.051734   0.043592  -51.985896  -51.780205     0.23 (  78->  90)    0.14 (  76->  88)    0.13 (  78->  89)
  52   4.914     252.3   0.147014   0.122296  -2.529298  -5.524440     0.20 (  81->  91)    0.13 (  81->  89)    0.09 (  71->  87)
  53   4.922     251.9   0.047985   0.041367   8.601120  22.532410     0.15 (  77->  88)    0.11 (  77->  87)    0.08 (  83->  95)
  54   4.944     250.8   0.011264   0.008636  39.410083  34.313065     0.09 (  81->  89)    0.05 (  81->  90)    0.05 (  84->  96)
  55   4.951     250.4   0.002003   0.001541  -5.883208  -5.044405     0.34 (  75->  87)    0.29 (  75->  88)    0.13 (  75->  91)
  56   4.964     249.8   0.016705   0.014345  -21.683500  -22.365003     0.12 (  85->  96)    0.11 (  86-> 109)    0.11 (  86-> 106)
  57   4.972     249.4   0.004309   0.004286   1.741294  -0.438402     0.17 (  76->  90)    0.17 (  76->  89)    0.11 (  78->  88)

-----------------------------------------------------------------------------
         ABSORPTION SPECTRUM VIA TRANSITION ELECTRIC DIPOLE MOMENTS
-----------------------------------------------------------------------------
State   Energy  Wavelength   fosc         T2         TX        TY        TZ  
        (cm-1)    (nm)                  (au**2)     (au)      (au)      (au) 
-----------------------------------------------------------------------------
   0    9808.1   1019.6   0.906252300  30.41874   4.73271  -2.67481   0.93037
   1   15379.6    650.2   0.421738143   9.02764  -0.73702  -2.08629  -2.03269
   2   16038.3    623.5   0.364991397   7.49203   0.26950  -2.23906  -1.55113
   3   17888.2    559.0   0.718859310  13.22981  -0.54374   2.96774   2.03143
   4   21503.0    465.1   0.083317084   1.27559  -0.30583   0.95624   0.51736
   5   22272.8    449.0   0.058224872   0.86061  -0.28791   0.65530   0.59017
   6   23545.6    424.7   0.061935742   0.86598   0.28067  -0.56748  -0.68203
   7   24056.5    415.7   0.060390457   0.82644  -0.32135  -0.23860  -0.81624
   8   24797.6    403.3   0.287681942   3.81925   1.28624  -1.32882  -0.63171
   9   25129.1    397.9   0.003347005   0.04385   0.06514  -0.19006   0.05900
  10   25277.3    395.6   0.091217628   1.18802  -0.10834   0.54864   0.93556
  11   26625.6    375.6   0.041711961   0.51575   0.17856  -0.16428  -0.67593
  12   27251.1    367.0   0.070140182   0.84734   0.61167  -0.25926   0.63717
  13   28149.2    355.2   0.046621754   0.54525  -0.61573   0.19787  -0.35634
  14   28640.8    349.2   0.006323767   0.07269  -0.15247  -0.08989  -0.20337
  15   28898.3    346.0   0.338244030   3.85331   0.13258   0.42272   1.91234
  16   29042.6    344.3   0.055427513   0.62830  -0.67597   0.12706  -0.39398
  17   29635.1    337.4   0.086994868   0.96641   0.22525  -0.47646  -0.82986
  18   30080.6    332.4   0.019849144   0.21724  -0.22168   0.10209   0.39708
  19   30229.6    330.8   0.073444104   0.79984   0.35030  -0.47342  -0.67305
  20   30392.1    329.0   0.001779611   0.01928   0.08074   0.02647  -0.10981
  21   30865.3    324.0   0.031603325   0.33708   0.26631  -0.50386   0.11084
  22   30988.4    322.7   0.128014410   1.35999  -0.77763   0.10083  -0.86320
  23   31193.9    320.6   0.034622812   0.36540  -0.15779  -0.11333  -0.57241
  24   31731.5    315.1   0.002159095   0.02240  -0.04688   0.11843   0.07860
  25   31948.1    313.0   0.109080104   1.12402   0.49108  -0.18015   0.92218
  26   32191.5    310.6   0.030753620   0.31451  -0.42693  -0.06713  -0.35740
  27   32394.0    308.7   0.014385973   0.14620  -0.13128  -0.21344  -0.28881
  28   32840.6    304.5   0.003871840   0.03881   0.05326   0.03872   0.18568
  29   32916.8    303.8   0.019550873   0.19553   0.36374   0.13206   0.21398
  30   33077.0    302.3   0.582632582   5.79888  -1.16853   0.46048  -2.05460
  31   34066.0    293.5   0.105976348   1.02415   0.57937  -0.19773   0.80584
  32   34092.3    293.3   0.060485134   0.58407  -0.07852  -0.36984  -0.66417
  33   34657.2    288.5   0.308405952   2.92958  -1.32788   0.46988  -0.97238
  34   34839.6    287.0   0.011821585   0.11171  -0.17870   0.09026  -0.26763
  35   35053.0    285.3   0.006782847   0.06370  -0.16845   0.18716   0.01727
  36   35403.5    282.5   0.013520012   0.12572   0.34152  -0.08078   0.05060
  37   35540.9    281.4   0.145237987   1.34532   1.04938  -0.09956   0.48395
  38   35901.8    278.5   0.011398744   0.10452   0.19885  -0.11382  -0.22809
  39   36233.5    276.0   0.030704868   0.27898   0.07762  -0.23300  -0.46762
  40   36441.1    274.4   0.028358462   0.25619  -0.09343  -0.22711  -0.44259
  41   36836.6    271.5   0.084204637   0.75254   0.62440   0.07902   0.59701
  42   37071.7    269.7   0.020892395   0.18553   0.21904  -0.32243  -0.18329
  43   37152.2    269.2   0.000870145   0.00771   0.03394   0.05885  -0.05563
  44   37540.6    266.4   0.142363039   1.24845  -0.56183   0.92133   0.28973
  45   37850.4    264.2   0.034561729   0.30061  -0.14426   0.49406   0.18894
  46   38036.8    262.9   0.039806695   0.34453  -0.50200   0.10531  -0.28538
  47   38138.4    262.2   0.058393714   0.50406   0.37147  -0.53913   0.27461
  48   38812.4    257.6   0.070100115   0.59460  -0.43046   0.61955   0.15955
  49   38891.9    257.1   0.060332088   0.51070  -0.34030   0.58619   0.22642
  50   38963.3    256.7   0.060042006   0.50731  -0.59149   0.39556  -0.03136
  51   39399.4    253.8   0.051733905   0.43228  -0.48903   0.12243  -0.42206
  52   39633.3    252.3   0.147013915   1.22116  -0.35512  -0.10996  -1.04065
  53   39699.0    251.9   0.047984830   0.39792   0.21196  -0.49344  -0.33092
  54   39874.0    250.8   0.011263948   0.09300   0.20613  -0.13002  -0.18332
  55   39931.5    250.4   0.002003485   0.01652  -0.02090   0.11893   0.04402
  56   40039.8    249.8   0.016705410   0.13735  -0.24457  -0.08579  -0.26491
  57   40103.6    249.4   0.004308501   0.03537  -0.07572   0.00115   0.17215

-----------------------------------------------------------------------------
         ABSORPTION SPECTRUM VIA TRANSITION VELOCITY DIPOLE MOMENTS
-----------------------------------------------------------------------------
State   Energy  Wavelength   fosc         P2         PX        PY        PZ  
        (cm-1)    (nm)                  (au**2)     (au)      (au)      (au) 
-----------------------------------------------------------------------------
   0    9808.1   1019.6   1.876054933   0.12576   0.30909  -0.15648   0.07572
   1   15379.6    650.2   0.639628350   0.06723  -0.07861  -0.17052  -0.17882
   2   16038.3    623.5   0.478548211   0.05246   0.01144  -0.18642  -0.13256
   3   17888.2    559.0   0.914174136   0.11176  -0.03803   0.27057   0.19264
   4   21503.0    465.1   0.103854672   0.01526  -0.03979   0.10486   0.05182
   5   22272.8    449.0   0.069718528   0.01061  -0.02760   0.07312   0.06712
   6   23545.6    424.7   0.066512131   0.01070   0.02822  -0.06290  -0.07714
   7   24056.5    415.7   0.067756312   0.01114  -0.03509  -0.03189  -0.09430
   8   24797.6    403.3   0.319704418   0.05418   0.15063  -0.15866  -0.07950
   9   25129.1    397.9   0.003800658   0.00065   0.00618  -0.02460   0.00310
  10   25277.3    395.6   0.101946633   0.01761  -0.01569   0.07076   0.11117
  11   26625.6    375.6   0.039650185   0.00722   0.02703  -0.01789  -0.07851
  12   27251.1    367.0   0.068804468   0.01281   0.07707  -0.03732   0.07404
  13   28149.2    355.2   0.045268340   0.00871  -0.07887   0.02406  -0.04371
  14   28640.8    349.2   0.006379961   0.00125  -0.02121  -0.01335  -0.02491
  15   28898.3    346.0   0.334350050   0.06604   0.01700   0.05477   0.25049
  16   29042.6    344.3   0.053065212   0.01053  -0.08843   0.01917  -0.04844
  17   29635.1    337.4   0.079424749   0.01609   0.03171  -0.06244  -0.10575
  18   30080.6    332.4   0.020898777   0.00430  -0.03516   0.01713   0.05260
  19   30229.6    330.8   0.075040308   0.01550   0.04825  -0.06486  -0.09471
  20   30392.1    329.0   0.001589284   0.00033   0.01152   0.00727  -0.01203
  21   30865.3    324.0   0.026753609   0.00564   0.03429  -0.06488   0.01608
  22   30988.4    322.7   0.123102264   0.02607  -0.10662   0.01290  -0.12058
  23   31193.9    320.6   0.029719152   0.00634  -0.02335  -0.00888  -0.07558
  24   31731.5    315.1   0.002363828   0.00051  -0.01085   0.01832   0.00769
  25   31948.1    313.0   0.099344740   0.02169   0.07027  -0.03209   0.12540
  26   32191.5    310.6   0.028465109   0.00626  -0.05989  -0.00720  -0.05122
  27   32394.0    308.7   0.011580041   0.00256  -0.01442  -0.02975  -0.03835
  28   32840.6    304.5   0.003459172   0.00078   0.00810   0.00594   0.02599
  29   32916.8    303.8   0.020759977   0.00467   0.05523   0.01972   0.03509
  30   33077.0    302.3   0.531604549   0.12018  -0.16788   0.06691  -0.29583
  31   34066.0    293.5   0.101147808   0.02355   0.08826  -0.02690   0.12263
  32   34092.3    293.3   0.052054972   0.01213  -0.01449  -0.05003  -0.09704
  33   34657.2    288.5   0.287777521   0.06816  -0.20352   0.07238  -0.14665
  34   34839.6    287.0   0.011744606   0.00280  -0.03025   0.01288  -0.04142
  35   35053.0    285.3   0.005111849   0.00122  -0.02575   0.02366   0.00140
  36   35403.5    282.5   0.012001695   0.00290   0.05257  -0.00760   0.00910
  37   35540.9    281.4   0.134360098   0.03264   0.16119  -0.01104   0.08083
  38   35901.8    278.5   0.009335948   0.00229   0.03299  -0.01700  -0.03022
  39   36233.5    276.0   0.020799942   0.00515   0.01010  -0.02667  -0.06586
  40   36441.1    274.4   0.025397796   0.00633  -0.01978  -0.03206  -0.07005
  41   36836.6    271.5   0.079390571   0.01999   0.10224   0.01034   0.09709
  42   37071.7    269.7   0.015674308   0.00397   0.02778  -0.04738  -0.03090
  43   37152.2    269.2   0.000990729   0.00025   0.00677   0.01202  -0.00783
  44   37540.6    266.4   0.110325394   0.02831  -0.08871   0.13680   0.04150
  45   37850.4    264.2   0.032248208   0.00834  -0.02174   0.08205   0.03372
  46   38036.8    262.9   0.032297150   0.00840  -0.07749   0.01485  -0.04660
  47   38138.4    262.2   0.045900201   0.01196   0.05552  -0.08285   0.04493
  48   38812.4    257.6   0.058321895   0.01547  -0.07100   0.09816   0.02820
  49   38891.9    257.1   0.043502809   0.01156  -0.05721   0.08551   0.03129
  50   38963.3    256.7   0.054346799   0.01447  -0.10260   0.06138  -0.01335
  51   39399.4    253.8   0.043592188   0.01174  -0.07867   0.02281  -0.07092
  52   39633.3    252.3   0.122296175   0.03313  -0.05897  -0.01702  -0.17135
  53   39699.0    251.9   0.041367282   0.01122   0.03283  -0.08758  -0.04977
  54   39874.0    250.8   0.008635622   0.00235   0.03376  -0.02079  -0.02796
  55   39931.5    250.4   0.001541256   0.00042  -0.00367   0.01916   0.00632
  56   40039.8    249.8   0.014344959   0.00393  -0.04205  -0.01069  -0.04520
  57   40103.6    249.4   0.004285943   0.00117  -0.01377  -0.00251   0.03129

-------------------------------------------------------------------
                             CD SPECTRUM
-------------------------------------------------------------------
State   Energy Wavelength       R         MX        MY        MZ   
        (cm-1)   (nm)       (1e40*cgs)   (au)      (au)      (au)  
-------------------------------------------------------------------
   0    9808.1   1019.6    -724.37244  -3.48834  -5.80449   4.35995
   1   15379.6    650.2    383.89240   2.57794   5.56007  -5.84021
   2   16038.3    623.5    246.91427   0.99100   3.03776  -3.53755
   3   17888.2    559.0    336.82489  -1.34603  -3.99305   4.76982
   4   21503.0    465.1    -28.77885   0.76826   0.11485   0.47785
   5   22272.8    449.0      2.18984  -1.69396  -2.59615   2.04052
   6   23545.6    424.7    -77.56608   2.31363   2.94966  -1.98460
   7   24056.5    415.7     -4.88505   0.51197   1.39824  -0.63569
   8   24797.6    403.3    -66.46945   2.52819   3.45033  -2.55655
   9   25129.1    397.9      6.08199  -0.40489  -0.08158  -0.25309
  10   25277.3    395.6    -44.81254  -1.91606  -2.72723   1.58064
  11   26625.6    375.6     10.83306   0.96456   1.65997  -0.08064
  12   27251.1    367.0    -32.40996   0.81542  -0.16657  -0.63477
  13   28149.2    355.2    -131.98399  -1.37452  -0.53099   0.50893
  14   28640.8    349.2     -0.30785   0.06173   0.53417  -0.28880
  15   28898.3    346.0    102.96090  -2.07955  -4.46933   0.90372
  16   29042.6    344.3    -29.87579   0.43473   1.08310  -0.71827
  17   29635.1    337.4      1.95939   0.94685   1.52519  -0.60866
  18   30080.6    332.4     11.31433  -0.56105  -0.85937  -0.21315
  19   30229.6    330.8     49.03546   0.76328   1.62782  -0.43866
  20   30392.1    329.0     -8.31092   0.49009   0.26083   0.10215
  21   30865.3    324.0     82.71710   1.00671   0.87171  -1.62209
  22   30988.4    322.7     -1.43953   1.42243   2.05344  -1.04863
  23   31193.9    320.6     23.35500  -0.21312   0.60602   0.11185
  24   31731.5    315.1     -3.26875  -0.14931   0.02263   0.05328
  25   31948.1    313.0     22.43922  -1.33694  -2.21658   0.17570
  26   32191.5    310.6    -39.67095   0.00016   0.49302  -0.56368
  27   32394.0    308.7      5.57486   0.85028   0.83941  -0.92499
  28   32840.6    304.5      4.54692   0.12731  -0.71081   0.00782
  29   32916.8    303.8     83.41120  -1.59009  -1.22678   1.80643
  30   33077.0    302.3    110.12408  -0.60428   2.79299   1.19703
  31   34066.0    293.5     -6.25683  -0.54288  -1.66303   0.01519
  32   34092.3    293.3      8.09591   0.61998   1.29447  -0.74239
  33   34657.2    288.5    -123.20698   1.07286   2.28380  -0.89902
  34   34839.6    287.0     -2.14865   0.22716   0.60528   0.01839
  35   35053.0    285.3     -9.85315  -0.40387  -0.15580   0.16934
  36   35403.5    282.5     -2.73484  -0.11321  -0.23980   0.61058
  37   35540.9    281.4      5.90854  -1.18380  -1.63539   2.17867
  38   35901.8    278.5     24.79572   0.04057   0.21711   0.38821
  39   36233.5    276.0     35.92313   0.18012   0.78755  -0.03662
  40   36441.1    274.4    -15.81926   0.58083   1.11761  -0.84772
  41   36836.6    271.5    -75.35857  -0.53255  -1.65122   1.31102
  42   37071.7    269.7      3.41784   0.61608   0.82100  -0.62890
  43   37152.2    269.2      7.79409  -0.26268  -0.01255   0.42081
  44   37540.6    266.4    -21.90945  -0.25461  -0.43383   1.20663
  45   37850.4    264.2     25.03289  -1.05648  -1.12293   1.56759
  46   38036.8    262.9     -6.72618   0.83541   1.40599  -1.05071
  47   38138.4    262.2     -0.23927   0.55151  -0.29794  -1.32727
  48   38812.4    257.6     44.58711  -1.16700  -1.52026   1.56935
  49   38891.9    257.1     14.82462   0.63749   0.13929   0.31974
  50   38963.3    256.7    -12.35640  -0.61245  -0.72563   0.72713
  51   39399.4    253.8    -51.98590   0.13113   0.85787  -0.42562
  52   39633.3    252.3     -2.52930   1.65900   3.04989  -0.89872
  53   39699.0    251.9      8.60112   0.43185   0.91384  -0.97578
  54   39874.0    250.8     39.41008  -0.36053   0.11656   0.42396
  55   39931.5    250.4     -5.88321   0.00874   0.15139   0.16214
  56   40039.8    249.8    -21.68350  -0.03269   0.40671  -0.44877
  57   40103.6    249.4      1.74129  -0.32084  -0.61717  -0.17991

sTD-DFT done

Total run time:        2.364 sec

           *** ORCA-CIS/TD-DFT FINISHED WITHOUT ERROR ***

-------------------------   --------------------
FINAL SINGLE POINT ENERGY     -8797.794549870508
-------------------------   --------------------


                            ***************************************
                            *     ORCA property calculations      *
                            ***************************************

                                    ---------------------
                                    Active property flags
                                    ---------------------
   (+) Dipole Moment


------------------------------------------------------------------------------
                       ORCA ELECTRIC PROPERTIES CALCULATION
------------------------------------------------------------------------------

Dipole Moment Calculation                       ... on
Quadrupole Moment Calculation                   ... off
Polarizability Calculation                      ... off
GBWName                                         ... xtbopt.gbw
Electron density file                           ... xtbopt.scfp
The origin for moment calculation is the CENTER OF MASS  = (-18.987942,  8.356239 -1.126716)

-------------
DIPOLE MOMENT
-------------
                                X             Y             Z
Electronic contribution:     41.82408     -89.03376     -93.11788
Nuclear contribution   :    -44.52131      93.03713      95.05177
                        -----------------------------------------
Total Dipole Moment    :     -2.69723       4.00337       1.93390
                        -----------------------------------------
Magnitude (a.u.)       :      5.20019
Magnitude (Debye)      :     13.21784



--------------------
Rotational spectrum 
--------------------
 
Rotational constants in cm-1:     0.000897     0.000352     0.000261 
Rotational constants in MHz :    26.879634    10.564033     7.816197 

 Dipole components along the rotational axes: 
x,y,z [a.u.] :     5.164976     0.604020    -0.012897 
x,y,z [Debye]:    13.128326     1.535297    -0.032781 

 

Timings for individual modules:

Sum of individual times         ...      466.267 sec (=   7.771 min)
GTO integral calculation        ...        2.651 sec (=   0.044 min)   0.6 %
SCF iterations                  ...      460.506 sec (=   7.675 min)  98.8 %
CIS module                      ...        3.110 sec (=   0.052 min)   0.7 %
                             ****ORCA TERMINATED NORMALLY****
TOTAL RUN TIME: 0 days 0 hours 7 minutes 47 seconds 183 msec
