
                                 *****************
                                 * O   R   C   A *
                                 *****************

           --- An Ab Initio, DFT and Semiempirical electronic structure package ---

                  #######################################################
                  #                        -***-                        #
                  #          Department of theory and spectroscopy      #
                  #               Directorship: Frank Neese             #
                  #        Max Planck Institute fuer Kohlenforschung    #
                  #                Kaiser Wilhelm Platz 1               #
                  #                 D-45470 Muelheim/Ruhr               #
                  #                      Germany                        #
                  #                                                     #
                  #                  All rights reserved                #
                  #                        -***-                        #
                  #######################################################


                         Program Version 4.2.0 -  RELEASE  -


 With contributions from (in alphabetic order):
   Daniel Aravena         : Magnetic Suceptibility
   Michael Atanasov       : Ab Initio Ligand Field Theory (pilot matlab implementation)
   Alexander A. Auer      : GIAO ZORA, VPT2
   Ute Becker             : Parallelization
   Giovanni Bistoni       : ED, misc. LED, open-shell LED, HFLED
   Martin Brehm           : Molecular dynamics
   Dmytro Bykov           : SCF Hessian
   Vijay G. Chilkuri      : MRCI spin determinant printing, contributions to CSF-ICE
   Dipayan Datta          : RHF DLPNO-CCSD density
   Achintya Kumar Dutta   : EOM-CC, STEOM-CC
   Dmitry Ganyushin       : Spin-Orbit,Spin-Spin,Magnetic field MRCI
   Miquel Garcia          : C-PCM Hessian, Gaussian charge scheme
   Yang Guo               : DLPNO-NEVPT2, CIM, IAO-localization
   Andreas Hansen         : Spin unrestricted coupled pair/coupled cluster methods
   Benjamin Helmich-Paris : CASSCF linear response (MC-RPA)
   Lee Huntington         : MR-EOM, pCC
   Robert Izsak           : Overlap fitted RIJCOSX, COSX-SCS-MP3, EOM
   Christian Kollmar      : KDIIS, OOCD, Brueckner-CCSD(T), CCSD density
   Simone Kossmann        : Meta GGA functionals, TD-DFT gradient, OOMP2, MP2 Hessian
   Martin Krupicka        : AUTO-CI
   Lucas Lang             : DCDCAS
   Dagmar Lenk            : GEPOL surface, SMD
   Dimitrios Liakos       : Extrapolation schemes; Compound Job, initial MDCI parallelization
   Dimitrios Manganas     : Further ROCIS development; embedding schemes
   Dimitrios Pantazis     : SARC Basis sets
   Taras Petrenko         : DFT Hessian,TD-DFT gradient, ASA, ECA, R-Raman, ABS, FL, XAS/XES, NRVS
   Peter Pinski           : DLPNO-MP2, DLPNO-MP2 Gradient
   Christoph Reimann      : Effective Core Potentials
   Marius Retegan         : Local ZFS, SOC
   Christoph Riplinger    : Optimizer, TS searches, QM/MM, DLPNO-CCSD(T), (RO)-DLPNO pert. Triples
   Tobias Risthaus        : Range-separated hybrids, TD-DFT gradient, RPA, STAB
   Michael Roemelt        : Original ROCIS implementation
   Masaaki Saitow         : Open-shell DLPNO-CCSD energy and density
   Barbara Sandhoefer     : DKH picture change effects
   Avijit Sen             : IP-ROCIS
   Kantharuban Sivalingam : CASSCF convergence, NEVPT2, FIC-MRCI
   Bernardo de Souza      : ESD, SOC TD-DFT
   Georgi Stoychev        : AutoAux, RI-MP2 NMR
   Willem Van den Heuvel  : Paramagnetic NMR
   Boris Wezisla          : Elementary symmetry handling
   Frank Wennmohs         : Technical directorship


 We gratefully acknowledge several colleagues who have allowed us to
 interface, adapt or use parts of their codes:
   Stefan Grimme, W. Hujo, H. Kruse,             : VdW corrections, initial TS optimization,
                  C. Bannwarth                     DFT functionals, gCP, sTDA/sTD-DF
   Ed Valeev, F. Pavosevic, A. Kumar             : LibInt (2-el integral package), F12 methods
   Garnet Chan, S. Sharma, J. Yang, R. Olivares  : DMRG
   Ulf Ekstrom                                   : XCFun DFT Library
   Mihaly Kallay                                 : mrcc  (arbitrary order and MRCC methods)
   Andreas Klamt, Michael Diedenhofen            : otool_cosmo (COSMO solvation model)
   Jiri Pittner, Ondrej Demel                    : Mk-CCSD
   Frank Weinhold                                : gennbo (NPA and NBO analysis)
   Christopher J. Cramer and Donald G. Truhlar   : smd solvation model
   Lars Goerigk                                  : TD-DFT with DH, B97 family of functionals
   V. Asgeirsson, H. Jonsson                     : NEB implementation
   FAccTs GmbH                                   : IRC, NEB, NEB-TS, Multilevel, MM, QM/MM, CI optimization
   S Lehtola, MJT Oliveira, MAL Marques          : LibXC Library


 Your calculation uses the libint2 library for the computation of 2-el integrals
 For citations please refer to: http://libint.valeyev.net

 Your ORCA version has been built with support for libXC version: 4.2.3
 For citations please refer to: https://tddft.org/programs/libxc/

 This ORCA versions uses:
   CBLAS   interface :  Fast vector & matrix operations
   LAPACKE interface :  Fast linear algebra routines
   SCALAPACK package :  Parallel linear algebra routines


XCFun DFT library Copyright 2009-2010 Ulf Ekstrom and contributors.
See http://admol.org/xcfun for more information. This is free soft-
ware; see the source code for copying conditions. There is ABSOLUTELY
NO WARRANTY; not even for MERCHANTABILITY or FITNESS FOR A PARTICULAR
PURPOSE. For details see the documentation. Scientific users of this 
library should cite U. Ekstrom, L. Visscher, R. Bast, A. J. Thorvald-
sen and K. Ruud; J.Chem.Theor.Comp. 2010, DOI: 10.1021/ct100117s
XCFun Version 0.99 
----- Orbital basis set information -----
Your calculation utilizes the basis: def2-SVP
   F. Weigend and R. Ahlrichs, Phys. Chem. Chem. Phys. 7, 3297 (2005).

----- AuxJ basis set information -----
Your calculation utilizes the auxiliary basis: def2/J
   F. Weigend, Phys. Chem. Chem. Phys. 8, 1057 (2006).

================================================================================
                                        WARNINGS
                       Please study these warnings very carefully!
================================================================================

INFO   : Checking CIS options ...

WARNING: CIS/ROCIS methods need fully converged wavefunctions
  ===> : Setting SCFConvForced true
         You can overwrite this default with %scf ConvForced false 


INFO   : the flag for use of LIBINT has been found!

================================================================================
                                       INPUT FILE
================================================================================
NAME = xtbopt.inp
|  1> # ORCA input file
|  2> # SCF done       -203.203540163209          0.000941844836
|  3> ! CAM-B3LYP def2-SVP def2/J RIJCOSX Grid4 TightSCF
|  4> %maxcore 5000
|  5> %tddft
|  6>     Mode sTDDFT
|  7>     Ethresh 5.0
|  8>     maxcore 5000
|  9> end
| 10> 
| 11> %pal
| 12>   nprocs 6
| 13>   end
| 14> * xyz 0 1
| 15>    C      -13.46415         0.08858         1.29537
| 16>    C      -13.51390         0.21697         2.65844
| 17>    C      -14.14413        -0.70405         3.52049
| 18>    N      -14.64390        -1.41768         4.26747
| 19>    C      -12.93194         1.28704         3.36884
| 20>    N      -12.46514         2.13877         3.98051
| 21>    C      -14.03893        -1.00284         0.51389
| 22>    C      -13.75339        -0.78899        -0.86068
| 23>    C      -14.17085        -1.65052        -1.84707
| 24>    C      -14.90653        -2.77571        -1.46160
| 25>    C      -15.18659        -2.98138        -0.08883
| 26>    C      -14.76284        -2.11086         0.90896
| 27>    S      -16.10983        -4.42896         0.16500
| 28>    C      -16.10950        -4.73628        -1.55150
| 29>    C      -15.45071        -3.80262        -2.27955
| 30>   Br      -16.97809        -6.25741        -2.21950
| 31>    C      -12.98844         0.45349        -0.99690
| 32>    O      -12.55922         0.96240        -2.02947
| 33>    C      -12.83264         0.99143         0.35879
| 34>    C      -12.19229         2.18351         0.58648
| 35>    N      -11.68061         2.87238        -0.44095
| 36>    C      -11.05460         4.07430        -0.39555
| 37>    S      -10.82544         4.92599         1.09958
| 38>    C      -10.05459         6.20537         0.22184
| 39>    N       -9.58753         7.31729         0.93918
| 40>    O       -9.06514         8.21302         0.30317
| 41>    O       -9.74193         7.29736         2.14549
| 42>    C       -9.97951         5.98329        -1.12621
| 43>    C      -10.55000         4.75441        -1.51114
| 44>    C      -10.60901         4.24141        -2.85788
| 45>    C      -10.21914         4.92933        -3.94249
| 46>    C      -10.20851         4.37948        -5.28346
| 47>    C       -9.83336         3.09126        -5.52260
| 48>    S       -9.74348         2.64890        -7.18432
| 49>    C      -10.25154         4.24552        -7.63377
| 50>    C      -10.49027         5.08501        -6.51090
| 51>    C      -11.01150         6.36280        -6.74795
| 52>    C      -11.37743         7.29288        -5.62874
| 53>    C      -10.22175         8.24328        -5.29834
| 54>    C      -11.18572         6.74056        -8.08751
| 55>    C      -10.84512         5.80748        -9.10214
| 56>    N      -10.40939         4.58674        -8.89211
| 57>    S      -11.12096         6.41704       -10.70444
| 58>    C      -11.68325         7.90637       -10.04263
| 59>    C      -11.69784         7.94628        -8.68356
| 60>    N      -12.16671         9.04988        -7.95487
| 61>    C      -13.17348         9.86957        -8.34987
| 62>    S      -13.13739        11.53222        -7.86004
| 63>    C      -14.63451        11.80642        -8.70348
| 64>    N      -15.16967        13.09672        -8.63363
| 65>    O      -16.19551        13.32430        -9.24297
| 66>    O      -14.54468        13.90328        -7.96330
| 67>    C      -15.11434        10.68989        -9.32693
| 68>    C      -14.29768         9.55645        -9.12767
| 69>    C      -14.61667         8.23616        -9.59298
| 70>    C      -15.42388         7.97393       -10.64490
| 71>    C      -15.71496         6.64824       -11.05400
| 72>    C      -16.57960         6.24100       -12.02090
| 73>    C      -17.58634         6.94329       -12.79148
| 74>    C      -18.32306         8.02655       -12.39039
| 75>    C      -19.35073         8.60359       -13.16687
| 76>    N      -20.19007         9.11083       -13.76259
| 77>    C      -18.22487         8.63174       -11.12010
| 78>    N      -18.20904         9.14573       -10.09376
| 79>    C      -17.84575         6.14570       -13.98639
| 80>    C      -17.20801         4.88681       -13.84341
| 81>    C      -16.46072         4.86190       -12.57148
| 82>    O      -15.84046         3.94315       -12.08853
| 83>    C      -17.29924         3.90138       -14.79652
| 84>    C      -18.04388         4.17409       -15.94868
| 85>    C      -18.66434         5.43935       -16.08842
| 86>    C      -18.57957         6.43349       -15.12149
| 87>    S      -19.52103         5.56854       -17.59368
| 88>    C      -19.04533         3.94289       -18.00861
| 89>    C      -18.28258         3.33334       -17.06995
| 90>   Br      -19.59756         3.20606       -19.64194
| 91>    H      -13.93980        -1.46197        -2.88373
| 92>    H      -15.00271        -2.31022         1.93995
| 93>    H      -15.35305        -3.83570        -3.34923
| 94>    H      -12.08279         2.60841         1.57586
| 95>    H      -11.82393         2.41069        -1.35837
| 96>    H       -9.51835         6.69193        -1.78864
| 97>    H      -11.00864         3.24586        -2.99037
| 98>    H       -9.84227         5.93341        -3.83189
| 99>    H       -9.54868         2.36777        -4.78338
|100>    H      -11.63666         6.70886        -4.74515
|101>    H      -12.26061         7.86729        -5.91082
|102>    H       -9.34717         7.68873        -4.96522
|103>    H      -10.51404         8.93454        -4.51154
|104>    H       -9.91587         8.81656        -6.17200
|105>    H      -12.00553         8.68427       -10.70655
|106>    H      -11.51866         9.45029        -7.28901
|107>    H      -16.05593        10.67600        -9.84632
|108>    H      -14.19689         7.40836        -9.03784
|109>    H      -15.82446         8.79126       -11.22447
|110>    H      -15.12576         5.85596       -10.60279
|111>    H      -16.80970         2.95009       -14.65890
|112>    H      -19.06245         7.38430       -15.27521
|113>    H      -17.90228         2.33254       -17.16329
|114> *
|115> 
|116>                          ****END OF INPUT****
================================================================================

                       ****************************
                       * Single Point Calculation *
                       ****************************

---------------------------------
CARTESIAN COORDINATES (ANGSTROEM)
---------------------------------
  C    -13.464150    0.088580    1.295370
  C    -13.513900    0.216970    2.658440
  C    -14.144130   -0.704050    3.520490
  N    -14.643900   -1.417680    4.267470
  C    -12.931940    1.287040    3.368840
  N    -12.465140    2.138770    3.980510
  C    -14.038930   -1.002840    0.513890
  C    -13.753390   -0.788990   -0.860680
  C    -14.170850   -1.650520   -1.847070
  C    -14.906530   -2.775710   -1.461600
  C    -15.186590   -2.981380   -0.088830
  C    -14.762840   -2.110860    0.908960
  S    -16.109830   -4.428960    0.165000
  C    -16.109500   -4.736280   -1.551500
  C    -15.450710   -3.802620   -2.279550
  Br   -16.978090   -6.257410   -2.219500
  C    -12.988440    0.453490   -0.996900
  O    -12.559220    0.962400   -2.029470
  C    -12.832640    0.991430    0.358790
  C    -12.192290    2.183510    0.586480
  N    -11.680610    2.872380   -0.440950
  C    -11.054600    4.074300   -0.395550
  S    -10.825440    4.925990    1.099580
  C    -10.054590    6.205370    0.221840
  N     -9.587530    7.317290    0.939180
  O     -9.065140    8.213020    0.303170
  O     -9.741930    7.297360    2.145490
  C     -9.979510    5.983290   -1.126210
  C    -10.550000    4.754410   -1.511140
  C    -10.609010    4.241410   -2.857880
  C    -10.219140    4.929330   -3.942490
  C    -10.208510    4.379480   -5.283460
  C     -9.833360    3.091260   -5.522600
  S     -9.743480    2.648900   -7.184320
  C    -10.251540    4.245520   -7.633770
  C    -10.490270    5.085010   -6.510900
  C    -11.011500    6.362800   -6.747950
  C    -11.377430    7.292880   -5.628740
  C    -10.221750    8.243280   -5.298340
  C    -11.185720    6.740560   -8.087510
  C    -10.845120    5.807480   -9.102140
  N    -10.409390    4.586740   -8.892110
  S    -11.120960    6.417040  -10.704440
  C    -11.683250    7.906370  -10.042630
  C    -11.697840    7.946280   -8.683560
  N    -12.166710    9.049880   -7.954870
  C    -13.173480    9.869570   -8.349870
  S    -13.137390   11.532220   -7.860040
  C    -14.634510   11.806420   -8.703480
  N    -15.169670   13.096720   -8.633630
  O    -16.195510   13.324300   -9.242970
  O    -14.544680   13.903280   -7.963300
  C    -15.114340   10.689890   -9.326930
  C    -14.297680    9.556450   -9.127670
  C    -14.616670    8.236160   -9.592980
  C    -15.423880    7.973930  -10.644900
  C    -15.714960    6.648240  -11.054000
  C    -16.579600    6.241000  -12.020900
  C    -17.586340    6.943290  -12.791480
  C    -18.323060    8.026550  -12.390390
  C    -19.350730    8.603590  -13.166870
  N    -20.190070    9.110830  -13.762590
  C    -18.224870    8.631740  -11.120100
  N    -18.209040    9.145730  -10.093760
  C    -17.845750    6.145700  -13.986390
  C    -17.208010    4.886810  -13.843410
  C    -16.460720    4.861900  -12.571480
  O    -15.840460    3.943150  -12.088530
  C    -17.299240    3.901380  -14.796520
  C    -18.043880    4.174090  -15.948680
  C    -18.664340    5.439350  -16.088420
  C    -18.579570    6.433490  -15.121490
  S    -19.521030    5.568540  -17.593680
  C    -19.045330    3.942890  -18.008610
  C    -18.282580    3.333340  -17.069950
  Br   -19.597560    3.206060  -19.641940
  H    -13.939800   -1.461970   -2.883730
  H    -15.002710   -2.310220    1.939950
  H    -15.353050   -3.835700   -3.349230
  H    -12.082790    2.608410    1.575860
  H    -11.823930    2.410690   -1.358370
  H     -9.518350    6.691930   -1.788640
  H    -11.008640    3.245860   -2.990370
  H     -9.842270    5.933410   -3.831890
  H     -9.548680    2.367770   -4.783380
  H    -11.636660    6.708860   -4.745150
  H    -12.260610    7.867290   -5.910820
  H     -9.347170    7.688730   -4.965220
  H    -10.514040    8.934540   -4.511540
  H     -9.915870    8.816560   -6.172000
  H    -12.005530    8.684270  -10.706550
  H    -11.518660    9.450290   -7.289010
  H    -16.055930   10.676000   -9.846320
  H    -14.196890    7.408360   -9.037840
  H    -15.824460    8.791260  -11.224470
  H    -15.125760    5.855960  -10.602790
  H    -16.809700    2.950090  -14.658900
  H    -19.062450    7.384300  -15.275210
  H    -17.902280    2.332540  -17.163290

----------------------------
CARTESIAN COORDINATES (A.U.)
----------------------------
  NO LB      ZA    FRAG     MASS         X           Y           Z
   0 C     6.0000    0    12.011  -25.443556    0.167392    2.447895
   1 C     6.0000    0    12.011  -25.537570    0.410014    5.023724
   2 C     6.0000    0    12.011  -26.728532   -1.330462    6.652762
   3 N     7.0000    0    14.007  -27.672961   -2.679027    8.064350
   4 C     6.0000    0    12.011  -24.437825    2.432153    6.366185
   5 N     7.0000    0    14.007  -23.555701    4.041690    7.522074
   6 C     6.0000    0    12.011  -26.529733   -1.895093    0.971111
   7 C     6.0000    0    12.011  -25.990141   -1.490975   -1.626449
   8 C     6.0000    0    12.011  -26.779026   -3.119031   -3.490456
   9 C     6.0000    0    12.011  -28.169259   -5.245332   -2.762024
  10 C     6.0000    0    12.011  -28.698496   -5.633992   -0.167864
  11 C     6.0000    0    12.011  -27.897725   -3.988947    1.717685
  12 S    16.0000    0    32.060  -30.443167   -8.369521    0.311805
  13 C     6.0000    0    12.011  -30.442543   -8.950272   -2.931910
  14 C     6.0000    0    12.011  -29.197610   -7.185910   -4.307725
  15 Br   35.0000    0    79.900  -32.083940  -11.824791   -4.194247
  16 C     6.0000    0    12.011  -24.544595    0.856972   -1.883868
  17 O     8.0000    0    15.999  -23.733486    1.818672   -3.835142
  18 C     6.0000    0    12.011  -24.250175    1.873531    0.678015
  19 C     6.0000    0    12.011  -23.040089    4.126236    1.108287
  20 N     7.0000    0    14.007  -22.073154    5.428012   -0.833275
  21 C     6.0000    0    12.011  -20.890167    7.699311   -0.747481
  22 S    16.0000    0    32.060  -20.457117    9.308772    2.077905
  23 C     6.0000    0    12.011  -19.000421   11.726450    0.419217
  24 N     7.0000    0    14.007  -18.117806   13.827674    1.774793
  25 O     8.0000    0    15.999  -17.130632   15.520359    0.572908
  26 O     8.0000    0    15.999  -18.409580   13.790012    4.054389
  27 C     6.0000    0    12.011  -18.858541   11.306779   -2.128228
  28 C     6.0000    0    12.011  -19.936611    8.984533   -2.855641
  29 C     6.0000    0    12.011  -20.048123    8.015103   -5.400611
  30 C     6.0000    0    12.011  -19.311376    9.315084   -7.450226
  31 C     6.0000    0    12.011  -19.291288    8.276018   -9.984292
  32 C     6.0000    0    12.011  -18.582357    5.841635  -10.436202
  33 S    16.0000    0    32.060  -18.412509    5.005696  -13.576397
  34 C     6.0000    0    12.011  -19.372603    8.022870  -14.425735
  35 C     6.0000    0    12.011  -19.823737    9.609276  -12.303818
  36 C     6.0000    0    12.011  -20.808719   12.023949  -12.751777
  37 C     6.0000    0    12.011  -21.500227   13.781546  -10.636777
  38 C     6.0000    0    12.011  -19.316308   15.577542  -10.012412
  39 C     6.0000    0    12.011  -21.137947   12.737812  -15.283179
  40 C     6.0000    0    12.011  -20.494307   10.974547  -17.200552
  41 N     7.0000    0    14.007  -19.670896    8.667682  -16.803653
  42 S    16.0000    0    32.060  -21.015569   12.126448  -20.228460
  43 C     6.0000    0    12.011  -22.078143   14.940874  -18.977820
  44 C     6.0000    0    12.011  -22.105714   15.016293  -16.409550
  45 N     7.0000    0    14.007  -22.991750   17.101795  -15.032526
  46 C     6.0000    0    12.011  -24.894269   18.650784  -15.778968
  47 S    16.0000    0    32.060  -24.826069   21.792738  -14.853323
  48 C     6.0000    0    12.011  -27.655216   22.310900  -16.447194
  49 N     7.0000    0    14.007  -28.666522   24.749214  -16.315196
  50 O     8.0000    0    15.999  -30.605078   25.179278  -17.466682
  51 O     8.0000    0    15.999  -27.485462   26.273392  -15.048456
  52 C     6.0000    0    12.011  -28.561963   20.200965  -17.625343
  53 C     6.0000    0    12.011  -27.018700   18.059073  -17.248797
  54 C     6.0000    0    12.011  -27.621503   15.564087  -18.128105
  55 C     6.0000    0    12.011  -29.146909   15.068544  -20.115946
  56 C     6.0000    0    12.011  -29.696971   12.563353  -20.889033
  57 C     6.0000    0    12.011  -31.330903   11.793781  -22.716209
  58 C     6.0000    0    12.011  -33.233366   13.120917  -24.172394
  59 C     6.0000    0    12.011  -34.625565   15.167981  -23.414444
  60 C     6.0000    0    12.011  -36.567580   16.258429  -24.881778
  61 N     7.0000    0    14.007  -38.153703   17.216974  -26.007526
  62 C     6.0000    0    12.011  -34.440013   16.311625  -21.013944
  63 N     7.0000    0    14.007  -34.410099   17.282925  -19.074442
  64 C     6.0000    0    12.011  -33.723580   11.613690  -26.430447
  65 C     6.0000    0    12.011  -32.518426    9.234733  -26.160254
  66 C     6.0000    0    12.011  -31.106253    9.187659  -23.756654
  67 O     8.0000    0    15.999  -29.934131    7.451474  -22.844011
  68 C     6.0000    0    12.011  -32.690826    7.372540  -27.961371
  69 C     6.0000    0    12.011  -34.097992    7.887887  -30.138637
  70 C     6.0000    0    12.011  -35.270491   10.278882  -30.402708
  71 C     6.0000    0    12.011  -35.110299   12.157534  -28.575475
  72 S    16.0000    0    32.060  -36.889401   10.523016  -33.247237
  73 C     6.0000    0    12.011  -35.990458    7.450982  -34.031341
  74 C     6.0000    0    12.011  -34.549069    6.299100  -32.257531
  75 Br   35.0000    0    79.900  -37.034021    6.058575  -37.117887
  76 H     1.0000    0     1.008  -26.342404   -2.762723   -5.449460
  77 H     1.0000    0     1.008  -28.351013   -4.365683    3.665974
  78 H     1.0000    0     1.008  -29.013060   -7.248423   -6.329127
  79 H     1.0000    0     1.008  -22.833164    4.929181    2.977944
  80 H     1.0000    0     1.008  -22.343990    4.555544   -2.566947
  81 H     1.0000    0     1.008  -17.987075   12.645915   -3.380040
  82 H     1.0000    0     1.008  -20.803315    6.133786   -5.650980
  83 H     1.0000    0     1.008  -18.599195   11.212520   -7.241223
  84 H     1.0000    0     1.008  -18.044390    4.474437   -9.039278
  85 H     1.0000    0     1.008  -21.990101   12.677908   -8.967034
  86 H     1.0000    0     1.008  -23.169195   14.867024  -11.169831
  87 H     1.0000    0     1.008  -17.663591   14.529594   -9.382906
  88 H     1.0000    0     1.008  -19.868656   16.883834   -8.525575
  89 H     1.0000    0     1.008  -18.738279   16.660884  -11.663390
  90 H     1.0000    0     1.008  -22.687164   16.410892  -20.232447
  91 H     1.0000    0     1.008  -21.767113   17.858460  -13.774233
  92 H     1.0000    0     1.008  -30.341311   20.174716  -18.606848
  93 H     1.0000    0     1.008  -26.828234   13.999772  -17.079042
  94 H     1.0000    0     1.008  -29.903896   16.613074  -21.211174
  95 H     1.0000    0     1.008  -28.583544   11.066161  -20.036369
  96 H     1.0000    0     1.008  -31.765729    5.574862  -27.701306
  97 H     1.0000    0     1.008  -36.022810   13.954305  -28.865964
  98 H     1.0000    0     1.008  -33.830406    4.407862  -32.433918

--------------------------------
INTERNAL COORDINATES (ANGSTROEM)
--------------------------------
 C      0   0   0     0.000000000000     0.00000000     0.00000000
 C      1   0   0     1.370006890311     0.00000000     0.00000000
 C      2   1   0     1.410176547741   124.27966990     0.00000000
 N      3   2   1     1.147613589236   177.03522443   183.40419329
 C      2   1   3     1.410104750187   123.87416994   179.64144206
 N      5   2   1     1.147818113553   178.04328920   189.90761296
 C      1   2   3     1.460233082491   126.03053547   359.80155353
 C      7   1   2     1.420108305377   109.04527015   181.16646456
 C      8   7   1     1.374580672278   122.62484566   180.23463684
 C      9   8   7     1.398522334251   117.79006038     0.09598128
 C     10   9   8     1.416061872024   119.21523387   359.89745653
 C      7   1   2     1.381243755968   130.75333883     1.43983518
 S     11  10   9     1.735594890203   111.59983151   179.88454495
 C     13  11  10     1.743794122395    90.16785259   359.97608648
 C     14  13  11     1.354910352090   114.05289929     0.02882063
 Br    14  13  11     1.874702393715   119.58117791   180.06251688
 C      8   7   1     1.465421762258   108.82090133   359.80672671
 O     17   8   7     1.228584551995   127.71243253   179.76602550
 C      1   2   3     1.446072300751   126.99462648   180.22165094
 C     19   1   2     1.372204643994   129.69607552   357.36331361
 N     20  19   1     1.338645100167   119.87255951   180.49106947
 C     21  20  19     1.355935605588   127.36743105   178.05656543
 S     22  21  20     1.735887058135   121.64763247   359.92800324
 C     23  22  21     1.732469455575    89.12258798   180.90690557
 N     24  23  22     1.403241891336   118.31124331   179.96979265
 O     25  24  23     1.216442462717   117.33151987   180.94992567
 O     25  24  23     1.216314260790   116.85678942     0.98510836
 C     24  23  22     1.368281891753   113.81007396   359.83925468
 C     22  21  20     1.400611230927   124.75630827   180.66708873
 C     29  22  21     1.442345245668   123.79753910   358.60068839
 C     30  29  22     1.342241183767   124.07839042   174.78036941
 C     31  30  29     1.449361431907   123.73295521   176.26536616
 C     32  31  30     1.362877922083   121.53070232   321.28689344
 S     33  32  31     1.721939064659   115.24705186   185.29638456
 C     34  33  32     1.734740813638    89.90246092   359.21752484
 C     35  34  33     1.422171758228   112.82323688   359.56956622
 C     36  35  34     1.400221660845   117.87181398   185.18385559
 C     37  36  35     1.500528105502   122.01522329   176.18070078
 C     38  37  36     1.532325220833   111.18275426    94.14778787
 C     37  36  35     1.402667537088   116.98007421   356.47348872
 C     40  37  36     1.419901645643   118.40200152     0.90082257
 N     41  40  37     1.313080112331   125.18604326     2.08007123
 S     41  40  37     1.736380254783   112.99189450   179.78873649
 C     43  41  40     1.724026208937    90.04823011     0.12087857
 C     44  43  41     1.359734143537   114.36464629   358.60965779
 N     45  44  43     1.403125494387   123.07600203   182.38473964
 C     46  45  44     1.357019723143   124.87858987    32.87624934
 S     47  46  45     1.733678441782   118.79025787   210.62469009
 C     48  47  46     1.740099125912    89.78586679   180.25924107
 N     49  48  47     1.398624087487   116.76740366   178.63144325
 O     50  49  48     1.214675099605   118.09552080   178.07705377
 O     50  49  48     1.220857830626   116.16921421   358.65258263
 C     49  48  47     1.365857229838   113.24619194   359.45644510
 C     47  46  45     1.402441661674   128.40955440    30.99559022
 C     54  47  46     1.435769375736   124.27346556     3.72494817
 C     55  54  47     1.351624298169   124.28535167   201.22766982
 C     56  55  54     1.417583984285   121.91512434   180.59581800
 C     57  56  55     1.359537552699   128.02163148   174.66685791
 C     58  57  56     1.449320602248   132.43511722   350.07065541
 C     59  58  57     1.370066339306   126.94123825   329.56211108
 C     60  59  58     1.411383002909   123.62363292   184.35595193
 N     61  60  59     1.147460836630   177.39020794   186.08250387
 C     60  59  58     1.410508027733   124.43404818   359.05246924
 N     63  60  59     1.147959104063   176.60593765   206.04763104
 C     59  58  57     1.459881250068   107.09012919   159.43125927
 C     65  59  58     1.418435624235   108.81352760    10.10610003
 C     66  65  59     1.475421559115   109.24486074   357.29336672
 O     67  66  65     1.209158687931   128.09490492   176.86609894
 C     66  65  59     1.373977390607   122.46336792   178.33643749
 C     69  66  65     1.398689436330   117.83523828     0.56966131
 C     70  69  66     1.416114665837   119.25851686     0.14417506
 C     65  59  58     1.381943156031   130.75896213   189.24474288
 S     71  70  69     1.736783083692   111.59873229   179.46217724
 C     73  71  70     1.743902324501    90.13303237     0.14032189
 C     74  73  71     1.354408121875   114.09517884   359.92890415
 Br    74  73  71     1.875004882847   119.55458318   180.04494517
 H      9   8   7     1.078702535734   120.99890472   179.94649803
 H     12   7   1     1.077136206150   122.61261087   359.79781853
 H     15  14  13     1.074638108574   123.90636465   180.03374924
 H     20  19   1     1.082313745824   122.68001037     0.06817007
 H     21  20  19     1.036994568404   113.39543933   359.82521995
 H     28  24  23     1.074082259466   121.60747997   180.53516856
 H     30  29  22     1.080915139824   117.20368123   355.79429212
 H     31  30  29     1.078165109480   119.73156299   359.42805864
 H     33  32  31     1.072812514329   126.12733733     1.96959977
 H     38  37  36     1.090417737108   109.29291404   332.92812517
 H     38  37  36     1.090652505109   109.33033359   215.62648898
 H     39  38  37     1.087834920059   110.86691000   298.24629881
 H     39  38  37     1.087349102956   110.33974592   177.91757128
 H     39  38  37     1.088804081734   111.43417051    57.00172663
 H     44  43  41     1.072279149662   119.14676063   180.22545580
 H     46  45  44     1.011764058563   116.04136907   235.82166723
 H     53  49  48     1.075430440475   122.58765716   176.56703146
 H     55  54  47     1.081502893200   116.82483428    22.95225927
 H     56  55  54     1.079070919912   119.52193826     3.59745548
 H     57  56  55     1.085566535271   116.81568980   349.35769457
 H     69  66  65     1.078675734454   120.92229395   180.44274928
 H     72  65  59     1.077424052497   122.61240041     2.14727143
 H     75  74  73     1.074681853201   123.93162325   180.04625801

---------------------------
INTERNAL COORDINATES (A.U.)
---------------------------
 C      0   0   0     0.000000000000     0.00000000     0.00000000
 C      1   0   0     2.588937824273     0.00000000     0.00000000
 C      2   1   0     2.664847475710   124.27966990     0.00000000
 N      3   2   1     2.168675391223   177.03522443   183.40419329
 C      2   1   3     2.664711797995   123.87416994   179.64144206
 N      5   2   1     2.169061886169   178.04328920   189.90761296
 C      1   2   3     2.759440617599   126.03053547   359.80155353
 C      7   1   2     2.683615777669   109.04527015   181.16646456
 C      8   7   1     2.597581019587   122.62484566   180.23463684
 C      9   8   7     2.642824203907   117.79006038     0.09598128
 C     10   9   8     2.675969126813   119.21523387   359.89745653
 C      7   1   2     2.610172422968   130.75333883     1.43983518
 S     11  10   9     3.279799021917   111.59983151   179.88454495
 C     13  11  10     3.295293325268    90.16785259   359.97608648
 C     14  13  11     2.560409501464   114.05289929     0.02882063
 Br    14  13  11     3.542674106728   119.58117791   180.06251688
 C      8   7   1     2.769245801356   108.82090133   359.80672671
 O     17   8   7     2.321688335636   127.71243253   179.76602550
 C      1   2   3     2.732680618269   126.99462648   180.22165094
 C     19   1   2     2.593090976844   129.69607552   357.36331361
 N     20  19   1     2.529672629830   119.87255951   180.49106947
 C     21  20  19     2.562346949793   127.36743105   178.05656543
 S     22  21  20     3.280351139293   121.64763247   359.92800324
 C     23  22  21     3.273892806420    89.12258798   180.90690557
 N     24  23  22     2.651742874271   118.31124331   179.96979265
 O     25  24  23     2.298743112207   117.33151987   180.94992567
 O     25  24  23     2.298500845675   116.85678942     0.98510836
 C     24  23  22     2.585678049417   113.81007396   359.83925468
 C     22  21  20     2.646771646547   124.75630827   180.66708873
 C     29  22  21     2.725637504875   123.79753910   358.60068839
 C     30  29  22     2.536468242990   124.07839042   174.78036941
 C     31  30  29     2.738896175373   123.73295521   176.26536616
 C     32  31  30     2.575466026704   121.53070232   321.28689344
 S     33  32  31     3.253993251507   115.24705186   185.29638456
 C     34  33  32     3.278185051111    89.90246092   359.21752484
 C     35  34  33     2.687515138447   112.82323688   359.56956622
 C     36  35  34     2.646035465782   117.87181398   185.18385559
 C     37  36  35     2.835587175650   122.01522329   176.18070078
 C     38  37  36     2.895675015474   111.18275426    94.14778787
 C     37  36  35     2.650657502038   116.98007421   356.47348872
 C     40  37  36     2.683225247370   118.40200152     0.90082257
 N     41  40  37     2.481361804205   125.18604326     2.08007123
 S     41  40  37     3.281283145888   112.99189450   179.78873649
 C     43  41  40     3.257937382593    90.04823011     0.12087857
 C     44  43  41     2.569525146227   114.36464629   358.60965779
 N     45  44  43     2.651522915915   123.07600203   182.38473964
 C     46  45  44     2.564395635071   124.87858987    32.87624934
 S     47  46  45     3.276177459252   118.79025787   210.62469009
 C     48  47  46     3.288310793850    89.78586679   180.25924107
 N     49  48  47     2.643016489657   116.76740366   178.63144325
 O     50  49  48     2.295403279947   118.09552080   178.07705377
 O     50  49  48     2.307086948336   116.16921421   358.65258263
 C     49  48  47     2.581096102430   113.24619194   359.45644510
 C     47  46  45     2.650230659366   128.40955440    30.99559022
 C     54  47  46     2.713210911611   124.27346556     3.72494817
 C     55  54  47     2.554199759492   124.28535167   201.22766982
 C     56  55  54     2.678845502131   121.91512434   180.59581800
 C     57  56  55     2.569153643383   128.02163148   174.66685791
 C     58  57  56     2.738819018498   132.43511722   350.07065541
 C     59  58  57     2.589050166593   126.94123825   329.56211108
 C     60  59  58     2.667127345569   123.62363292   184.35595193
 N     61  60  59     2.168386730631   177.39020794   186.08250387
 C     60  59  58     2.665473882113   124.43404818   359.05246924
 N     63  60  59     2.169328319620   176.60593765   206.04763104
 C     59  58  57     2.758775750675   107.09012919   159.43125927
 C     65  59  58     2.680454868402   108.81352760    10.10610003
 C     66  65  59     2.788142678810   109.24486074   357.29336672
 O     67  66  65     2.284978772642   128.09490492   176.86609894
 C     66  65  59     2.596440982448   122.46336792   178.33643749
 C     69  66  65     2.643139981072   117.83523828     0.56966131
 C     70  69  66     2.676068892662   119.25851686     0.14417506
 C     65  59  58     2.611494097545   130.75896213   189.24474288
 S     71  70  69     3.282044382206   111.59873229   179.46217724
 C     73  71  70     3.295497797616    90.13303237     0.14032189
 C     74  73  71     2.559460423902   114.09517884   359.92890415
 Br    74  73  71     3.543245728346   119.55458318   180.04494517
 H      9   8   7     2.038452372505   120.99890472   179.94649803
 H     12   7   1     2.035492438555   122.61261087   359.79781853
 H     15  14  13     2.030771718280   123.90636465   180.03374924
 H     20  19   1     2.045276570586   122.68001037     0.06817007
 H     21  20  19     1.959635736648   113.39543933   359.82521995
 H     28  24  23     2.029721315694   121.60747997   180.53516856
 H     30  29  22     2.042633588276   117.20368123   355.79429212
 H     31  30  29     2.037436784066   119.73156299   359.42805864
 H     33  32  31     2.027321845124   126.12733733     1.96959977
 H     38  37  36     2.060590894704   109.29291404   332.92812517
 H     38  37  36     2.061034541931   109.33033359   215.62648898
 H     39  38  37     2.055710077828   110.86691000   298.24629881
 H     39  38  37     2.054792016552   110.33974592   177.91757128
 H     39  38  37     2.057541527972   111.43417051    57.00172663
 H     44  43  41     2.026313931975   119.14676063   180.22545580
 H     46  45  44     1.911956982829   116.04136907   235.82166723
 H     53  49  48     2.032269008580   122.58765716   176.56703146
 H     55  54  47     2.043744281192   116.82483428    22.95225927
 H     56  55  54     2.039148517712   119.52193826     3.59745548
 H     57  56  55     2.051423451812   116.81568980   349.35769457
 H     69  66  65     2.038401725425   120.92229395   180.44274928
 H     72  65  59     2.036036389320   122.61240041     2.14727143
 H     75  74  73     2.030854383645   123.93162325   180.04625801

---------------------
BASIS SET INFORMATION
---------------------
There are 6 groups of distinct atoms

 Group   1 Type C   : 7s4p1d contracted to 3s2p1d pattern {511/31/1}
 Group   2 Type N   : 7s4p1d contracted to 3s2p1d pattern {511/31/1}
 Group   3 Type S   : 10s7p1d contracted to 4s3p1d pattern {5311/511/1}
 Group   4 Type Br  : 14s10p6d contracted to 5s4p3d pattern {63311/5311/411}
 Group   5 Type O   : 7s4p1d contracted to 3s2p1d pattern {511/31/1}
 Group   6 Type H   : 4s1p contracted to 2s1p pattern {31/1}

Atom   0C    basis set group =>   1
Atom   1C    basis set group =>   1
Atom   2C    basis set group =>   1
Atom   3N    basis set group =>   2
Atom   4C    basis set group =>   1
Atom   5N    basis set group =>   2
Atom   6C    basis set group =>   1
Atom   7C    basis set group =>   1
Atom   8C    basis set group =>   1
Atom   9C    basis set group =>   1
Atom  10C    basis set group =>   1
Atom  11C    basis set group =>   1
Atom  12S    basis set group =>   3
Atom  13C    basis set group =>   1
Atom  14C    basis set group =>   1
Atom  15Br   basis set group =>   4
Atom  16C    basis set group =>   1
Atom  17O    basis set group =>   5
Atom  18C    basis set group =>   1
Atom  19C    basis set group =>   1
Atom  20N    basis set group =>   2
Atom  21C    basis set group =>   1
Atom  22S    basis set group =>   3
Atom  23C    basis set group =>   1
Atom  24N    basis set group =>   2
Atom  25O    basis set group =>   5
Atom  26O    basis set group =>   5
Atom  27C    basis set group =>   1
Atom  28C    basis set group =>   1
Atom  29C    basis set group =>   1
Atom  30C    basis set group =>   1
Atom  31C    basis set group =>   1
Atom  32C    basis set group =>   1
Atom  33S    basis set group =>   3
Atom  34C    basis set group =>   1
Atom  35C    basis set group =>   1
Atom  36C    basis set group =>   1
Atom  37C    basis set group =>   1
Atom  38C    basis set group =>   1
Atom  39C    basis set group =>   1
Atom  40C    basis set group =>   1
Atom  41N    basis set group =>   2
Atom  42S    basis set group =>   3
Atom  43C    basis set group =>   1
Atom  44C    basis set group =>   1
Atom  45N    basis set group =>   2
Atom  46C    basis set group =>   1
Atom  47S    basis set group =>   3
Atom  48C    basis set group =>   1
Atom  49N    basis set group =>   2
Atom  50O    basis set group =>   5
Atom  51O    basis set group =>   5
Atom  52C    basis set group =>   1
Atom  53C    basis set group =>   1
Atom  54C    basis set group =>   1
Atom  55C    basis set group =>   1
Atom  56C    basis set group =>   1
Atom  57C    basis set group =>   1
Atom  58C    basis set group =>   1
Atom  59C    basis set group =>   1
Atom  60C    basis set group =>   1
Atom  61N    basis set group =>   2
Atom  62C    basis set group =>   1
Atom  63N    basis set group =>   2
Atom  64C    basis set group =>   1
Atom  65C    basis set group =>   1
Atom  66C    basis set group =>   1
Atom  67O    basis set group =>   5
Atom  68C    basis set group =>   1
Atom  69C    basis set group =>   1
Atom  70C    basis set group =>   1
Atom  71C    basis set group =>   1
Atom  72S    basis set group =>   3
Atom  73C    basis set group =>   1
Atom  74C    basis set group =>   1
Atom  75Br   basis set group =>   4
Atom  76H    basis set group =>   6
Atom  77H    basis set group =>   6
Atom  78H    basis set group =>   6
Atom  79H    basis set group =>   6
Atom  80H    basis set group =>   6
Atom  81H    basis set group =>   6
Atom  82H    basis set group =>   6
Atom  83H    basis set group =>   6
Atom  84H    basis set group =>   6
Atom  85H    basis set group =>   6
Atom  86H    basis set group =>   6
Atom  87H    basis set group =>   6
Atom  88H    basis set group =>   6
Atom  89H    basis set group =>   6
Atom  90H    basis set group =>   6
Atom  91H    basis set group =>   6
Atom  92H    basis set group =>   6
Atom  93H    basis set group =>   6
Atom  94H    basis set group =>   6
Atom  95H    basis set group =>   6
Atom  96H    basis set group =>   6
Atom  97H    basis set group =>   6
Atom  98H    basis set group =>   6
---------------------------------
AUXILIARY/J BASIS SET INFORMATION
---------------------------------
There are 6 groups of distinct atoms

 Group   1 Type C   : 12s5p4d2f1g contracted to 6s4p3d1f1g pattern {711111/2111/211/2/1}
 Group   2 Type N   : 12s5p4d2f1g contracted to 6s4p3d1f1g pattern {711111/2111/211/2/1}
 Group   3 Type S   : 14s5p5d2f1g contracted to 8s4p3d1f1g pattern {71111111/2111/311/2/1}
 Group   4 Type Br  : 19s5p5d3f1g contracted to 8s4p3d2f1g pattern {121111111/2111/311/21/1}
 Group   5 Type O   : 12s5p4d2f1g contracted to 6s4p3d1f1g pattern {711111/2111/211/2/1}
 Group   6 Type H   : 5s2p1d contracted to 3s1p1d pattern {311/2/1}

Atom   0C    basis set group =>   1
Atom   1C    basis set group =>   1
Atom   2C    basis set group =>   1
Atom   3N    basis set group =>   2
Atom   4C    basis set group =>   1
Atom   5N    basis set group =>   2
Atom   6C    basis set group =>   1
Atom   7C    basis set group =>   1
Atom   8C    basis set group =>   1
Atom   9C    basis set group =>   1
Atom  10C    basis set group =>   1
Atom  11C    basis set group =>   1
Atom  12S    basis set group =>   3
Atom  13C    basis set group =>   1
Atom  14C    basis set group =>   1
Atom  15Br   basis set group =>   4
Atom  16C    basis set group =>   1
Atom  17O    basis set group =>   5
Atom  18C    basis set group =>   1
Atom  19C    basis set group =>   1
Atom  20N    basis set group =>   2
Atom  21C    basis set group =>   1
Atom  22S    basis set group =>   3
Atom  23C    basis set group =>   1
Atom  24N    basis set group =>   2
Atom  25O    basis set group =>   5
Atom  26O    basis set group =>   5
Atom  27C    basis set group =>   1
Atom  28C    basis set group =>   1
Atom  29C    basis set group =>   1
Atom  30C    basis set group =>   1
Atom  31C    basis set group =>   1
Atom  32C    basis set group =>   1
Atom  33S    basis set group =>   3
Atom  34C    basis set group =>   1
Atom  35C    basis set group =>   1
Atom  36C    basis set group =>   1
Atom  37C    basis set group =>   1
Atom  38C    basis set group =>   1
Atom  39C    basis set group =>   1
Atom  40C    basis set group =>   1
Atom  41N    basis set group =>   2
Atom  42S    basis set group =>   3
Atom  43C    basis set group =>   1
Atom  44C    basis set group =>   1
Atom  45N    basis set group =>   2
Atom  46C    basis set group =>   1
Atom  47S    basis set group =>   3
Atom  48C    basis set group =>   1
Atom  49N    basis set group =>   2
Atom  50O    basis set group =>   5
Atom  51O    basis set group =>   5
Atom  52C    basis set group =>   1
Atom  53C    basis set group =>   1
Atom  54C    basis set group =>   1
Atom  55C    basis set group =>   1
Atom  56C    basis set group =>   1
Atom  57C    basis set group =>   1
Atom  58C    basis set group =>   1
Atom  59C    basis set group =>   1
Atom  60C    basis set group =>   1
Atom  61N    basis set group =>   2
Atom  62C    basis set group =>   1
Atom  63N    basis set group =>   2
Atom  64C    basis set group =>   1
Atom  65C    basis set group =>   1
Atom  66C    basis set group =>   1
Atom  67O    basis set group =>   5
Atom  68C    basis set group =>   1
Atom  69C    basis set group =>   1
Atom  70C    basis set group =>   1
Atom  71C    basis set group =>   1
Atom  72S    basis set group =>   3
Atom  73C    basis set group =>   1
Atom  74C    basis set group =>   1
Atom  75Br   basis set group =>   4
Atom  76H    basis set group =>   6
Atom  77H    basis set group =>   6
Atom  78H    basis set group =>   6
Atom  79H    basis set group =>   6
Atom  80H    basis set group =>   6
Atom  81H    basis set group =>   6
Atom  82H    basis set group =>   6
Atom  83H    basis set group =>   6
Atom  84H    basis set group =>   6
Atom  85H    basis set group =>   6
Atom  86H    basis set group =>   6
Atom  87H    basis set group =>   6
Atom  88H    basis set group =>   6
Atom  89H    basis set group =>   6
Atom  90H    basis set group =>   6
Atom  91H    basis set group =>   6
Atom  92H    basis set group =>   6
Atom  93H    basis set group =>   6
Atom  94H    basis set group =>   6
Atom  95H    basis set group =>   6
Atom  96H    basis set group =>   6
Atom  97H    basis set group =>   6
Atom  98H    basis set group =>   6


           ************************************************************
           *        Program running with 6 parallel MPI-processes     *
           *              working on a common directory               *
           ************************************************************
------------------------------------------------------------------------------
                           ORCA GTO INTEGRAL CALCULATION
                           -- RI-GTO INTEGRALS CHOSEN --
------------------------------------------------------------------------------

                         BASIS SET STATISTICS AND STARTUP INFO

Gaussian basis set:
 # of primitive gaussian shells          ... 1099
 # of primitive gaussian functions       ... 2157
 # of contracted shells                  ...  549
 # of contracted basis functions         ... 1239
 Highest angular momentum                ...    2
 Maximum contraction depth               ...    6
Auxiliary gaussian basis set:
 # of primitive gaussian shells          ... 2044
 # of primitive gaussian functions       ... 5768
 # of contracted shells                  ... 1273
 # of contracted aux-basis functions     ... 4007
 Highest angular momentum                ...    4
 Maximum contraction depth               ...   12
Ratio of auxiliary to basis functions    ...  3.23
Integral package used                  ... LIBINT
 One Electron integrals                  ... done
 Ordering auxiliary basis shells         ... done
 Integral threshhold             Thresh  ...  2.500e-11
 Primitive cut-off               TCut    ...  2.500e-12
 Pre-screening matrix                    ... done
 Shell pair data                         ... 
 Ordering of the shell pairs             ... done (   0.008 sec) 45030 of 150975 pairs
 Determination of significant pairs      ... done (   0.000 sec)
 Creation of shell pair data             ... done (   0.007 sec)
 Storage of shell pair data              ... done (   0.008 sec)
 Shell pair data done in (   0.023 sec)
 Computing two index integrals           ... done
 Cholesky decomposition of the V-matrix  ... done


Timings:
 Total evaluation time                   ...   2.494 sec (  0.042 min)
 One electron matrix time                ...   0.532 sec (  0.009 min) = 21.3%
 Schwartz matrix evaluation time         ...   0.829 sec (  0.014 min) = 33.2%
 Two index repulsion integral time       ...   0.410 sec (  0.007 min) = 16.4%
 Cholesky decomposition of V             ...   0.684 sec (  0.011 min) = 27.4%
 Three index repulsion integral time     ...   0.000 sec (  0.000 min) =  0.0%



           ************************************************************
           *        Program running with 6 parallel MPI-processes     *
           *              working on a common directory               *
           ************************************************************
-------------------------------------------------------------------------------
                                 ORCA SCF
-------------------------------------------------------------------------------

------------
SCF SETTINGS
------------
Hamiltonian:
 Density Functional     Method          .... DFT(GTOs)
 Exchange Functional    Exchange        .... WB88
 Correlation Functional Correlation     .... LYP
 LDA part of GGA corr.  LDAOpt          .... VWN-5
 Gradients option       PostSCFGGA      .... off
 Hybrid DFT is turned on
   Fraction HF Exchange ScalHFX         ....  0.190000
   Scaling of DF-GGA-X  ScalDFX         ....  0.350000
   Scaling of DF-GGA-C  ScalDFC         ....  0.810000
   Scaling of DF-LDA-C  ScalLDAC        ....  1.000000
   Perturbative correction              ....  0.000000
   Density functional embedding theory  .... OFF
 Long-range corrected/Screened/Range-Separated Hybrid DFT is turned on
   Amount of maximum screened exact exchange              ....  0.460000
   Range separation parameter mu (erf(mu*r12)/r12)        ....  0.330000
 RI-approximation to the Coulomb term is turned on
   Number of auxiliary basis functions  .... 4007
   RIJ-COSX (HFX calculated with COS-X)).... on


General Settings:
 Integral files         IntName         .... xtbopt
 Hartree-Fock type      HFTyp           .... RHF
 Total Charge           Charge          ....    0
 Multiplicity           Mult            ....    1
 Number of Electrons    NEL             ....  618
 Basis Dimension        Dim             .... 1239
 Nuclear Repulsion      ENuc            ....  13227.1695933070 Eh

Convergence Acceleration:
 DIIS                   CNVDIIS         .... on
   Start iteration      DIISMaxIt       ....    12
   Startup error        DIISStart       ....  0.200000
   # of expansion vecs  DIISMaxEq       ....     5
   Bias factor          DIISBfac        ....   1.050
   Max. coefficient     DIISMaxC        ....  10.000
 Newton-Raphson         CNVNR           .... off
 SOSCF                  CNVSOSCF        .... on
   Start iteration      SOSCFMaxIt      ....   150
   Startup grad/error   SOSCFStart      ....  0.003300
 Level Shifting         CNVShift        .... on
   Level shift para.    LevelShift      ....    0.2500
   Turn off err/grad.   ShiftErr        ....    0.0010
 Zerner damping         CNVZerner       .... off
 Static damping         CNVDamp         .... on
   Fraction old density DampFac         ....    0.7000
   Max. Damping (<1)    DampMax         ....    0.9800
   Min. Damping (>=0)   DampMin         ....    0.0000
   Turn off err/grad.   DampErr         ....    0.1000
 Fernandez-Rico         CNVRico         .... off

SCF Procedure:
 Maximum # iterations   MaxIter         ....   125
 SCF integral mode      SCFMode         .... Direct
   Integral package                     .... LIBINT
 Reset frequency        DirectResetFreq ....    20
 Integral Threshold     Thresh          ....  2.500e-11 Eh
 Primitive CutOff       TCut            ....  2.500e-12 Eh

Convergence Tolerance:
 Convergence Check Mode ConvCheckMode   .... Total+1el-Energy
 Convergence forced     ConvForced      .... 1
 Energy Change          TolE            ....  1.000e-08 Eh
 1-El. energy change                    ....  1.000e-05 Eh
 Orbital Gradient       TolG            ....  1.000e-05
 Orbital Rotation angle TolX            ....  1.000e-05
 DIIS Error             TolErr          ....  5.000e-07


Diagonalization of the overlap matrix:
Smallest eigenvalue                        ... 1.966e-04
Time for diagonalization                   ...    0.221 sec
Threshold for overlap eigenvalues          ... 1.000e-08
Number of eigenvalues below threshold      ... 0
Time for construction of square roots      ...    0.183 sec
Total time needed                          ...    0.408 sec

-------------------
DFT GRID GENERATION
-------------------

General Integration Accuracy     IntAcc      ...  4.670
Radial Grid Type                 RadialGrid  ... Gauss-Chebyshev
Angular Grid (max. acc.)         AngularGrid ... Lebedev-302
Angular grid pruning method      GridPruning ... 3 (G Style)
Weight generation scheme         WeightScheme... Becke
Basis function cutoff            BFCut       ...    1.0000e-11
Integration weight cutoff        WCut        ...    1.0000e-14
Grids for H and He will be reduced by one unit

# of grid points (after initial pruning)     ... 560786 (   0.0 sec)
# of grid points (after weights+screening)   ... 483169 (   6.0 sec)
nearest neighbour list constructed           ...    0.0 sec
Grid point re-assignment to atoms done       ...    0.1 sec
Grid point division into batches done        ...    1.6 sec
Reduced shell lists constructed in    2.6 sec

Total number of grid points                  ...   483169
Total number of batches                      ...     7601
Average number of points per batch           ...       63
Average number of grid points per atom       ...     4880
Average number of shells per batch           ...    73.74 (13.43%)
Average number of basis functions per batch  ...   160.89 (12.99%)
Average number of large shells per batch     ...    48.08 (65.20%)
Average number of large basis fcns per batch ...   106.26 (66.04%)
Maximum spatial batch extension              ...  20.47, 18.40, 18.30 au
Average spatial batch extension              ...   0.42,  0.39,  0.36 au

Time for grid setup =    9.034 sec

------------------------------
INITIAL GUESS: MODEL POTENTIAL
------------------------------
Loading Hartree-Fock densities                     ... done
Calculating cut-offs                               ... done
Setting up the integral package                    ... done
Initializing the effective Hamiltonian             ... done
Starting the Coulomb interaction                   ... done (   1.3 sec)
Reading the grid                                   ... done
Mapping shells                                     ... done
Starting the XC term evaluation                    ... done (   1.3 sec)
  promolecular density results
     # of electrons  =    617.987131396
     EX              =   -713.926075808
     EC              =    -22.635165642
     EX+EC           =   -736.561241450
Transforming the Hamiltonian                       ... done (   0.1 sec)
Diagonalizing the Hamiltonian                      ... done (   0.2 sec)
Back transforming the eigenvectors                 ... done (   0.1 sec)
Now organizing SCF variables                       ... done
                      ------------------
                      INITIAL GUESS DONE (  12.2 sec)
                      ------------------
--------------------
COSX GRID GENERATION
--------------------

General Integration Accuracy     IntAcc      ...  3.340
Radial Grid Type                 RadialGrid  ... Gauss-Chebyshev
Angular Grid (max. acc.)         AngularGrid ... Lebedev-50
Angular grid pruning method      GridPruning ... 3 (G Style)
Weight generation scheme         WeightScheme... Becke
Basis function cutoff            BFCut       ...    1.0000e-11
Integration weight cutoff        WCut        ...    1.0000e-14
Grids for H and He will be reduced by one unit

# of grid points (after initial pruning)     ...  52994 (   0.0 sec)
# of grid points (after weights+screening)   ...  47767 (   0.6 sec)
nearest neighbour list constructed           ...    0.0 sec
Grid point re-assignment to atoms done       ...    0.0 sec
Grid point division into batches done        ...    0.0 sec
Reduced shell lists constructed in    0.1 sec

Total number of grid points                  ...    47767
Total number of batches                      ...      801
Average number of points per batch           ...       59
Average number of grid points per atom       ...      482
Average number of shells per batch           ...    89.24 (16.25%)
Average number of basis functions per batch  ...   196.02 (15.82%)
Average number of large shells per batch     ...    57.92 (64.90%)
Average number of large basis fcns per batch ...   129.74 (66.19%)
Maximum spatial batch extension              ...  29.24, 18.20, 18.93 au
Average spatial batch extension              ...   0.99,  0.84,  0.68 au

Overlap Fitting                  UseSFitting ... on
Constructing numerical overlap ... done (      0.1 sec)
Inverting numerical overlap    ... done (      0.1 sec)
Obtaining analytic overlap     ... done (      0.0 sec)
Final contraction and storage  ... done (      0.1 sec)


General Integration Accuracy     IntAcc      ...  3.670
Radial Grid Type                 RadialGrid  ... Gauss-Chebyshev
Angular Grid (max. acc.)         AngularGrid ... Lebedev-50
Angular grid pruning method      GridPruning ... 3 (G Style)
Weight generation scheme         WeightScheme... Becke
Basis function cutoff            BFCut       ...    1.0000e-11
Integration weight cutoff        WCut        ...    1.0000e-14
Grids for H and He will be reduced by one unit

# of grid points (after initial pruning)     ...  65812 (   0.0 sec)
# of grid points (after weights+screening)   ...  59049 (   0.7 sec)
nearest neighbour list constructed           ...    0.0 sec
Grid point re-assignment to atoms done       ...    0.0 sec
Grid point division into batches done        ...    0.0 sec
Reduced shell lists constructed in    0.2 sec

Total number of grid points                  ...    59049
Total number of batches                      ...      974
Average number of points per batch           ...       60
Average number of grid points per atom       ...      596
Average number of shells per batch           ...    88.79 (16.17%)
Average number of basis functions per batch  ...   195.09 (15.75%)
Average number of large shells per batch     ...    57.43 (64.69%)
Average number of large basis fcns per batch ...   128.74 (65.99%)
Maximum spatial batch extension              ...  20.45, 19.26, 20.46 au
Average spatial batch extension              ...   0.92,  0.79,  0.63 au

Overlap Fitting                  UseSFitting ... on
Constructing numerical overlap ... done (      0.1 sec)
Inverting numerical overlap    ... done (      0.1 sec)
Obtaining analytic overlap     ... done (      0.0 sec)
Final contraction and storage  ... done (      0.1 sec)


General Integration Accuracy     IntAcc      ...  4.010
Radial Grid Type                 RadialGrid  ... Gauss-Chebyshev
Angular Grid (max. acc.)         AngularGrid ... Lebedev-110
Angular grid pruning method      GridPruning ... 3 (G Style)
Weight generation scheme         WeightScheme... Becke
Basis function cutoff            BFCut       ...    1.0000e-11
Integration weight cutoff        WCut        ...    1.0000e-14
Grids for H and He will be reduced by one unit

# of grid points (after initial pruning)     ... 129868 (   0.0 sec)
# of grid points (after weights+screening)   ... 115352 (   1.4 sec)
nearest neighbour list constructed           ...    0.0 sec
Grid point re-assignment to atoms done       ...    0.0 sec
Grid point division into batches done        ...    0.1 sec
Reduced shell lists constructed in    0.4 sec

Total number of grid points                  ...   115352
Total number of batches                      ...     1853
Average number of points per batch           ...       62
Average number of grid points per atom       ...     1165
Average number of shells per batch           ...    83.02 (15.12%)
Average number of basis functions per batch  ...   181.99 (14.69%)
Average number of large shells per batch     ...    54.44 (65.57%)
Average number of large basis fcns per batch ...   121.53 (66.78%)
Maximum spatial batch extension              ...  17.38, 16.91, 15.75 au
Average spatial batch extension              ...   0.72,  0.65,  0.54 au

Overlap Fitting                  UseSFitting ... on
Constructing numerical overlap ... done (      0.1 sec)
Inverting numerical overlap    ... done (      0.1 sec)
Obtaining analytic overlap     ... done (      0.0 sec)
Final contraction and storage  ... done (      0.1 sec)

Time for X-Grid setup             =    4.450 sec
--------------
SCF ITERATIONS
--------------
ITER       Energy         Delta-E        Max-DP      RMS-DP      [F,P]     Damp
               ***  Starting incremental Fock matrix formation  ***
  0 -10508.4487444401   0.000000000000 0.07932022  0.00093471  0.2278957 0.7000
  1 -10509.1347067295  -0.685962289443 0.04231343  0.00065105  0.0950787 0.7000
                               ***Turning on DIIS***
  2 -10509.4150412682  -0.280334538629 0.08278405  0.00115892  0.0409622 0.0000
  3 -10509.8774214375  -0.462380169287 0.03950496  0.00048678  0.0542498 0.0000
  4 -10509.9678114911  -0.090390053650 0.01552600  0.00016226  0.0210060 0.0000
  5 -10509.9745061255  -0.006694634412 0.00717332  0.00006588  0.0082493 0.0000
                      *** Initiating the SOSCF procedure ***
                           *** Shutting down DIIS ***
                      *** Re-Reading the Fockian *** 
                      *** Removing any level shift *** 
ITER      Energy       Delta-E        Grad      Rot      Max-DP    RMS-DP
  6 -10509.97569340  -0.0011872701  0.001684  0.001684  0.002585  0.000034
               *** Restarting incremental Fock matrix formation ***
  7 -10509.97603670  -0.0003433008  0.001163  0.006381  0.001923  0.000032
  8 -10509.97625506  -0.0002183610  0.000744  0.006342  0.002205  0.000035
  9 -10509.97625661  -0.0000015510  0.001329  0.001795  0.001479  0.000013
 10 -10509.97631416  -0.0000575541  0.000265  0.000631  0.000587  0.000006
 11 -10509.97631279   0.0000013693  0.000187  0.000485  0.000342  0.000004
 12 -10509.97631764  -0.0000048508  0.000018  0.000084  0.000085  0.000001
 13 -10509.97631768  -0.0000000399  0.000020  0.000036  0.000050  0.000001
 14 -10509.97631776  -0.0000000802  0.000007  0.000020  0.000027  0.000000
 15 -10509.97631774   0.0000000238  0.000013  0.000013  0.000017  0.000000
                  ***Gradient check signals convergence***
              ***Rediagonalizing the Fockian in SOSCF/NRSCF***

               *****************************************************
               *                     SUCCESS                       *
               *           SCF CONVERGED AFTER  16 CYCLES          *
               *****************************************************

Setting up the final grid:

General Integration Accuracy     IntAcc      ...  5.010
Radial Grid Type                 RadialGrid  ... Gauss-Chebyshev
Angular Grid (max. acc.)         AngularGrid ... Lebedev-434
Angular grid pruning method      GridPruning ... 3 (G Style)
Weight generation scheme         WeightScheme... Becke
Basis function cutoff            BFCut       ...    1.0000e-11
Integration weight cutoff        WCut        ...    1.0000e-14
Grids for H and He will be reduced by one unit

# of grid points (after initial pruning)     ... 983660 (   0.0 sec)
# of grid points (after weights+screening)   ... 844152 (  10.2 sec)
nearest neighbour list constructed           ...    0.0 sec
Grid point re-assignment to atoms done       ...    0.1 sec
Grid point division into batches done        ...    5.0 sec
Reduced shell lists constructed in    6.7 sec

Total number of grid points                  ...   844152
Total number of batches                      ...    13239
Average number of points per batch           ...       63
Average number of grid points per atom       ...     8527
Average number of shells per batch           ...    70.84 (12.90%)
Average number of basis functions per batch  ...   154.26 (12.45%)
Average number of large shells per batch     ...    46.21 (65.24%)
Average number of large basis fcns per batch ...   102.07 (66.16%)
Maximum spatial batch extension              ...  21.21, 18.08, 17.08 au
Average spatial batch extension              ...   0.34,  0.33,  0.31 au

Final grid set up in   17.7 sec
Final integration                            ... done (   2.7 sec)
Change in XC energy                          ...    -0.000343047
Integrated number of electrons               ...   618.000034206
Previous integrated no of electrons          ...   617.999254988
Old exchange energy                            =   -185.841070730 Eh
New exchange energy                            =   -185.840537343 Eh
Exchange energy change after final integration =      0.000533387 Eh
Total energy after final integration           = -10509.976127385 Eh
Final COS-X integration done in                =    57.564 sec

----------------
TOTAL SCF ENERGY
----------------

Total Energy       :       -10509.97612739 Eh         -285990.98993 eV

Components:
Nuclear Repulsion  :        13227.16959331 Eh          359929.58310 eV
Electronic Energy  :       -23737.14572069 Eh         -645920.57303 eV
One Electron Energy:       -40863.43942861 Eh        -1111950.71733 eV
Two Electron Energy:        17126.29370791 Eh          466030.14431 eV

Virial components:
Potential Energy   :       -20982.04280231 Eh         -570950.41121 eV
Kinetic Energy     :        10472.06667492 Eh          284959.42128 eV
Virial Ratio       :            2.00362005


DFT components:
N(Alpha)           :      309.000017102892 electrons
N(Beta)            :      309.000017102892 electrons
N(Total)           :      618.000034205784 electrons
E(XC)              :     -559.656111247831 Eh       
DFET-embed. en.    :        0.000000000000 Eh       

---------------
SCF CONVERGENCE
---------------

  Last Energy change         ...    1.5363e-08  Tolerance :   1.0000e-08
  Last MAX-Density change    ...    7.1054e-15  Tolerance :   1.0000e-07
  Last RMS-Density change    ...    3.7833e-17  Tolerance :   5.0000e-09
  Last Orbital Gradient      ...    1.5927e-06  Tolerance :   1.0000e-05
  Last Orbital Rotation      ...    8.1174e-06  Tolerance :   1.0000e-05

             **** THE GBW FILE WAS UPDATED (xtbopt.gbw) ****
             **** DENSITY FILE WAS UPDATED (xtbopt.scfp) ****
             **** ENERGY FILE WAS UPDATED (xtbopt.en.tmp) ****
             **** THE GBW FILE WAS UPDATED (xtbopt.gbw) ****
             **** DENSITY FILE WAS UPDATED (xtbopt.scfp) ****
----------------
ORBITAL ENERGIES
----------------

  NO   OCC          E(Eh)            E(eV) 
   0   2.0000    -482.893607    -13140.2031 
   1   2.0000    -482.888306    -13140.0588 
   2   2.0000     -88.999634     -2421.8032 
   3   2.0000     -88.987562     -2421.4747 
   4   2.0000     -88.985839     -2421.4278 
   5   2.0000     -88.978604     -2421.2309 
   6   2.0000     -88.969229     -2420.9758 
   7   2.0000     -88.965595     -2420.8769 
   8   2.0000     -62.571333     -1702.6525 
   9   2.0000     -62.566008     -1702.5076 
  10   2.0000     -56.405295     -1534.8661 
  11   2.0000     -56.402556     -1534.7916 
  12   2.0000     -56.402527     -1534.7908 
  13   2.0000     -56.399960     -1534.7209 
  14   2.0000     -56.397240     -1534.6469 
  15   2.0000     -56.397211     -1534.6461 
  16   2.0000     -19.248648      -523.7823 
  17   2.0000     -19.247358      -523.7472 
  18   2.0000     -19.243821      -523.6510 
  19   2.0000     -19.234249      -523.3905 
  20   2.0000     -19.234151      -523.3879 
  21   2.0000     -19.217411      -522.9323 
  22   2.0000     -14.659909      -398.9164 
  23   2.0000     -14.646302      -398.5461 
  24   2.0000     -14.504901      -394.6984 
  25   2.0000     -14.485041      -394.1580 
  26   2.0000     -14.428764      -392.6266 
  27   2.0000     -14.428094      -392.6084 
  28   2.0000     -14.423286      -392.4776 
  29   2.0000     -14.420261      -392.3953 
  30   2.0000     -14.419079      -392.3631 
  31   2.0000     -10.390245      -282.7329 
  32   2.0000     -10.381960      -282.5075 
  33   2.0000     -10.379463      -282.4395 
  34   2.0000     -10.379192      -282.4322 
  35   2.0000     -10.368425      -282.1392 
  36   2.0000     -10.368273      -282.1350 
  37   2.0000     -10.361950      -281.9630 
  38   2.0000     -10.357338      -281.8375 
  39   2.0000     -10.355475      -281.7868 
  40   2.0000     -10.351706      -281.6842 
  41   2.0000     -10.349997      -281.6377 
  42   2.0000     -10.348401      -281.5943 
  43   2.0000     -10.348061      -281.5850 
  44   2.0000     -10.346687      -281.5477 
  45   2.0000     -10.343816      -281.4695 
  46   2.0000     -10.341516      -281.4070 
  47   2.0000     -10.336739      -281.2770 
  48   2.0000     -10.330324      -281.1024 
  49   2.0000     -10.329075      -281.0684 
  50   2.0000     -10.326227      -280.9909 
  51   2.0000     -10.323436      -280.9150 
  52   2.0000     -10.322358      -280.8857 
  53   2.0000     -10.321776      -280.8698 
  54   2.0000     -10.321493      -280.8621 
  55   2.0000     -10.320894      -280.8458 
  56   2.0000     -10.318728      -280.7869 
  57   2.0000     -10.317712      -280.7592 
  58   2.0000     -10.317532      -280.7543 
  59   2.0000     -10.317326      -280.7487 
  60   2.0000     -10.316642      -280.7301 
  61   2.0000     -10.315649      -280.7031 
  62   2.0000     -10.315333      -280.6945 
  63   2.0000     -10.313559      -280.6462 
  64   2.0000     -10.312473      -280.6166 
  65   2.0000     -10.310961      -280.5755 
  66   2.0000     -10.310392      -280.5600 
  67   2.0000     -10.309268      -280.5294 
  68   2.0000     -10.309033      -280.5230 
  69   2.0000     -10.307817      -280.4900 
  70   2.0000     -10.307495      -280.4812 
  71   2.0000     -10.306416      -280.4518 
  72   2.0000     -10.305999      -280.4405 
  73   2.0000     -10.304712      -280.4055 
  74   2.0000     -10.304671      -280.4044 
  75   2.0000     -10.304450      -280.3983 
  76   2.0000     -10.304128      -280.3896 
  77   2.0000     -10.302951      -280.3576 
  78   2.0000     -10.299572      -280.2656 
  79   2.0000     -10.298434      -280.2346 
  80   2.0000     -10.297451      -280.2079 
  81   2.0000     -10.296306      -280.1767 
  82   2.0000     -10.295274      -280.1486 
  83   2.0000     -10.293947      -280.1125 
  84   2.0000      -8.800779      -239.4814 
  85   2.0000      -8.795435      -239.3359 
  86   2.0000      -8.094897      -220.2733 
  87   2.0000      -8.083490      -219.9629 
  88   2.0000      -8.081856      -219.9185 
  89   2.0000      -8.074614      -219.7214 
  90   2.0000      -8.065933      -219.4852 
  91   2.0000      -8.062710      -219.3975 
  92   2.0000      -6.637137      -180.6057 
  93   2.0000      -6.631729      -180.4585 
  94   2.0000      -6.622480      -180.2068 
  95   2.0000      -6.622278      -180.2013 
  96   2.0000      -6.617177      -180.0625 
  97   2.0000      -6.616965      -180.0568 
  98   2.0000      -6.064522      -165.0240 
  99   2.0000      -6.060186      -164.9060 
 100   2.0000      -6.056355      -164.8018 
 101   2.0000      -6.053207      -164.7161 
 102   2.0000      -6.051515      -164.6701 
 103   2.0000      -6.048791      -164.5960 
 104   2.0000      -6.047245      -164.5539 
 105   2.0000      -6.044783      -164.4869 
 106   2.0000      -6.044309      -164.4740 
 107   2.0000      -6.043107      -164.4413 
 108   2.0000      -6.040021      -164.3573 
 109   2.0000      -6.035833      -164.2434 
 110   2.0000      -6.035402      -164.2316 
 111   2.0000      -6.032077      -164.1411 
 112   2.0000      -6.031281      -164.1195 
 113   2.0000      -6.027931      -164.0283 
 114   2.0000      -6.027354      -164.0127 
 115   2.0000      -6.024292      -163.9293 
 116   2.0000      -2.752990       -74.9127 
 117   2.0000      -2.748896       -74.8013 
 118   2.0000      -2.748732       -74.7968 
 119   2.0000      -2.747628       -74.7668 
 120   2.0000      -2.743501       -74.6545 
 121   2.0000      -2.743357       -74.6505 
 122   2.0000      -2.737088       -74.4799 
 123   2.0000      -2.737069       -74.4794 
 124   2.0000      -2.731783       -74.3356 
 125   2.0000      -2.731768       -74.3352 
 126   2.0000      -1.330084       -36.1934 
 127   2.0000      -1.315877       -35.8068 
 128   2.0000      -1.158392       -31.5214 
 129   2.0000      -1.149433       -31.2777 
 130   2.0000      -1.135230       -30.8912 
 131   2.0000      -1.132759       -30.8239 
 132   2.0000      -1.113169       -30.2909 
 133   2.0000      -1.095068       -29.7983 
 134   2.0000      -1.077615       -29.3234 
 135   2.0000      -1.034723       -28.1562 
 136   2.0000      -1.026613       -27.9356 
 137   2.0000      -1.024400       -27.8753 
 138   2.0000      -1.020427       -27.7672 
 139   2.0000      -1.017190       -27.6792 
 140   2.0000      -1.009931       -27.4816 
 141   2.0000      -1.005151       -27.3515 
 142   2.0000      -1.001116       -27.2417 
 143   2.0000      -0.998619       -27.1738 
 144   2.0000      -0.994615       -27.0649 
 145   2.0000      -0.993078       -27.0230 
 146   2.0000      -0.972981       -26.4762 
 147   2.0000      -0.953280       -25.9401 
 148   2.0000      -0.948574       -25.8120 
 149   2.0000      -0.939063       -25.5532 
 150   2.0000      -0.934538       -25.4301 
 151   2.0000      -0.932659       -25.3789 
 152   2.0000      -0.920168       -25.0390 
 153   2.0000      -0.913205       -24.8496 
 154   2.0000      -0.912082       -24.8190 
 155   2.0000      -0.901309       -24.5259 
 156   2.0000      -0.897513       -24.4226 
 157   2.0000      -0.893131       -24.3033 
 158   2.0000      -0.889492       -24.2043 
 159   2.0000      -0.886555       -24.1244 
 160   2.0000      -0.874986       -23.8096 
 161   2.0000      -0.870324       -23.6827 
 162   2.0000      -0.866105       -23.5679 
 163   2.0000      -0.861186       -23.4341 
 164   2.0000      -0.842142       -22.9158 
 165   2.0000      -0.841033       -22.8857 
 166   2.0000      -0.833890       -22.6913 
 167   2.0000      -0.830597       -22.6017 
 168   2.0000      -0.828250       -22.5378 
 169   2.0000      -0.813553       -22.1379 
 170   2.0000      -0.802396       -21.8343 
 171   2.0000      -0.790265       -21.5042 
 172   2.0000      -0.774975       -21.0882 
 173   2.0000      -0.771572       -20.9955 
 174   2.0000      -0.765736       -20.8367 
 175   2.0000      -0.760994       -20.7077 
 176   2.0000      -0.758991       -20.6532 
 177   2.0000      -0.744891       -20.2695 
 178   2.0000      -0.729745       -19.8574 
 179   2.0000      -0.726747       -19.7758 
 180   2.0000      -0.715938       -19.4817 
 181   2.0000      -0.712876       -19.3983 
 182   2.0000      -0.706617       -19.2280 
 183   2.0000      -0.702183       -19.1074 
 184   2.0000      -0.701513       -19.0891 
 185   2.0000      -0.695555       -18.9270 
 186   2.0000      -0.686310       -18.6754 
 187   2.0000      -0.684468       -18.6253 
 188   2.0000      -0.669718       -18.2240 
 189   2.0000      -0.668576       -18.1929 
 190   2.0000      -0.667250       -18.1568 
 191   2.0000      -0.661425       -17.9983 
 192   2.0000      -0.651591       -17.7307 
 193   2.0000      -0.646002       -17.5786 
 194   2.0000      -0.644582       -17.5400 
 195   2.0000      -0.642548       -17.4846 
 196   2.0000      -0.641328       -17.4514 
 197   2.0000      -0.638553       -17.3759 
 198   2.0000      -0.637211       -17.3394 
 199   2.0000      -0.631020       -17.1709 
 200   2.0000      -0.627897       -17.0859 
 201   2.0000      -0.627180       -17.0664 
 202   2.0000      -0.626693       -17.0532 
 203   2.0000      -0.614851       -16.7310 
 204   2.0000      -0.609664       -16.5898 
 205   2.0000      -0.605279       -16.4705 
 206   2.0000      -0.602253       -16.3881 
 207   2.0000      -0.599102       -16.3024 
 208   2.0000      -0.593736       -16.1564 
 209   2.0000      -0.587825       -15.9955 
 210   2.0000      -0.585227       -15.9248 
 211   2.0000      -0.583867       -15.8878 
 212   2.0000      -0.578747       -15.7485 
 213   2.0000      -0.571024       -15.5384 
 214   2.0000      -0.568963       -15.4823 
 215   2.0000      -0.567717       -15.4484 
 216   2.0000      -0.565468       -15.3872 
 217   2.0000      -0.558722       -15.2036 
 218   2.0000      -0.556462       -15.1421 
 219   2.0000      -0.554490       -15.0885 
 220   2.0000      -0.549382       -14.9495 
 221   2.0000      -0.548549       -14.9268 
 222   2.0000      -0.545893       -14.8545 
 223   2.0000      -0.545401       -14.8411 
 224   2.0000      -0.542828       -14.7711 
 225   2.0000      -0.541153       -14.7255 
 226   2.0000      -0.540280       -14.7018 
 227   2.0000      -0.537873       -14.6363 
 228   2.0000      -0.534833       -14.5536 
 229   2.0000      -0.532155       -14.4807 
 230   2.0000      -0.530306       -14.4304 
 231   2.0000      -0.524579       -14.2745 
 232   2.0000      -0.520407       -14.1610 
 233   2.0000      -0.519416       -14.1340 
 234   2.0000      -0.515151       -14.0180 
 235   2.0000      -0.511314       -13.9136 
 236   2.0000      -0.509245       -13.8573 
 237   2.0000      -0.508816       -13.8456 
 238   2.0000      -0.507911       -13.8209 
 239   2.0000      -0.504692       -13.7334 
 240   2.0000      -0.500020       -13.6062 
 241   2.0000      -0.497614       -13.5408 
 242   2.0000      -0.495318       -13.4783 
 243   2.0000      -0.492363       -13.3979 
 244   2.0000      -0.490864       -13.3571 
 245   2.0000      -0.488622       -13.2961 
 246   2.0000      -0.487571       -13.2675 
 247   2.0000      -0.480847       -13.0845 
 248   2.0000      -0.480179       -13.0663 
 249   2.0000      -0.478497       -13.0206 
 250   2.0000      -0.474434       -12.9100 
 251   2.0000      -0.470064       -12.7911 
 252   2.0000      -0.467171       -12.7124 
 253   2.0000      -0.465754       -12.6738 
 254   2.0000      -0.462953       -12.5976 
 255   2.0000      -0.461666       -12.5626 
 256   2.0000      -0.460239       -12.5237 
 257   2.0000      -0.459256       -12.4970 
 258   2.0000      -0.458449       -12.4750 
 259   2.0000      -0.455606       -12.3977 
 260   2.0000      -0.453124       -12.3301 
 261   2.0000      -0.452687       -12.3182 
 262   2.0000      -0.450067       -12.2469 
 263   2.0000      -0.449915       -12.2428 
 264   2.0000      -0.448201       -12.1962 
 265   2.0000      -0.446191       -12.1415 
 266   2.0000      -0.445334       -12.1182 
 267   2.0000      -0.440921       -11.9981 
 268   2.0000      -0.437625       -11.9084 
 269   2.0000      -0.437362       -11.9012 
 270   2.0000      -0.436244       -11.8708 
 271   2.0000      -0.434186       -11.8148 
 272   2.0000      -0.429870       -11.6974 
 273   2.0000      -0.425416       -11.5761 
 274   2.0000      -0.423165       -11.5149 
 275   2.0000      -0.420400       -11.4397 
 276   2.0000      -0.414782       -11.2868 
 277   2.0000      -0.413474       -11.2512 
 278   2.0000      -0.407843       -11.0980 
 279   2.0000      -0.402508       -10.9528 
[...]

molecular weight: 1233.984
state   eV        nm        fL         fV        Rl        RV
   0   2.624     472.4   0.341485   0.370092  -47.244729  -55.479470     0.65 (  95->  97)    0.28 (  94->  97)    0.02 (  95->  99)
   1   2.783     445.6   0.893427   0.935668  162.960693  65.258876     0.44 (  95->  96)    0.43 (  94->  96)    0.06 (  93->  96)
   2   3.151     393.5   0.055790   0.053052   0.278160  -2.290480     0.41 (  94->  98)    0.36 (  95->  98)    0.08 (  93->  98)
   3   3.225     384.4   0.396771   0.384858  -74.449416  -25.508798     0.41 (  93->  97)    0.24 (  94->  97)    0.11 (  95->  97)
   4   3.447     359.7   0.146547   0.141420  -30.263971  -15.076010     0.76 (  92->  97)    0.10 (  93->  97)    0.03 (  94->  99)
   5   3.472     357.1   0.128705   0.130058  -52.110877  -28.785607     0.40 (  95->  96)    0.20 (  93->  96)    0.17 (  94->  96)
   6   3.632     341.4   0.190552   0.179051  153.298142  122.534188     0.47 (  91->  96)    0.07 (  94->  99)    0.07 (  95->  99)
   7   3.642     340.5   0.498190   0.481815  -50.708554  -87.050997     0.18 (  91->  96)    0.15 (  94->  97)    0.15 (  94->  99)
   8   3.675     337.4   0.084306   0.081557  -122.854739  -122.305546     0.25 (  89->  97)    0.23 (  85->  97)    0.08 (  92->  99)
   9   3.704     334.8   0.444040   0.423410  -411.062135  -391.971701     0.32 (  95-> 101)    0.22 (  95-> 100)    0.15 (  94-> 101)
  10   3.742     331.3   0.164967   0.158539  319.814878  325.502989     0.21 (  91->  98)    0.17 (  94-> 100)    0.13 (  95-> 101)
  11   3.767     329.1   0.082905   0.079288  121.102982  155.795442     0.30 (  91->  98)    0.11 (  87->  96)    0.10 (  95-> 100)
  12   3.796     326.6   0.069623   0.061777  12.816383   1.177930     0.39 (  89->  97)    0.24 (  85->  97)    0.10 (  92->  99)
  13   3.819     324.7   0.257935   0.236175  -204.389464  -188.062827     0.20 (  95->  99)    0.14 (  93->  97)    0.11 (  94->  97)
  14   3.860     321.2   0.316178   0.292376  47.467793  76.570728     0.23 (  94->  96)    0.21 (  90->  96)    0.20 (  93->  96)
  15   3.955     313.5   0.235302   0.209659  -33.777359  -22.630119     0.37 (  95->  98)    0.17 (  90->  98)    0.15 (  93->  98)
  16   4.048     306.3   0.031233   0.029782  48.950859  42.746112     0.31 (  85->  99)    0.23 (  95-> 102)    0.09 (  85->  97)
  17   4.076     304.2   0.205235   0.186957  -91.730775  -50.562765     0.38 (  95-> 102)    0.15 (  85->  99)    0.09 (  85->  97)
  18   4.165     297.7   0.058605   0.048942  -16.813103  -7.115643     0.25 (  93->  99)    0.22 (  95->  99)    0.10 (  94->  99)
  19   4.198     295.3   0.010339   0.008995  -7.935677  -11.324280     0.63 (  79->  98)    0.09 (  79->  96)    0.07 (  87->  96)
  20   4.200     295.2   0.228772   0.207091  -133.113433  -152.847519     0.46 (  92->  99)    0.17 (  89->  97)    0.08 (  79->  98)
  21   4.205     294.9   0.722134   0.647390  24.697055  30.332922     0.49 (  87->  96)    0.14 (  91->  98)    0.09 (  92->  99)
  22   4.251     291.6   0.021437   0.019171  56.349479  48.611760     0.28 (  90->  97)    0.14 (  88->  97)    0.09 (  93->  97)
  23   4.291     288.9   0.036090   0.031610  -33.081844  -21.323552     0.14 (  88->  97)    0.12 (  93->  96)    0.10 (  94-> 102)
  24   4.302     288.2   0.033591   0.029427  60.439045  58.355178     0.27 (  76->  96)    0.19 (  76-> 100)    0.17 (  76->  98)
  25   4.306     287.9   0.115036   0.098095  -1.415983  -8.098437     0.20 (  94->  98)    0.09 (  93->  98)    0.07 (  90->  98)
  26   4.328     286.5   0.045616   0.037934   0.802640   3.737255     0.24 (  93->  96)    0.21 (  90->  96)    0.07 (  88->  97)
  27   4.355     284.7   0.109377   0.091698  136.082393  121.907930     0.29 (  88->  97)    0.07 (  90->  97)    0.07 (  93->  99)
  28   4.405     281.4   0.035388   0.034306   6.542060  13.142633     0.21 (  93-> 100)    0.17 (  93-> 101)    0.15 (  94-> 101)
  29   4.513     274.7   0.000363   0.000342  -1.477581  -1.093682     0.80 (  79->  96)    0.11 (  79->  98)    0.04 (  76->  96)
  30   4.522     274.2   0.003007   0.002281  11.481221   9.991013     0.18 (  95-> 103)    0.13 (  94-> 102)    0.12 (  93-> 101)
  31   4.594     269.9   0.004510   0.004547   3.009474   1.352750     0.39 (  88->  96)    0.22 (  86->  96)    0.06 (  90->  96)
  32   4.621     268.3   0.075126   0.067211  -27.242784  -12.528268     0.18 (  95-> 105)    0.12 (  95-> 103)    0.06 (  90-> 100)
  33   4.671     265.4   0.001399   0.001263   0.433631   0.160452     0.87 (  92->  96)    0.04 (  93->  96)    0.02 (  86->  96)
  34   4.703     263.6   0.142851   0.117692  -44.362061  -45.795625     0.30 (  94->  99)    0.10 (  93->  99)    0.09 (  94-> 102)
  35   4.715     263.0   0.245500   0.206819  93.096294  83.149057     0.58 (  87->  98)    0.12 (  93->  98)    0.07 (  84->  96)
  36   4.781     259.3   0.092107   0.077229  18.989414  25.281799     0.11 (  93-> 102)    0.11 (  88->  96)    0.09 (  94-> 103)
  37   4.797     258.5   0.014972   0.012851   3.650258   5.205371     0.61 (  91->  97)    0.07 (  86->  97)    0.03 (  90->  97)
  38   4.809     257.8   0.038776   0.033470   5.536785   7.946764     0.16 (  93->  98)    0.14 (  90->  98)    0.07 (  94-> 101)
  39   4.826     256.9   0.139325   0.113092  -88.938824  -72.742317     0.11 (  93->  98)    0.09 (  90->  98)    0.08 (  94-> 101)
  40   4.842     256.1   0.053984   0.044336  42.106034  41.929144     0.38 (  89->  99)    0.14 (  83->  97)    0.08 (  94-> 101)
  41   4.881     254.0   0.175510   0.143441  54.761414  67.526858     0.11 (  94-> 100)    0.09 (  95-> 101)    0.08 (  93-> 101)
  42   4.902     252.9   0.016157   0.013165   8.007895   6.660630     0.30 (  86->  97)    0.21 (  90->  97)    0.08 (  91->  97)
  43   4.941     250.9   0.033958   0.027675  -11.310819  -3.425913     0.27 (  86->  96)    0.26 (  88->  96)    0.09 (  82->  96)
  44   4.980     248.9   0.029542   0.024436  11.225708   2.957232     0.20 (  93-> 102)    0.08 (  94-> 103)    0.08 (  95-> 103)

-----------------------------------------------------------------------------
         ABSORPTION SPECTRUM VIA TRANSITION ELECTRIC DIPOLE MOMENTS
-----------------------------------------------------------------------------
State   Energy  Wavelength   fosc         T2         TX        TY        TZ  
        (cm-1)    (nm)                  (au**2)     (au)      (au)      (au) 
-----------------------------------------------------------------------------
   0   21166.3    472.4   0.341484660   5.31132   1.52300   0.62937   1.61111
   1   22442.7    445.6   0.893427214  13.10571  -1.72263  -2.86936   1.38024
   2   25414.4    393.5   0.055789815   0.72269   0.36379   0.74098   0.20322
   3   26012.8    384.4   0.396771072   5.02145  -1.26978  -0.89472  -1.61511
   4   27799.3    359.7   0.146547481   1.73548  -0.11767   0.63774   1.14670
   5   28002.1    357.1   0.128705477   1.51315   0.51818   1.10546  -0.15036
   6   29293.2    341.4   0.190551607   2.14152   0.43463   1.28249   0.55484
   7   29371.9    340.5   0.498190042   5.58392  -0.90176  -1.50602  -1.58198
   8   29640.2    337.4   0.084306188   0.93638   0.79083  -0.15495   0.53569
   9   29870.8    334.8   0.444039539   4.89385  -1.51974   1.59739  -0.18050
  10   30179.9    331.3   0.164966912   1.79951  -0.34501  -1.09547   0.69313
  11   30385.2    329.1   0.082905225   0.89825  -0.34317  -0.38763   0.79387
  12   30616.2    326.6   0.069622595   0.74864  -0.18239   0.68930   0.49014
  13   30800.9    324.7   0.257935310   2.75692   0.49357   0.82907   1.35127
  14   31135.8    321.2   0.316177972   3.34308  -0.38568  -1.26742  -1.26015
  15   31896.8    313.5   0.235302018   2.42859   0.57357   1.07818   0.96805
  16   32650.0    306.3   0.031232972   0.31492  -0.22525   0.49796   0.12735
  17   32878.0    304.2   0.205235406   2.05505   0.33687   0.78934   1.14827
  18   33595.5    297.7   0.058604560   0.57428  -0.43653  -0.13910  -0.60363
  19   33861.5    295.3   0.010339153   0.10052  -0.12868   0.11980  -0.26383
  20   33872.5    295.2   0.228772165   2.22347   0.18513  -1.17809  -0.89516
  21   33912.4    294.9   0.722133613   7.01028  -0.28562  -1.34407  -2.26322
  22   34288.2    291.6   0.021436735   0.20582  -0.04525  -0.44508  -0.07537
  23   34608.1    288.9   0.036089821   0.34331   0.32585   0.34448   0.34419
  24   34695.5    288.2   0.033590695   0.31873   0.08630   0.35012   0.43440
  25   34730.8    287.9   0.115036240   1.09042   0.22276   0.64792   0.78804
  26   34906.5    286.5   0.045615681   0.43021  -0.09546  -0.49885  -0.41503
  27   35126.9    284.7   0.109377238   1.02509   0.30349   0.84716   0.46401
  28   35531.2    281.4   0.035388449   0.32789   0.01436   0.07440   0.56758
  29   36403.3    274.7   0.000363262   0.00329   0.03417   0.04066  -0.02156
  30   36471.0    274.2   0.003006888   0.02714   0.04994   0.03278  -0.15354
  31   37056.9    269.9   0.004510007   0.04007   0.02682  -0.08741  -0.17807
  32   37269.3    268.3   0.075125998   0.66361  -0.10675   0.65377   0.47413
  33   37677.5    265.4   0.001399016   0.01222  -0.01477   0.06738  -0.08641
  34   37936.2    263.6   0.142850973   1.23967   0.05025  -0.22625  -1.08902
  35   38028.6    263.0   0.245500456   2.12529   0.64439   1.23175  -0.43915
  36   38561.9    259.3   0.092106963   0.78634  -0.16902  -0.05017  -0.86905
  37   38692.0    258.5   0.014971708   0.12739   0.02085   0.14506   0.32544
  38   38784.3    257.8   0.038775923   0.32914  -0.02416   0.28092  -0.49964
  39   38922.5    256.9   0.139324687   1.17843  -0.28401   0.20272   1.02794
  40   39054.3    256.1   0.053983807   0.45506   0.27870   0.01422   0.61416
  41   39364.1    254.0   0.175509637   1.46783   0.06521   0.40220  -1.14097
  42   39540.9    252.9   0.016156820   0.13452  -0.07919   0.18732  -0.30522
  43   39854.0    250.9   0.033957827   0.28051   0.11329  -0.08839  -0.50976
  44   40168.8    248.9   0.029542408   0.24212  -0.46274   0.15464  -0.06390

-----------------------------------------------------------------------------
         ABSORPTION SPECTRUM VIA TRANSITION VELOCITY DIPOLE MOMENTS
-----------------------------------------------------------------------------
State   Energy  Wavelength   fosc         P2         PX        PY        PZ  
        (cm-1)    (nm)                  (au**2)     (au)      (au)      (au) 
-----------------------------------------------------------------------------
   0   21166.3    472.4   0.370092291   0.05354   0.15154   0.06581   0.16200
   1   22442.7    445.6   0.935667648   0.14352  -0.18179  -0.30169   0.13948
   2   25414.4    393.5   0.053052341   0.00921   0.04122   0.08344   0.02352
   3   26012.8    384.4   0.384858464   0.06842  -0.14986  -0.10701  -0.18577
   4   27799.3    359.7   0.141420204   0.02687  -0.01676   0.08170   0.14111
   5   28002.1    357.1   0.130058239   0.02489   0.06712   0.14092  -0.02294
   6   29293.2    341.4   0.179050684   0.03585   0.05624   0.16431   0.07542
   7   29371.9    340.5   0.481814973   0.09672  -0.11531  -0.19815  -0.21015
   8   29640.2    337.4   0.081556736   0.01652   0.10429  -0.01990   0.07245
   9   29870.8    334.8   0.423409953   0.08644  -0.20002   0.21448  -0.02070
  10   30179.9    331.3   0.158538706   0.03270  -0.04700  -0.14656   0.09493
  11   30385.2    329.1   0.079287563   0.01647  -0.04335  -0.04622   0.11158
  12   30616.2    326.6   0.061776889   0.01293  -0.02343   0.08939   0.06623
  13   30800.9    324.7   0.236174961   0.04972   0.06382   0.11513   0.17997
  14   31135.8    321.2   0.292376010   0.06222  -0.05300  -0.17516  -0.16949
  15   31896.8    313.5   0.209659087   0.04571   0.07862   0.14880   0.13185
  16   32650.0    306.3   0.029782282   0.00665  -0.03171   0.07220   0.02067
  17   32878.0    304.2   0.186957221   0.04201   0.04843   0.11607   0.16184
  18   33595.5    297.7   0.048941967   0.01124  -0.06275  -0.01982  -0.08311
  19   33861.5    295.3   0.008995026   0.00208  -0.01953   0.01692  -0.03760
  20   33872.5    295.2   0.207091008   0.04794   0.02746  -0.17175  -0.13301
  21   33912.4    294.9   0.647390389   0.15005  -0.04115  -0.19718  -0.33087
  22   34288.2    291.6   0.019170819   0.00449  -0.00681  -0.06546  -0.01271
  23   34608.1    288.9   0.031609570   0.00748   0.04789   0.05322   0.04849
  24   34695.5    288.2   0.029427212   0.00698   0.01144   0.05251   0.06395
  25   34730.8    287.9   0.098095173   0.02328   0.03403   0.09334   0.11582
  26   34906.5    286.5   0.037933696   0.00905  -0.01495  -0.07222  -0.06008
  27   35126.9    284.7   0.091697601   0.02201   0.04266   0.12523   0.06718
  28   35531.2    281.4   0.034306404   0.00833   0.00389   0.01376   0.09015
  29   36403.3    274.7   0.000342480   0.00009   0.00717   0.00517  -0.00266
  30   36471.0    274.2   0.002280567   0.00057   0.00561   0.00289  -0.02299
  31   37056.9    269.9   0.004547219   0.00115   0.00422  -0.01332  -0.03092
  32   37269.3    268.3   0.067210875   0.01712  -0.01828   0.10725   0.07269
  33   37677.5    265.4   0.001263069   0.00033  -0.00217   0.01142  -0.01379
  34   37936.2    263.6   0.117692171   0.03051   0.00755  -0.03432  -0.17111
  35   38028.6    263.0   0.206818738   0.05375   0.10289   0.19584  -0.06938
  36   38561.9    259.3   0.077229233   0.02035  -0.02809  -0.01008  -0.13951
  37   38692.0    258.5   0.012850997   0.00340   0.00331   0.02481   0.05265
  38   38784.3    257.8   0.033469972   0.00887  -0.00515   0.04498  -0.08260
  39   38922.5    256.9   0.113091844   0.03008  -0.04800   0.03483   0.16299
  40   39054.3    256.1   0.044335512   0.01183   0.04425   0.00422   0.09929
  41   39364.1    254.0   0.143440866   0.03859   0.00891   0.06210  -0.18616
  42   39540.9    252.9   0.013165317   0.00356  -0.01436   0.03041  -0.04926
  43   39854.0    250.9   0.027674805   0.00754   0.01813  -0.01700  -0.08319
  44   40168.8    248.9   0.024436479   0.00671  -0.07833   0.02136  -0.01078

-------------------------------------------------------------------
                             CD SPECTRUM
-------------------------------------------------------------------
State   Energy Wavelength       R         MX        MY        MZ   
        (cm-1)   (nm)       (1e40*cgs)   (au)      (au)      (au)  
-------------------------------------------------------------------
   0   21166.3    472.4    -47.24473  -4.09377  -1.58985   4.61536
   1   22442.7    445.6    162.96069  -0.76615  -3.03705  -7.77076
   2   25414.4    393.5      0.27816  -0.07785  -0.51372   2.00673
   3   26012.8    384.4    -74.44942   4.03598   1.97708  -4.46383
   4   27799.3    359.7    -30.26397  -3.66555  -4.98939   2.51069
   5   28002.1    357.1    -52.11088  -0.25790   0.76510   3.26610
   6   29293.2    341.4    153.29814   1.59691  -2.35039   3.00979
   7   29371.9    340.5    -50.70855   2.60068   4.81892  -6.20597
   8   29640.2    337.4    -122.85474  -0.12825  -0.71722   0.95479
   9   29870.8    334.8    -411.06213  -3.94664  -2.40389   2.29402
  10   30179.9    331.3    319.81488   0.07306  -1.18292  -3.79060
  11   30385.2    329.1    121.10298  -0.09471  -2.28066  -1.80169
  12   30616.2    326.6     12.81638  -2.93628  -2.72075   2.62267
  13   30800.9    324.7    -204.38946  -5.30760  -2.91673   4.36991
  14   31135.8    321.2     47.46779   2.26233   3.50756  -4.06037
  15   31896.8    313.5    -33.77736  -1.32156  -2.50737   3.72368
  16   32650.0    306.3     48.95086  -1.93448  -1.86653   2.24623
  17   32878.0    304.2    -91.73078  -4.18141  -3.88875   4.23880
  18   33595.5    297.7    -16.81310   1.75200   0.83399  -1.57736
  19   33861.5    295.3     -7.93568  -2.25831   0.42774   1.16811
  20   33872.5    295.2    -133.11343   8.02934   5.00167  -5.55279
  21   33912.4    294.9     24.69705   3.34827   9.55336  -6.04976
  22   34288.2    291.6     56.34948   1.88973   0.68162  -1.98786
  23   34608.1    288.9    -33.08184  -0.27670  -1.05915   1.72974
  24   34695.5    288.2     60.43904  -0.30547  -1.84021   0.95363
  25   34730.8    287.9     -1.41598  -0.11158  -2.48988   2.08632
  26   34906.5    286.5      0.80264   1.79287   1.08460  -1.70779
  27   35126.9    284.7    136.08239  -3.63024  -1.48177   3.83554
  28   35531.2    281.4      6.54206  -0.48171  -1.98306   0.22325
  29   36403.3    274.7     -1.47758  -0.00984   0.16325   0.00151
  30   36471.0    274.2     11.48122  -0.53967   0.37528   0.22182
  31   37056.9    269.9      3.00947   0.29063   0.74176  -0.24863
  32   37269.3    268.3    -27.24278  -2.10687  -1.81361   2.27018
  33   37677.5    265.4      0.43363  -0.00414   0.26591   0.22934
  34   37936.2    263.6    -44.36206   2.45812   3.94067  -0.87809
  35   38028.6    263.0     93.09629  -1.07031   1.94737   4.79091
  36   38561.9    259.3     18.98941   0.75734   2.56554  -0.20272
  37   38692.0    258.5      3.65026  -0.67185  -1.07095   0.47283
  38   38784.3    257.8      5.53678  -0.54935   1.85969   1.11918
  39   38922.5    256.9    -88.93882  -1.79101  -3.87488   0.63638
  40   39054.3    256.1     42.10603  -0.12297  -1.49309  -0.20046
  41   39364.1    254.0     54.76141   0.11685   3.76694   1.53815
  42   39540.9    252.9      8.00790  -0.16670   0.71600   0.59398
  43   39854.0    250.9    -11.31082   1.00579   1.87315  -0.19541
  44   40168.8    248.9     11.22571  -0.27714  -1.19781  -0.14656

sTD-DFT done

Total run time:        3.263 sec

           *** ORCA-CIS/TD-DFT FINISHED WITHOUT ERROR ***

-------------------------   --------------------
FINAL SINGLE POINT ENERGY    -10509.976127385338
-------------------------   --------------------


                            ***************************************
                            *     ORCA property calculations      *
                            ***************************************

                                    ---------------------
                                    Active property flags
                                    ---------------------
   (+) Dipole Moment


------------------------------------------------------------------------------
                       ORCA ELECTRIC PROPERTIES CALCULATION
------------------------------------------------------------------------------

Dipole Moment Calculation                       ... on
Quadrupole Moment Calculation                   ... off
Polarizability Calculation                      ... off
GBWName                                         ... xtbopt.gbw
Electron density file                           ... xtbopt.scfp
The origin for moment calculation is the CENTER OF MASS  = (-27.195130,  7.685467 -12.983129)

-------------
DIPOLE MOMENT
-------------
                                X             Y             Z
Electronic contribution:    -99.34057    -132.33021     -86.27190
Nuclear contribution   :    101.14447     128.31256      83.64293
                        -----------------------------------------
Total Dipole Moment    :      1.80390      -4.01764      -2.62897
                        -----------------------------------------
Magnitude (a.u.)       :      5.12903
Magnitude (Debye)      :     13.03697



--------------------
Rotational spectrum 
--------------------
 
Rotational constants in cm-1:     0.000541     0.000239     0.000181 
Rotational constants in MHz :    16.206209     7.158867     5.434263 

 Dipole components along the rotational axes: 
x,y,z [a.u.] :    -0.364560    -3.202168    -3.990014 
x,y,z [Debye]:    -0.926638    -8.139264   -10.141811 

 

Timings for individual modules:

Sum of individual times         ...      570.929 sec (=   9.515 min)
GTO integral calculation        ...        3.164 sec (=   0.053 min)   0.6 %
SCF iterations                  ...      563.754 sec (=   9.396 min)  98.7 %
CIS module                      ...        4.011 sec (=   0.067 min)   0.7 %
                             ****ORCA TERMINATED NORMALLY****
TOTAL RUN TIME: 0 days 0 hours 9 minutes 32 seconds 58 msec
