
                                 *****************
                                 * O   R   C   A *
                                 *****************

           --- An Ab Initio, DFT and Semiempirical electronic structure package ---

                  #######################################################
                  #                        -***-                        #
                  #          Department of theory and spectroscopy      #
                  #               Directorship: Frank Neese             #
                  #        Max Planck Institute fuer Kohlenforschung    #
                  #                Kaiser Wilhelm Platz 1               #
                  #                 D-45470 Muelheim/Ruhr               #
                  #                      Germany                        #
                  #                                                     #
                  #                  All rights reserved                #
                  #                        -***-                        #
                  #######################################################


                         Program Version 4.2.0 -  RELEASE  -


 With contributions from (in alphabetic order):
   Daniel Aravena         : Magnetic Suceptibility
   Michael Atanasov       : Ab Initio Ligand Field Theory (pilot matlab implementation)
   Alexander A. Auer      : GIAO ZORA, VPT2
   Ute Becker             : Parallelization
   Giovanni Bistoni       : ED, misc. LED, open-shell LED, HFLED
   Martin Brehm           : Molecular dynamics
   Dmytro Bykov           : SCF Hessian
   Vijay G. Chilkuri      : MRCI spin determinant printing, contributions to CSF-ICE
   Dipayan Datta          : RHF DLPNO-CCSD density
   Achintya Kumar Dutta   : EOM-CC, STEOM-CC
   Dmitry Ganyushin       : Spin-Orbit,Spin-Spin,Magnetic field MRCI
   Miquel Garcia          : C-PCM Hessian, Gaussian charge scheme
   Yang Guo               : DLPNO-NEVPT2, CIM, IAO-localization
   Andreas Hansen         : Spin unrestricted coupled pair/coupled cluster methods
   Benjamin Helmich-Paris : CASSCF linear response (MC-RPA)
   Lee Huntington         : MR-EOM, pCC
   Robert Izsak           : Overlap fitted RIJCOSX, COSX-SCS-MP3, EOM
   Christian Kollmar      : KDIIS, OOCD, Brueckner-CCSD(T), CCSD density
   Simone Kossmann        : Meta GGA functionals, TD-DFT gradient, OOMP2, MP2 Hessian
   Martin Krupicka        : AUTO-CI
   Lucas Lang             : DCDCAS
   Dagmar Lenk            : GEPOL surface, SMD
   Dimitrios Liakos       : Extrapolation schemes; Compound Job, initial MDCI parallelization
   Dimitrios Manganas     : Further ROCIS development; embedding schemes
   Dimitrios Pantazis     : SARC Basis sets
   Taras Petrenko         : DFT Hessian,TD-DFT gradient, ASA, ECA, R-Raman, ABS, FL, XAS/XES, NRVS
   Peter Pinski           : DLPNO-MP2, DLPNO-MP2 Gradient
   Christoph Reimann      : Effective Core Potentials
   Marius Retegan         : Local ZFS, SOC
   Christoph Riplinger    : Optimizer, TS searches, QM/MM, DLPNO-CCSD(T), (RO)-DLPNO pert. Triples
   Tobias Risthaus        : Range-separated hybrids, TD-DFT gradient, RPA, STAB
   Michael Roemelt        : Original ROCIS implementation
   Masaaki Saitow         : Open-shell DLPNO-CCSD energy and density
   Barbara Sandhoefer     : DKH picture change effects
   Avijit Sen             : IP-ROCIS
   Kantharuban Sivalingam : CASSCF convergence, NEVPT2, FIC-MRCI
   Bernardo de Souza      : ESD, SOC TD-DFT
   Georgi Stoychev        : AutoAux, RI-MP2 NMR
   Willem Van den Heuvel  : Paramagnetic NMR
   Boris Wezisla          : Elementary symmetry handling
   Frank Wennmohs         : Technical directorship


 We gratefully acknowledge several colleagues who have allowed us to
 interface, adapt or use parts of their codes:
   Stefan Grimme, W. Hujo, H. Kruse,             : VdW corrections, initial TS optimization,
                  C. Bannwarth                     DFT functionals, gCP, sTDA/sTD-DF
   Ed Valeev, F. Pavosevic, A. Kumar             : LibInt (2-el integral package), F12 methods
   Garnet Chan, S. Sharma, J. Yang, R. Olivares  : DMRG
   Ulf Ekstrom                                   : XCFun DFT Library
   Mihaly Kallay                                 : mrcc  (arbitrary order and MRCC methods)
   Andreas Klamt, Michael Diedenhofen            : otool_cosmo (COSMO solvation model)
   Jiri Pittner, Ondrej Demel                    : Mk-CCSD
   Frank Weinhold                                : gennbo (NPA and NBO analysis)
   Christopher J. Cramer and Donald G. Truhlar   : smd solvation model
   Lars Goerigk                                  : TD-DFT with DH, B97 family of functionals
   V. Asgeirsson, H. Jonsson                     : NEB implementation
   FAccTs GmbH                                   : IRC, NEB, NEB-TS, Multilevel, MM, QM/MM, CI optimization
   S Lehtola, MJT Oliveira, MAL Marques          : LibXC Library


 Your calculation uses the libint2 library for the computation of 2-el integrals
 For citations please refer to: http://libint.valeyev.net

 Your ORCA version has been built with support for libXC version: 4.2.3
 For citations please refer to: https://tddft.org/programs/libxc/

 This ORCA versions uses:
   CBLAS   interface :  Fast vector & matrix operations
   LAPACKE interface :  Fast linear algebra routines
   SCALAPACK package :  Parallel linear algebra routines


XCFun DFT library Copyright 2009-2010 Ulf Ekstrom and contributors.
See http://admol.org/xcfun for more information. This is free soft-
ware; see the source code for copying conditions. There is ABSOLUTELY
NO WARRANTY; not even for MERCHANTABILITY or FITNESS FOR A PARTICULAR
PURPOSE. For details see the documentation. Scientific users of this 
library should cite U. Ekstrom, L. Visscher, R. Bast, A. J. Thorvald-
sen and K. Ruud; J.Chem.Theor.Comp. 2010, DOI: 10.1021/ct100117s
XCFun Version 0.99 
----- Orbital basis set information -----
Your calculation utilizes the basis: def2-SVP
   F. Weigend and R. Ahlrichs, Phys. Chem. Chem. Phys. 7, 3297 (2005).

----- AuxJ basis set information -----
Your calculation utilizes the auxiliary basis: def2/J
   F. Weigend, Phys. Chem. Chem. Phys. 8, 1057 (2006).

================================================================================
                                        WARNINGS
                       Please study these warnings very carefully!
================================================================================

INFO   : Checking CIS options ...

WARNING: CIS/ROCIS methods need fully converged wavefunctions
  ===> : Setting SCFConvForced true
         You can overwrite this default with %scf ConvForced false 


INFO   : the flag for use of LIBINT has been found!

================================================================================
                                       INPUT FILE
================================================================================
NAME = xtbopt.inp
|  1> # ORCA input file
|  2> # SCF done       -163.293964341191          0.000479989262
|  3> ! CAM-B3LYP def2-SVP def2/J RIJCOSX Grid4 TightSCF
|  4> %maxcore 5000
|  5> %tddft
|  6>     Mode sTDDFT
|  7>     Ethresh 5.0
|  8>     maxcore 5000
|  9> end
| 10> 
| 11> %pal
| 12>   nprocs 6
| 13>   end
| 14> * xyz 0 1
| 15>    C       -6.08252         4.53334         5.23129
| 16>    C       -5.30799         3.43385         4.92827
| 17>    C       -3.96446         3.28285         5.31977
| 18>    N       -2.86696         3.09573         5.60592
| 19>    C       -5.72431         2.30405         4.19910
| 20>    N       -5.96971         1.34147         3.61921
| 21>    C       -5.62608         5.69058         6.00195
| 22>    C       -6.69992         6.60512         6.12101
| 23>    C       -6.58879         7.79697         6.79159
| 24>    C       -5.35405         8.10537         7.37467
| 25>    C       -4.28724         7.18741         7.24979
| 26>    C       -4.40112         5.97908         6.57088
| 27>    S       -2.85094         7.76516         8.04174
| 28>    C       -3.69549         9.21277         8.52270
| 29>    C       -4.98452         9.26338         8.11345
| 30>   Br       -2.79448        10.52187         9.52107
| 31>    C       -7.88329         6.05739         5.42068
| 32>    O       -8.97333         6.59216         5.33392
| 33>    C       -7.45368         4.76213         4.86954
| 34>    C       -8.25744         3.92558         4.11311
| 35>    C       -9.57607         4.17946         3.76891
| 36>    C      -10.32757         3.31525         2.98814
| 37>    C      -11.66271         3.49170         2.57288
| 38>    C      -12.14396         2.47756         1.79043
| 39>    C      -11.20831         1.45423         1.55758
| 40>    S       -9.69612         1.81143         2.36066
| 41>    C      -11.36205         0.29563         0.80801
| 42>    C      -12.49293        -0.14295         0.09076
| 43>    C      -12.30297        -1.32939        -0.55552
| 44>    C      -11.01926        -1.89839        -0.37425
| 45>    S      -10.05689        -0.84647         0.64603
| 46>    C      -10.59455        -3.06172        -0.97426
| 47>    C       -9.38775        -3.76614        -0.86720
| 48>    S       -9.09129        -4.98806        -2.10410
| 49>    C       -7.54496        -5.43406        -1.42130
| 50>    C       -7.32235        -4.68897        -0.27076
| 51>    C       -8.32430        -3.76701         0.03303
| 52>    C       -8.00910        -3.04828         1.30405
| 53>    C       -6.88671        -3.90124         1.92351
| 54>    C       -6.23569        -4.66383         0.75490
| 55>    C       -6.77618        -6.41256        -2.08124
| 56>    C       -5.52809        -6.83167        -1.72149
| 57>    C       -4.83510        -7.81387        -2.46487
| 58>    O       -5.43315        -8.28105        -3.58525
| 59>    C       -4.62543        -9.19960        -4.16818
| 60>    C       -3.47710        -9.33943        -3.40686
| 61>    C       -3.59233        -8.45883        -2.31421
| 62>    C       -2.53557        -8.35495        -1.29752
| 63>    O       -1.51783        -9.00447        -1.40491
| 64>    C       -2.75874        -7.42875        -0.12829
| 65>    C       -5.03665        -9.80346        -5.37270
| 66>    C       -6.20590        -9.47819        -6.00783
| 67>    C       -6.69879       -10.00355        -7.23213
| 68>    C       -7.87946        -9.46678        -7.63658
| 69>    C       -8.39569        -8.48509        -6.75337
| 70>    S       -7.32206        -8.27959        -5.38342
| 71>    C       -9.54802        -7.74654        -6.87309
| 72>    C      -10.50776        -7.78537        -7.92359
| 73>    C      -11.53886        -6.92666        -7.76682
| 74>    C      -11.47567        -6.13620        -6.57011
| 75>    S      -10.01592        -6.56607        -5.66536
| 76>    C      -12.34678        -5.20817        -6.15221
| 77>    H       -7.42670         8.47259         6.86463
| 78>    H       -3.55591         5.31482         6.50466
| 79>    H       -5.64935        10.08176         8.32194
| 80>    H       -7.82832         2.99956         3.74978
| 81>    H      -10.04535         5.08987         4.11201
| 82>    H      -12.22821         4.36013         2.86016
| 83>    H      -13.13881         2.44782         1.38335
| 84>    H      -13.40734         0.42147         0.06536
| 85>    H      -13.05034        -1.81848        -1.15526
| 86>    H      -11.29862        -3.48743        -1.68055
| 87>    H       -8.86944        -2.96405         1.96572
| 88>    H       -7.65060        -2.03960         1.08666
| 89>    H       -7.32067        -4.61794         2.62236
| 90>    H       -6.16915        -3.29080         2.46739
| 91>    H       -5.91520        -5.66176         1.05425
| 92>    H       -5.36715        -4.12486         0.36613
| 93>    H       -7.23086        -6.85155        -2.95898
| 94>    H       -5.04068        -6.41052        -0.86219
| 95>    H       -2.64682        -9.98720        -3.59899
| 96>    H       -2.84098        -6.40247        -0.47918
| 97>    H       -1.91167        -7.50596         0.54894
| 98>    H       -3.66940        -7.70228         0.39920
| 99>    H       -4.38212       -10.54173        -5.80821
|100>    H       -6.15395       -10.75854        -7.77108
|101>    H       -8.39127        -9.74395        -8.54076
|102>    H      -10.39318        -8.45107        -8.76065
|103>    H      -12.35624        -6.81242        -8.45657
|104>    H      -13.22230        -4.97465        -6.73186
|105>    H      -12.19888        -4.67051        -5.23374
|106> *
|107> 
|108>                          ****END OF INPUT****
================================================================================

                       ****************************
                       * Single Point Calculation *
                       ****************************

---------------------------------
CARTESIAN COORDINATES (ANGSTROEM)
---------------------------------
  C     -6.082520    4.533340    5.231290
  C     -5.307990    3.433850    4.928270
  C     -3.964460    3.282850    5.319770
  N     -2.866960    3.095730    5.605920
  C     -5.724310    2.304050    4.199100
  N     -5.969710    1.341470    3.619210
  C     -5.626080    5.690580    6.001950
  C     -6.699920    6.605120    6.121010
  C     -6.588790    7.796970    6.791590
  C     -5.354050    8.105370    7.374670
  C     -4.287240    7.187410    7.249790
  C     -4.401120    5.979080    6.570880
  S     -2.850940    7.765160    8.041740
  C     -3.695490    9.212770    8.522700
  C     -4.984520    9.263380    8.113450
  Br    -2.794480   10.521870    9.521070
  C     -7.883290    6.057390    5.420680
  O     -8.973330    6.592160    5.333920
  C     -7.453680    4.762130    4.869540
  C     -8.257440    3.925580    4.113110
  C     -9.576070    4.179460    3.768910
  C    -10.327570    3.315250    2.988140
  C    -11.662710    3.491700    2.572880
  C    -12.143960    2.477560    1.790430
  C    -11.208310    1.454230    1.557580
  S     -9.696120    1.811430    2.360660
  C    -11.362050    0.295630    0.808010
  C    -12.492930   -0.142950    0.090760
  C    -12.302970   -1.329390   -0.555520
  C    -11.019260   -1.898390   -0.374250
  S    -10.056890   -0.846470    0.646030
  C    -10.594550   -3.061720   -0.974260
  C     -9.387750   -3.766140   -0.867200
  S     -9.091290   -4.988060   -2.104100
  C     -7.544960   -5.434060   -1.421300
  C     -7.322350   -4.688970   -0.270760
  C     -8.324300   -3.767010    0.033030
  C     -8.009100   -3.048280    1.304050
  C     -6.886710   -3.901240    1.923510
  C     -6.235690   -4.663830    0.754900
  C     -6.776180   -6.412560   -2.081240
  C     -5.528090   -6.831670   -1.721490
  C     -4.835100   -7.813870   -2.464870
  O     -5.433150   -8.281050   -3.585250
  C     -4.625430   -9.199600   -4.168180
  C     -3.477100   -9.339430   -3.406860
  C     -3.592330   -8.458830   -2.314210
  C     -2.535570   -8.354950   -1.297520
  O     -1.517830   -9.004470   -1.404910
  C     -2.758740   -7.428750   -0.128290
  C     -5.036650   -9.803460   -5.372700
  C     -6.205900   -9.478190   -6.007830
  C     -6.698790  -10.003550   -7.232130
  C     -7.879460   -9.466780   -7.636580
  C     -8.395690   -8.485090   -6.753370
  S     -7.322060   -8.279590   -5.383420
  C     -9.548020   -7.746540   -6.873090
  C    -10.507760   -7.785370   -7.923590
  C    -11.538860   -6.926660   -7.766820
  C    -11.475670   -6.136200   -6.570110
  S    -10.015920   -6.566070   -5.665360
  C    -12.346780   -5.208170   -6.152210
  H     -7.426700    8.472590    6.864630
  H     -3.555910    5.314820    6.504660
  H     -5.649350   10.081760    8.321940
  H     -7.828320    2.999560    3.749780
  H    -10.045350    5.089870    4.112010
  H    -12.228210    4.360130    2.860160
  H    -13.138810    2.447820    1.383350
  H    -13.407340    0.421470    0.065360
  H    -13.050340   -1.818480   -1.155260
  H    -11.298620   -3.487430   -1.680550
  H     -8.869440   -2.964050    1.965720
  H     -7.650600   -2.039600    1.086660
  H     -7.320670   -4.617940    2.622360
  H     -6.169150   -3.290800    2.467390
  H     -5.915200   -5.661760    1.054250
  H     -5.367150   -4.124860    0.366130
  H     -7.230860   -6.851550   -2.958980
  H     -5.040680   -6.410520   -0.862190
  H     -2.646820   -9.987200   -3.598990
  H     -2.840980   -6.402470   -0.479180
  H     -1.911670   -7.505960    0.548940
  H     -3.669400   -7.702280    0.399200
  H     -4.382120  -10.541730   -5.808210
  H     -6.153950  -10.758540   -7.771080
  H     -8.391270   -9.743950   -8.540760
  H    -10.393180   -8.451070   -8.760650
  H    -12.356240   -6.812420   -8.456570
  H    -13.222300   -4.974650   -6.731860
  H    -12.198880   -4.670510   -5.233740

----------------------------
CARTESIAN COORDINATES (A.U.)
----------------------------
  NO LB      ZA    FRAG     MASS         X           Y           Z
   0 C     6.0000    0    12.011  -11.494297    8.566771    9.885705
   1 C     6.0000    0    12.011  -10.030647    6.489036    9.313081
   2 C     6.0000    0    12.011   -7.491744    6.203687   10.052908
   3 N     7.0000    0    14.007   -5.417769    5.850082   10.593654
   4 C     6.0000    0    12.011  -10.817378    4.354023    7.935149
   5 N     7.0000    0    14.007  -11.281117    2.535011    6.839316
   6 C     6.0000    0    12.011  -10.631750   10.753638   11.342042
   7 C     6.0000    0    12.011  -12.661014   12.481868   11.567033
   8 C     6.0000    0    12.011  -12.451009   14.734138   12.834245
   9 C     6.0000    0    12.011  -10.117688   15.316930   13.936107
  10 C     6.0000    0    12.011   -8.101709   13.582237   13.700118
  11 C     6.0000    0    12.011   -8.316911   11.298824   12.417164
  12 S    16.0000    0    32.060   -5.387496   14.674026   15.196686
  13 C     6.0000    0    12.011   -6.983464   17.409612   16.105569
  14 C     6.0000    0    12.011   -9.419378   17.505251   15.332199
  15 Br   35.0000    0    79.900   -5.280802   19.883453   17.992215
  16 C     6.0000    0    12.011  -14.897259   11.446808   10.243601
  17 O     8.0000    0    15.999  -16.957136   12.457377   10.079648
  18 C     6.0000    0    12.011  -14.085414    8.999122    9.202097
  19 C     6.0000    0    12.011  -15.604300    7.418271    7.772651
  20 C     6.0000    0    12.011  -18.096150    7.898035    7.122208
  21 C     6.0000    0    12.011  -19.516279    6.264915    5.646766
  22 C     6.0000    0    12.011  -22.039328    6.598357    4.862039
  23 C     6.0000    0    12.011  -22.948759    4.681910    3.383422
  24 C     6.0000    0    12.011  -21.180636    2.748096    2.943400
  25 S    16.0000    0    32.060  -18.323011    3.423107    4.461001
  26 C     6.0000    0    12.011  -21.471163    0.558660    1.526918
  27 C     6.0000    0    12.011  -23.608216   -0.270136    0.171512
  28 C     6.0000    0    12.011  -23.249244   -2.512183   -1.049781
  29 C     6.0000    0    12.011  -20.823384   -3.587437   -0.707230
  30 S    16.0000    0    32.060  -19.004768   -1.599596    1.220820
  31 C     6.0000    0    12.011  -20.020798   -5.785812   -1.841085
  32 C     6.0000    0    12.011  -17.740277   -7.116973   -1.638771
  33 S    16.0000    0    32.060  -17.180048   -9.426067   -3.976173
  34 C     6.0000    0    12.011  -14.257908  -10.268885   -2.685868
  35 C     6.0000    0    12.011  -13.837236   -8.860869   -0.511662
  36 C     6.0000    0    12.011  -15.730647   -7.118617    0.062418
  37 C     6.0000    0    12.011  -15.135006   -5.760414    2.464297
  38 C     6.0000    0    12.011  -13.013996   -7.372275    3.634907
  39 C     6.0000    0    12.011  -11.783746   -8.813361    1.426554
  40 C     6.0000    0    12.011  -12.805124  -12.117982   -3.932974
  41 C     6.0000    0    12.011  -10.446576  -12.909985   -3.253145
  42 C     6.0000    0    12.011   -9.137015  -14.766074   -4.657929
  43 O     8.0000    0    15.999  -10.267166  -15.648917   -6.775141
  44 C     6.0000    0    12.011   -8.740796  -17.384725   -7.876719
  45 C     6.0000    0    12.011   -6.570767  -17.648965   -6.438032
  46 C     6.0000    0    12.011   -6.788520  -15.984872   -4.373223
  47 C     6.0000    0    12.011   -4.791533  -15.788567   -2.451957
  48 O     8.0000    0    15.999   -2.868283  -17.015982   -2.654895
  49 C     6.0000    0    12.011   -5.213263  -14.038303   -0.242433
  50 C     6.0000    0    12.011   -9.517889  -18.525855  -10.152932
  51 C     6.0000    0    12.011  -11.727451  -17.911183  -11.353153
  52 C     6.0000    0    12.011  -12.658879  -18.903970  -13.666745
  53 C     6.0000    0    12.011  -14.890021  -17.889622  -14.431045
  54 C     6.0000    0    12.011  -15.865555  -16.034496  -12.762020
  55 S    16.0000    0    32.060  -13.836688  -15.646158  -10.173189
  56 C     6.0000    0    12.011  -18.043143  -14.638839  -12.988258
  57 C     6.0000    0    12.011  -19.856789  -14.712217  -14.973415
  58 C     6.0000    0    12.011  -21.805285  -13.089490  -14.677163
  59 C     6.0000    0    12.011  -21.685874  -11.595738  -12.415709
  60 S    16.0000    0    32.060  -18.927346  -12.408074  -10.705979
  61 C     6.0000    0    12.011  -23.332033   -9.842015  -11.625992
  62 H     1.0000    0     1.008  -14.034429   16.010875   12.972271
  63 H     1.0000    0     1.008   -6.719696   10.043554   12.292026
  64 H     1.0000    0     1.008  -10.675724   19.051765   15.726188
  65 H     1.0000    0     1.008  -14.793381    5.668347    7.086057
  66 H     1.0000    0     1.008  -18.982960    9.618460    7.770573
  67 H     1.0000    0     1.008  -23.107968    8.239452    5.404919
  68 H     1.0000    0     1.008  -24.828753    4.625709    2.614153
  69 H     1.0000    0     1.008  -25.336201    0.796463    0.123513
  70 H     1.0000    0     1.008  -24.661569   -3.436429   -2.183125
  71 H     1.0000    0     1.008  -21.351297   -6.590288   -3.175779
  72 H     1.0000    0     1.008  -16.760813   -5.601243    3.714672
  73 H     1.0000    0     1.008  -14.457539   -3.854285    2.053490
  74 H     1.0000    0     1.008  -13.834061   -8.726642    4.955542
  75 H     1.0000    0     1.008  -11.658004   -6.218711    4.662691
  76 H     1.0000    0     1.008  -11.178108  -10.699176    1.992244
  77 H     1.0000    0     1.008  -10.142444   -7.794856    0.691885
  78 H     1.0000    0     1.008  -13.664345  -12.947553   -5.591662
  79 H     1.0000    0     1.008   -9.525505  -12.114127   -1.629303
  80 H     1.0000    0     1.008   -5.001765  -18.873073   -6.801105
  81 H     1.0000    0     1.008   -5.368674  -12.098915   -0.905519
  82 H     1.0000    0     1.008   -3.612533  -14.184209    1.037346
  83 H     1.0000    0     1.008   -6.934161  -14.555200    0.754379
  84 H     1.0000    0     1.008   -8.281007  -19.920983  -10.975926
  85 H     1.0000    0     1.008  -11.629280  -20.330694  -14.685213
  86 H     1.0000    0     1.008  -15.857202  -18.413397  -16.139697
  87 H     1.0000    0     1.008  -19.640264  -15.970208  -16.555229
  88 H     1.0000    0     1.008  -23.349910  -12.873608  -15.980601
  89 H     1.0000    0     1.008  -24.986526   -9.400726  -12.721372
  90 H     1.0000    0     1.008  -23.052542   -8.825985   -9.890335

--------------------------------
INTERNAL COORDINATES (ANGSTROEM)
--------------------------------
 C      0   0   0     0.000000000000     0.00000000     0.00000000
 C      1   0   0     1.378621086956     0.00000000     0.00000000
 C      2   1   0     1.407531921805   124.10360962     0.00000000
 N      3   2   1     1.149522495169   176.40572661   180.23898904
 C      2   1   3     1.407643161920   126.00162977   179.71964674
 N      5   2   1     1.150240769796   174.82400376   181.72757765
 C      1   2   3     1.463372381453   124.83440705   359.73618472
 C      7   1   2     1.415517940826   108.57816222   180.70729445
 C      8   7   1     1.372054603797   122.74420051   180.02202124
 C      9   8   7     1.399884178781   117.79959485     0.07532720
 C     10   9   8     1.412915125583   119.07970639     0.00000000
 C      7   1   2     1.381101226015   131.20684284     0.83400266
 S     11  10   9     1.738947254807   111.56320203   179.92339806
 C     13  11  10     1.743606015188    90.07985376     0.00000000
 C     14  13  11     1.353382900550   114.14034022     0.00000000
 Br    14  13  11     1.876780351293   119.55844513   179.99461774
 C      8   7   1     1.480146890920   109.12515531   359.82068703
 O     17   8   7     1.217248311603   125.95108845   179.86416259
 C      1   2   3     1.436414867718   127.44262907   179.94894293
 C     19   1   2     1.384930462153   126.53677749   358.39655494
 C     20  19   1     1.386258912072   125.24257958   180.64456122
 C     21  20  19     1.386078268714   122.77919193   178.84092040
 C     22  21  20     1.409316958565   126.98129870   180.83998576
 C     23  22  21     1.368323611066   114.13535818   179.20977821
 C     24  23  22     1.406010076031   113.58341315     0.15865918
 S     22  21  20     1.747551099482   122.88024986     0.27766006
 C     25  24  23     1.388468628562   128.53927745   180.46560229
 C     27  25  24     1.409144972421   128.56162159     0.16073588
 C     28  27  25     1.364332259239   113.57994880   179.28933426
 C     29  28  27     1.415814669016   114.52438488     0.58471430
 S     27  25  24     1.741858936883   120.95493385   179.79342636
 C     30  29  28     1.376127636922   124.31545574   182.62011301
 C     32  30  29     1.401440551718   131.09950977   182.16890262
 S     33  32  30     1.763773973048   116.06484827   194.80346573
 C     34  33  32     1.748218610157    92.95292559   179.91973138
 C     35  34  33     1.388688810281   109.17768829     1.94881715
 C     33  32  30     1.393320032261   134.98453216    16.77077318
 C     37  33  32     1.493792386277   135.27556849     2.05097838
 C     38  37  33     1.539815172448   103.27244167   162.58141292
 C     36  35  34     1.494469943090   133.96293688   176.92768496
 C     35  34  33     1.408547387204   118.48974226   182.33935063
 C     41  35  34     1.364845010505   126.08128171   176.81709061
 C     42  41  35     1.413352682277   121.54282974   180.71349061
 O     43  42  41     1.353208150766   117.30319093     2.91340376
 C     44  43  42     1.354973463135   109.07355810   179.52797168
 C     45  44  43     1.384854635043   109.04082945     0.29671606
 C     46  45  44     1.408054805538   107.19334577   359.71451206
 C     47  46  45     1.470099081049   121.46854795   179.94277757
 O     48  47  46     1.212107070394   120.29351458     2.19612948
 C     48  47  46     1.508227463548   118.23990552   182.40822790
 C     45  44  43     1.408764429704   118.97435317   181.28849742
 C     51  45  44     1.369794237212   122.94439297     1.85188915
 C     52  51  45     1.420511940006   127.44375160   178.64005133
 C     53  52  51     1.358559341472   114.33095669   181.48356262
 C     54  53  52     1.417839403141   113.86204778   359.82119883
 S     55  54  53     1.752619362383   110.18545624   359.68816524
 C     55  54  53     1.373918996812   128.55640532   179.20953851
 C     57  55  54     1.423432080045   127.96238837   359.76224462
 C     58  57  55     1.350972578182   114.30679735   180.54077665
 C     59  58  57     1.435595629626   114.40108355   359.93957936
 S     57  55  54     1.752441606388   121.73460648   180.21245930
 C     60  59  58     1.339668885583   127.79522855   179.88340345
 H      9   8   7     1.078837519787   120.94258645   180.01591472
 H     12   7   1     1.077035923310   122.81128672   359.96357206
 H     15  14  13     1.074808277508   123.98395781   180.00138388
 H     20  19   1     1.083358529620   118.00874894     0.13156590
 H     21  20  19     1.080179474208   119.25793782   359.32096919
 H     23  22  21     1.075402581966   121.37019082   359.35441531
 H     24  23  22     1.075325586276   124.21912016   180.15822201
 H     28  27  25     1.074877083438   122.09445813   359.52710478
 H     29  28  27     1.075852690939   124.24097477   180.23396608
 H     32  30  29     1.084338108295   114.55050149     4.86322029
 H     38  37  33     1.088616919490   112.80725995    41.48372774
 H     38  37  33     1.092344270136   110.13361773   280.74928346
 H     39  38  37     1.091041472218   109.36826591   265.69767083
 H     39  38  37     1.087811933010   111.78383378   146.01462664
 H     40  36  35     1.090040617362   112.75923485   316.95788057
 H     40  36  35     1.093614422637   109.98592687    78.05038803
 H     41  35  34     1.081606966555   115.64080086   357.58597744
 H     42  41  35     1.073933108066   120.36540019     0.11165280
 H     46  45  44     1.070460082488   127.27106418   179.89796279
 H     50  48  47     1.087721401876   109.90815753   296.67775392
 H     50  48  47     1.087257762400   108.90424587   177.24121595
 H     50  48  47     1.087366541972   110.21332553    57.20411627
 H     51  45  44     1.078480910309   117.48681846   180.88019675
 H     53  52  51     1.075791628616   121.03778221     1.13430821
 H     54  53  52     1.075320490552   124.20273346   179.64937027
 H     58  57  55     1.075618198991   121.29097012     0.36995878
 H     59  58  57     1.075600253115   124.96630396   179.82816532
 H     62  60  59     1.075667691855   120.76661118     0.00000000
 H     62  60  59     1.074495149594   121.58575963   180.15611694

---------------------------
INTERNAL COORDINATES (A.U.)
---------------------------
 C      0   0   0     0.000000000000     0.00000000     0.00000000
 C      1   0   0     2.605216296796     0.00000000     0.00000000
 C      2   1   0     2.659849856963   124.10360962     0.00000000
 N      3   2   1     2.172282700652   176.40572661   180.23898904
 C      2   1   3     2.660060070316   126.00162977   179.71964674
 N      5   2   1     2.173640042984   174.82400376   181.72757765
 C      1   2   3     2.765373032891   124.83440705   359.73618472
 C      7   1   2     2.674941245813   108.57816222   180.70729445
 C      8   7   1     2.592807441962   122.74420051   180.02202124
 C      9   8   7     2.645397717104   117.79959485     0.07532720
 C     10   9   8     2.670022637826   119.07970639     0.00000000
 C      7   1   2     2.609903080391   131.20684284     0.83400266
 S     11  10   9     3.286134072919   111.56320203   179.92339806
 C     13  11  10     3.294937854163    90.07985376     0.00000000
 C     14  13  11     2.557523036371   114.14034022     0.00000000
 Br    14  13  11     3.546600877469   119.55844513   179.99461774
 C      8   7   1     2.797072261814   109.12515531   359.82068703
 O     17   8   7     2.300265945907   125.95108845   179.86416259
 C      1   2   3     2.714430714679   127.44262907   179.94894293
 C     19   1   2     2.617139287995   126.53677749   358.39655494
 C     20  19   1     2.619649694524   125.24257958   180.64456122
 C     21  20  19     2.619308328048   122.77919193   178.84092040
 C     22  21  20     2.663223087579   126.98129870   180.83998576
 C     23  22  21     2.585756887492   114.13535818   179.20977821
 C     24  23  22     2.656973985232   113.58341315     0.15865918
 S     22  21  20     3.302392983054   122.88024986     0.27766006
 C     25  24  23     2.623825453523   128.53927745   180.46560229
 C     27  25  24     2.662898080868   128.56162159     0.16073588
 C     28  27  25     2.578214325636   113.57994880   179.28933426
 C     29  28  27     2.675501980828   114.52438488     0.58471430
 S     27  25  24     3.291636354633   120.95493385   179.79342636
 C     30  29  28     2.600504359102   124.31545574   182.62011301
 C     32  30  29     2.648338835719   131.09950977   182.16890262
 S     33  32  30     3.333049771198   116.06484827   194.80346573
 C     34  33  32     3.303654395422    92.95292559   179.91973138
 C     35  34  33     2.624241536672   109.17768829     1.94881715
 C     33  32  30     2.632993277880   134.98453216    16.77077318
 C     37  33  32     2.822858511001   135.27556849     2.05097838
 C     38  37  33     2.909828972783   103.27244167   162.58141292
 C     36  35  34     2.824138907817   133.96293688   176.92768496
 C     35  34  33     2.661768808466   118.48974226   182.33935063
 C     41  35  34     2.579183285103   126.08128171   176.81709061
 C     42  41  35     2.670849500147   121.54282974   180.71349061
 O     43  42  41     2.557192807138   117.30319093     2.91340376
 C     44  43  42     2.560528764056   109.07355810   179.52797168
 C     45  44  43     2.616995995523   109.04082945     0.29671606
 C     46  45  44     2.660837964019   107.19334577   359.71451206
 C     47  46  45     2.778084652911   121.46854795   179.94277757
 O     48  47  46     2.290550408035   120.29351458     2.19612948
 C     48  47  46     2.850136853764   118.23990552   182.40822790
 C     45  44  43     2.662178959351   118.97435317   181.28849742
 C     51  45  44     2.588535968155   122.94439297     1.85188915
 C     52  51  45     2.684378536577   127.44375160   178.64005133
 C     53  52  51     2.567305092062   114.33095669   181.48356262
 C     54  53  52     2.679328173819   113.86204778   359.82119883
 S     55  54  53     3.311970611912   110.18545624   359.68816524
 C     55  54  53     2.596330634166   128.55640532   179.20953851
 C     57  55  54     2.689896801522   127.96238837   359.76224462
 C     58  57  55     2.552968187202   114.30679735   180.54077665
 C     59  58  57     2.712882579047   114.40108355   359.93957936
 S     57  55  54     3.311634701762   121.73460648   180.21245930
 C     60  59  58     2.531607303888   127.79522855   179.88340345
 H      9   8   7     2.038707455396   120.94258645   180.01591472
 H     12   7   1     2.035302931451   122.81128672   359.96357206
 H     15  14  13     2.031093290962   123.98395781   180.00138388
 H     20  19   1     2.047250925829   118.00874894     0.13156590
 H     21  20  19     2.041243381736   119.25793782   359.32096919
 H     23  22  21     2.032216363628   121.37019082   359.35441531
 H     24  23  22     2.032070862860   124.21912016   180.15822201
 H     28  27  25     2.031223315326   122.09445813   359.52710478
 H     29  28  27     2.033066946316   124.24097477   180.23396608
 H     32  30  29     2.049102061251   114.55050149     4.86322029
 H     38  37  33     2.057187842589   112.80725995    41.48372774
 H     38  37  33     2.064231514516   110.13361773   280.74928346
 H     39  38  37     2.061769583243   109.36826591   265.69767083
 H     39  38  37     2.055666638601   111.78383378   146.01462664
 H     40  36  35     2.059878241666   112.75923485   316.95788057
 H     40  36  35     2.066631754891   109.98592687    78.05038803
 H     41  35  34     2.043940951330   115.64080086   357.58597744
 H     42  41  35     2.029439460395   120.36540019     0.11165280
 H     46  45  44     2.022876393197   127.27106418   179.89796279
 H     50  48  47     2.055495559551   109.90815753   296.67775392
 H     50  48  47     2.054619407917   108.90424587   177.24121595
 H     50  48  47     2.054824971516   110.21332553    57.20411627
 H     51  45  44     2.038033561145   117.48681846   180.88019675
 H     53  52  51     2.032951555249   121.03778221     1.13430821
 H     54  53  52     2.032061233336   124.20273346   179.64937027
 H     58  57  55     2.032623820754   121.29097012     0.36995878
 H     59  58  57     2.032589907963   124.96630396   179.82816532
 H     62  60  59     2.032717348713   120.76661118     0.00000000
 H     62  60  59     2.030501564958   121.58575963   180.15611694

---------------------
BASIS SET INFORMATION
---------------------
There are 6 groups of distinct atoms

 Group   1 Type C   : 7s4p1d contracted to 3s2p1d pattern {511/31/1}
 Group   2 Type N   : 7s4p1d contracted to 3s2p1d pattern {511/31/1}
 Group   3 Type S   : 10s7p1d contracted to 4s3p1d pattern {5311/511/1}
 Group   4 Type Br  : 14s10p6d contracted to 5s4p3d pattern {63311/5311/411}
 Group   5 Type O   : 7s4p1d contracted to 3s2p1d pattern {511/31/1}
 Group   6 Type H   : 4s1p contracted to 2s1p pattern {31/1}

Atom   0C    basis set group =>   1
Atom   1C    basis set group =>   1
Atom   2C    basis set group =>   1
Atom   3N    basis set group =>   2
Atom   4C    basis set group =>   1
Atom   5N    basis set group =>   2
Atom   6C    basis set group =>   1
Atom   7C    basis set group =>   1
Atom   8C    basis set group =>   1
Atom   9C    basis set group =>   1
Atom  10C    basis set group =>   1
Atom  11C    basis set group =>   1
Atom  12S    basis set group =>   3
Atom  13C    basis set group =>   1
Atom  14C    basis set group =>   1
Atom  15Br   basis set group =>   4
Atom  16C    basis set group =>   1
Atom  17O    basis set group =>   5
Atom  18C    basis set group =>   1
Atom  19C    basis set group =>   1
Atom  20C    basis set group =>   1
Atom  21C    basis set group =>   1
Atom  22C    basis set group =>   1
Atom  23C    basis set group =>   1
Atom  24C    basis set group =>   1
Atom  25S    basis set group =>   3
Atom  26C    basis set group =>   1
Atom  27C    basis set group =>   1
Atom  28C    basis set group =>   1
Atom  29C    basis set group =>   1
Atom  30S    basis set group =>   3
Atom  31C    basis set group =>   1
Atom  32C    basis set group =>   1
Atom  33S    basis set group =>   3
Atom  34C    basis set group =>   1
Atom  35C    basis set group =>   1
Atom  36C    basis set group =>   1
Atom  37C    basis set group =>   1
Atom  38C    basis set group =>   1
Atom  39C    basis set group =>   1
Atom  40C    basis set group =>   1
Atom  41C    basis set group =>   1
Atom  42C    basis set group =>   1
Atom  43O    basis set group =>   5
Atom  44C    basis set group =>   1
Atom  45C    basis set group =>   1
Atom  46C    basis set group =>   1
Atom  47C    basis set group =>   1
Atom  48O    basis set group =>   5
Atom  49C    basis set group =>   1
Atom  50C    basis set group =>   1
Atom  51C    basis set group =>   1
Atom  52C    basis set group =>   1
Atom  53C    basis set group =>   1
Atom  54C    basis set group =>   1
Atom  55S    basis set group =>   3
Atom  56C    basis set group =>   1
Atom  57C    basis set group =>   1
Atom  58C    basis set group =>   1
Atom  59C    basis set group =>   1
Atom  60S    basis set group =>   3
Atom  61C    basis set group =>   1
Atom  62H    basis set group =>   6
Atom  63H    basis set group =>   6
Atom  64H    basis set group =>   6
Atom  65H    basis set group =>   6
Atom  66H    basis set group =>   6
Atom  67H    basis set group =>   6
Atom  68H    basis set group =>   6
Atom  69H    basis set group =>   6
Atom  70H    basis set group =>   6
Atom  71H    basis set group =>   6
Atom  72H    basis set group =>   6
Atom  73H    basis set group =>   6
Atom  74H    basis set group =>   6
Atom  75H    basis set group =>   6
Atom  76H    basis set group =>   6
Atom  77H    basis set group =>   6
Atom  78H    basis set group =>   6
Atom  79H    basis set group =>   6
Atom  80H    basis set group =>   6
Atom  81H    basis set group =>   6
Atom  82H    basis set group =>   6
Atom  83H    basis set group =>   6
Atom  84H    basis set group =>   6
Atom  85H    basis set group =>   6
Atom  86H    basis set group =>   6
Atom  87H    basis set group =>   6
Atom  88H    basis set group =>   6
Atom  89H    basis set group =>   6
Atom  90H    basis set group =>   6
---------------------------------
AUXILIARY/J BASIS SET INFORMATION
---------------------------------
There are 6 groups of distinct atoms

 Group   1 Type C   : 12s5p4d2f1g contracted to 6s4p3d1f1g pattern {711111/2111/211/2/1}
 Group   2 Type N   : 12s5p4d2f1g contracted to 6s4p3d1f1g pattern {711111/2111/211/2/1}
 Group   3 Type S   : 14s5p5d2f1g contracted to 8s4p3d1f1g pattern {71111111/2111/311/2/1}
 Group   4 Type Br  : 19s5p5d3f1g contracted to 8s4p3d2f1g pattern {121111111/2111/311/21/1}
 Group   5 Type O   : 12s5p4d2f1g contracted to 6s4p3d1f1g pattern {711111/2111/211/2/1}
 Group   6 Type H   : 5s2p1d contracted to 3s1p1d pattern {311/2/1}

Atom   0C    basis set group =>   1
Atom   1C    basis set group =>   1
Atom   2C    basis set group =>   1
Atom   3N    basis set group =>   2
Atom   4C    basis set group =>   1
Atom   5N    basis set group =>   2
Atom   6C    basis set group =>   1
Atom   7C    basis set group =>   1
Atom   8C    basis set group =>   1
Atom   9C    basis set group =>   1
Atom  10C    basis set group =>   1
Atom  11C    basis set group =>   1
Atom  12S    basis set group =>   3
Atom  13C    basis set group =>   1
Atom  14C    basis set group =>   1
Atom  15Br   basis set group =>   4
Atom  16C    basis set group =>   1
Atom  17O    basis set group =>   5
Atom  18C    basis set group =>   1
Atom  19C    basis set group =>   1
Atom  20C    basis set group =>   1
Atom  21C    basis set group =>   1
Atom  22C    basis set group =>   1
Atom  23C    basis set group =>   1
Atom  24C    basis set group =>   1
Atom  25S    basis set group =>   3
Atom  26C    basis set group =>   1
Atom  27C    basis set group =>   1
Atom  28C    basis set group =>   1
Atom  29C    basis set group =>   1
Atom  30S    basis set group =>   3
Atom  31C    basis set group =>   1
Atom  32C    basis set group =>   1
Atom  33S    basis set group =>   3
Atom  34C    basis set group =>   1
Atom  35C    basis set group =>   1
Atom  36C    basis set group =>   1
Atom  37C    basis set group =>   1
Atom  38C    basis set group =>   1
Atom  39C    basis set group =>   1
Atom  40C    basis set group =>   1
Atom  41C    basis set group =>   1
Atom  42C    basis set group =>   1
Atom  43O    basis set group =>   5
Atom  44C    basis set group =>   1
Atom  45C    basis set group =>   1
Atom  46C    basis set group =>   1
Atom  47C    basis set group =>   1
Atom  48O    basis set group =>   5
Atom  49C    basis set group =>   1
Atom  50C    basis set group =>   1
Atom  51C    basis set group =>   1
Atom  52C    basis set group =>   1
Atom  53C    basis set group =>   1
Atom  54C    basis set group =>   1
Atom  55S    basis set group =>   3
Atom  56C    basis set group =>   1
Atom  57C    basis set group =>   1
Atom  58C    basis set group =>   1
Atom  59C    basis set group =>   1
Atom  60S    basis set group =>   3
Atom  61C    basis set group =>   1
Atom  62H    basis set group =>   6
Atom  63H    basis set group =>   6
Atom  64H    basis set group =>   6
Atom  65H    basis set group =>   6
Atom  66H    basis set group =>   6
Atom  67H    basis set group =>   6
Atom  68H    basis set group =>   6
Atom  69H    basis set group =>   6
Atom  70H    basis set group =>   6
Atom  71H    basis set group =>   6
Atom  72H    basis set group =>   6
Atom  73H    basis set group =>   6
Atom  74H    basis set group =>   6
Atom  75H    basis set group =>   6
Atom  76H    basis set group =>   6
Atom  77H    basis set group =>   6
Atom  78H    basis set group =>   6
Atom  79H    basis set group =>   6
Atom  80H    basis set group =>   6
Atom  81H    basis set group =>   6
Atom  82H    basis set group =>   6
Atom  83H    basis set group =>   6
Atom  84H    basis set group =>   6
Atom  85H    basis set group =>   6
Atom  86H    basis set group =>   6
Atom  87H    basis set group =>   6
Atom  88H    basis set group =>   6
Atom  89H    basis set group =>   6
Atom  90H    basis set group =>   6


           ************************************************************
           *        Program running with 6 parallel MPI-processes     *
           *              working on a common directory               *
           ************************************************************
------------------------------------------------------------------------------
                           ORCA GTO INTEGRAL CALCULATION
                           -- RI-GTO INTEGRALS CHOSEN --
------------------------------------------------------------------------------

                         BASIS SET STATISTICS AND STARTUP INFO

Gaussian basis set:
 # of primitive gaussian shells          ...  943
 # of primitive gaussian functions       ... 1813
 # of contracted shells                  ...  477
 # of contracted basis functions         ... 1055
 Highest angular momentum                ...    2
 Maximum contraction depth               ...    6
Auxiliary gaussian basis set:
 # of primitive gaussian shells          ... 1747
 # of primitive gaussian functions       ... 4865
 # of contracted shells                  ... 1090
 # of contracted aux-basis functions     ... 3378
 Highest angular momentum                ...    4
 Maximum contraction depth               ...   12
Ratio of auxiliary to basis functions    ...  3.20
Integral package used                  ... LIBINT
 One Electron integrals                  ... done
 Ordering auxiliary basis shells         ... done
 Integral threshhold             Thresh  ...  2.500e-11
 Primitive cut-off               TCut    ...  2.500e-12
 Pre-screening matrix                    ... done
 Shell pair data                         ... 
 Ordering of the shell pairs             ... done (   0.008 sec) 36962 of 114003 pairs
 Determination of significant pairs      ... done (   0.000 sec)
 Creation of shell pair data             ... done (   0.004 sec)
 Storage of shell pair data              ... done (   0.111 sec)
 Shell pair data done in (   0.123 sec)
 Computing two index integrals           ... done
 Cholesky decomposition of the V-matrix  ... done


Timings:
 Total evaluation time                   ...   2.463 sec (  0.041 min)
 One electron matrix time                ...   0.483 sec (  0.008 min) = 19.6%
 Schwartz matrix evaluation time         ...   0.561 sec (  0.009 min) = 22.8%
 Two index repulsion integral time       ...   0.251 sec (  0.004 min) = 10.2%
 Cholesky decomposition of V             ...   1.029 sec (  0.017 min) = 41.8%
 Three index repulsion integral time     ...   0.000 sec (  0.000 min) =  0.0%



           ************************************************************
           *        Program running with 6 parallel MPI-processes     *
           *              working on a common directory               *
           ************************************************************
-------------------------------------------------------------------------------
                                 ORCA SCF
-------------------------------------------------------------------------------

------------
SCF SETTINGS
------------
Hamiltonian:
 Density Functional     Method          .... DFT(GTOs)
 Exchange Functional    Exchange        .... WB88
 Correlation Functional Correlation     .... LYP
 LDA part of GGA corr.  LDAOpt          .... VWN-5
 Gradients option       PostSCFGGA      .... off
 Hybrid DFT is turned on
   Fraction HF Exchange ScalHFX         ....  0.190000
   Scaling of DF-GGA-X  ScalDFX         ....  0.350000
   Scaling of DF-GGA-C  ScalDFC         ....  0.810000
   Scaling of DF-LDA-C  ScalLDAC        ....  1.000000
   Perturbative correction              ....  0.000000
   Density functional embedding theory  .... OFF
 Long-range corrected/Screened/Range-Separated Hybrid DFT is turned on
   Amount of maximum screened exact exchange              ....  0.460000
   Range separation parameter mu (erf(mu*r12)/r12)        ....  0.330000
 RI-approximation to the Coulomb term is turned on
   Number of auxiliary basis functions  .... 3378
   RIJ-COSX (HFX calculated with COS-X)).... on


General Settings:
 Integral files         IntName         .... xtbopt
 Hartree-Fock type      HFTyp           .... RHF
 Total Charge           Charge          ....    0
 Multiplicity           Mult            ....    1
 Number of Electrons    NEL             ....  498
 Basis Dimension        Dim             .... 1055
 Nuclear Repulsion      ENuc            ....   9315.9470806663 Eh

Convergence Acceleration:
 DIIS                   CNVDIIS         .... on
   Start iteration      DIISMaxIt       ....    12
   Startup error        DIISStart       ....  0.200000
   # of expansion vecs  DIISMaxEq       ....     5
   Bias factor          DIISBfac        ....   1.050
   Max. coefficient     DIISMaxC        ....  10.000
 Newton-Raphson         CNVNR           .... off
 SOSCF                  CNVSOSCF        .... on
   Start iteration      SOSCFMaxIt      ....   150
   Startup grad/error   SOSCFStart      ....  0.003300
 Level Shifting         CNVShift        .... on
   Level shift para.    LevelShift      ....    0.2500
   Turn off err/grad.   ShiftErr        ....    0.0010
 Zerner damping         CNVZerner       .... off
 Static damping         CNVDamp         .... on
   Fraction old density DampFac         ....    0.7000
   Max. Damping (<1)    DampMax         ....    0.9800
   Min. Damping (>=0)   DampMin         ....    0.0000
   Turn off err/grad.   DampErr         ....    0.1000
 Fernandez-Rico         CNVRico         .... off

SCF Procedure:
 Maximum # iterations   MaxIter         ....   125
 SCF integral mode      SCFMode         .... Direct
   Integral package                     .... LIBINT
 Reset frequency        DirectResetFreq ....    20
 Integral Threshold     Thresh          ....  2.500e-11 Eh
 Primitive CutOff       TCut            ....  2.500e-12 Eh

Convergence Tolerance:
 Convergence Check Mode ConvCheckMode   .... Total+1el-Energy
 Convergence forced     ConvForced      .... 1
 Energy Change          TolE            ....  1.000e-08 Eh
 1-El. energy change                    ....  1.000e-05 Eh
 Orbital Gradient       TolG            ....  1.000e-05
 Orbital Rotation angle TolX            ....  1.000e-05
 DIIS Error             TolErr          ....  5.000e-07


Diagonalization of the overlap matrix:
Smallest eigenvalue                        ... 2.063e-04
Time for diagonalization                   ...    0.449 sec
Threshold for overlap eigenvalues          ... 1.000e-08
Number of eigenvalues below threshold      ... 0
Time for construction of square roots      ...    0.292 sec
Total time needed                          ...    0.742 sec

-------------------
DFT GRID GENERATION
-------------------

General Integration Accuracy     IntAcc      ...  4.670
Radial Grid Type                 RadialGrid  ... Gauss-Chebyshev
Angular Grid (max. acc.)         AngularGrid ... Lebedev-302
Angular grid pruning method      GridPruning ... 3 (G Style)
Weight generation scheme         WeightScheme... Becke
Basis function cutoff            BFCut       ...    1.0000e-11
Integration weight cutoff        WCut        ...    1.0000e-14
Grids for H and He will be reduced by one unit

# of grid points (after initial pruning)     ... 490778 (   0.0 sec)
# of grid points (after weights+screening)   ... 426068 (   3.9 sec)
nearest neighbour list constructed           ...    0.0 sec
Grid point re-assignment to atoms done       ...    0.1 sec
Grid point division into batches done        ...    1.7 sec
Reduced shell lists constructed in    2.4 sec

Total number of grid points                  ...   426068
Total number of batches                      ...     6705
Average number of points per batch           ...       63
Average number of grid points per atom       ...     4682
Average number of shells per batch           ...    80.43 (16.86%)
Average number of basis functions per batch  ...   173.98 (16.49%)
Average number of large shells per batch     ...    51.73 (64.32%)
Average number of large basis fcns per batch ...   113.57 (65.28%)
Maximum spatial batch extension              ...  18.04, 20.43, 20.02 au
Average spatial batch extension              ...   0.33,  0.34,  0.38 au

Time for grid setup =    7.013 sec

------------------------------
INITIAL GUESS: MODEL POTENTIAL
------------------------------
Loading Hartree-Fock densities                     ... done
Calculating cut-offs                               ... done
Setting up the integral package                    ... done
Initializing the effective Hamiltonian             ... done
Starting the Coulomb interaction                   ... done (   1.0 sec)
Reading the grid                                   ... done
Mapping shells                                     ... done
Starting the XC term evaluation                    ... done (   1.1 sec)
  promolecular density results
     # of electrons  =    497.985322077
     EX              =   -540.767759379
     EC              =    -17.900647200
     EX+EC           =   -558.668406580
Transforming the Hamiltonian                       ... done (   0.2 sec)
Diagonalizing the Hamiltonian                      ... done (   0.3 sec)
Back transforming the eigenvectors                 ... done (   0.1 sec)
Now organizing SCF variables                       ... done
                      ------------------
                      INITIAL GUESS DONE (   9.7 sec)
                      ------------------
--------------------
COSX GRID GENERATION
--------------------

General Integration Accuracy     IntAcc      ...  3.340
Radial Grid Type                 RadialGrid  ... Gauss-Chebyshev
Angular Grid (max. acc.)         AngularGrid ... Lebedev-50
Angular grid pruning method      GridPruning ... 3 (G Style)
Weight generation scheme         WeightScheme... Becke
Basis function cutoff            BFCut       ...    1.0000e-11
Integration weight cutoff        WCut        ...    1.0000e-14
Grids for H and He will be reduced by one unit

# of grid points (after initial pruning)     ...  46430 (   0.0 sec)
# of grid points (after weights+screening)   ...  41910 (   0.4 sec)
nearest neighbour list constructed           ...    0.0 sec
Grid point re-assignment to atoms done       ...    0.0 sec
Grid point division into batches done        ...    0.0 sec
Reduced shell lists constructed in    0.1 sec

Total number of grid points                  ...    41910
Total number of batches                      ...      702
Average number of points per batch           ...       59
Average number of grid points per atom       ...      461
Average number of shells per batch           ...    97.53 (20.45%)
Average number of basis functions per batch  ...   212.17 (20.11%)
Average number of large shells per batch     ...    61.94 (63.51%)
Average number of large basis fcns per batch ...   137.86 (64.97%)
Maximum spatial batch extension              ...  16.82, 15.68, 17.99 au
Average spatial batch extension              ...   0.70,  0.70,  0.93 au

Overlap Fitting                  UseSFitting ... on
Constructing numerical overlap ... done (      0.1 sec)
Inverting numerical overlap    ... done (      0.1 sec)
Obtaining analytic overlap     ... done (      0.0 sec)
Final contraction and storage  ... done (      0.3 sec)


General Integration Accuracy     IntAcc      ...  3.670
Radial Grid Type                 RadialGrid  ... Gauss-Chebyshev
Angular Grid (max. acc.)         AngularGrid ... Lebedev-50
Angular grid pruning method      GridPruning ... 3 (G Style)
Weight generation scheme         WeightScheme... Becke
Basis function cutoff            BFCut       ...    1.0000e-11
Integration weight cutoff        WCut        ...    1.0000e-14
Grids for H and He will be reduced by one unit

# of grid points (after initial pruning)     ...  57972 (   0.0 sec)
# of grid points (after weights+screening)   ...  52134 (   0.5 sec)
nearest neighbour list constructed           ...    0.0 sec
Grid point re-assignment to atoms done       ...    0.0 sec
Grid point division into batches done        ...    0.0 sec
Reduced shell lists constructed in    0.1 sec

Total number of grid points                  ...    52134
Total number of batches                      ...      860
Average number of points per batch           ...       60
Average number of grid points per atom       ...      573
Average number of shells per batch           ...    95.77 (20.08%)
Average number of basis functions per batch  ...   208.77 (19.79%)
Average number of large shells per batch     ...    60.81 (63.50%)
Average number of large basis fcns per batch ...   135.76 (65.03%)
Maximum spatial batch extension              ...  18.91, 17.62, 24.77 au
Average spatial batch extension              ...   0.66,  0.69,  0.92 au

Overlap Fitting                  UseSFitting ... on
Constructing numerical overlap ... done (      0.1 sec)
Inverting numerical overlap    ... done (      0.1 sec)
Obtaining analytic overlap     ... done (      0.0 sec)
Final contraction and storage  ... done (      0.3 sec)


General Integration Accuracy     IntAcc      ...  4.010
Radial Grid Type                 RadialGrid  ... Gauss-Chebyshev
Angular Grid (max. acc.)         AngularGrid ... Lebedev-110
Angular grid pruning method      GridPruning ... 3 (G Style)
Weight generation scheme         WeightScheme... Becke
Basis function cutoff            BFCut       ...    1.0000e-11
Integration weight cutoff        WCut        ...    1.0000e-14
Grids for H and He will be reduced by one unit

# of grid points (after initial pruning)     ... 112348 (   0.0 sec)
# of grid points (after weights+screening)   ... 100269 (   0.9 sec)
nearest neighbour list constructed           ...    0.0 sec
Grid point re-assignment to atoms done       ...    0.0 sec
Grid point division into batches done        ...    0.1 sec
Reduced shell lists constructed in    0.3 sec

Total number of grid points                  ...   100269
Total number of batches                      ...     1611
Average number of points per batch           ...       62
Average number of grid points per atom       ...     1102
Average number of shells per batch           ...    90.88 (19.05%)
Average number of basis functions per batch  ...   197.54 (18.72%)
Average number of large shells per batch     ...    58.30 (64.15%)
Average number of large basis fcns per batch ...   128.84 (65.22%)
Maximum spatial batch extension              ...  18.73, 19.66, 18.34 au
Average spatial batch extension              ...   0.55,  0.57,  0.68 au

Overlap Fitting                  UseSFitting ... on
Constructing numerical overlap ... done (      0.3 sec)
Inverting numerical overlap    ... done (      0.1 sec)
Obtaining analytic overlap     ... done (      0.0 sec)
Final contraction and storage  ... done (      0.3 sec)

Time for X-Grid setup             =    4.013 sec
--------------
SCF ITERATIONS
--------------
ITER       Energy         Delta-E        Max-DP      RMS-DP      [F,P]     Damp
               ***  Starting incremental Fock matrix formation  ***
  0  -7216.0747696922   0.000000000000 0.08084723  0.00101818  0.2277801 0.7000
  1  -7216.6288327917  -0.554063099478 0.04614664  0.00072595  0.1012830 0.7000
                               ***Turning on DIIS***
  2  -7216.8740462261  -0.245213434397 0.08451001  0.00131170  0.0432646 0.0000
  3  -7217.2501952188  -0.376148992735 0.05132200  0.00058428  0.0540714 0.0000
  4  -7217.3377970766  -0.087601857789 0.01661440  0.00017958  0.0183664 0.0000
  5  -7217.3437415702  -0.005944493583 0.00993153  0.00008422  0.0135959 0.0000
  6  -7217.3457544000  -0.002012829784 0.00432099  0.00005370  0.0024711 0.0000
                      *** Initiating the SOSCF procedure ***
                           *** Shutting down DIIS ***
                      *** Re-Reading the Fockian *** 
                      *** Removing any level shift *** 
ITER      Energy       Delta-E        Grad      Rot      Max-DP    RMS-DP
  7  -7217.34673991  -0.0009855077  0.003283  0.003283  0.002044  0.000040
               *** Restarting incremental Fock matrix formation ***
  8  -7217.34731147  -0.0005715665  0.002670  0.027537  0.003446  0.000073
  9  -7217.34810062  -0.0007891420  0.001330  0.031823  0.005060  0.000116
 10  -7217.34835353  -0.0002529108  0.001297  0.007888  0.003172  0.000031
 11  -7217.34849796  -0.0001444283  0.000534  0.004253  0.001685  0.000018
 12  -7217.34851242  -0.0000144646  0.000235  0.000862  0.000755  0.000008
 13  -7217.34852129  -0.0000088722  0.000092  0.001053  0.000400  0.000005
 14  -7217.34852212  -0.0000008289  0.000128  0.000380  0.000230  0.000002
 15  -7217.34852301  -0.0000008913  0.000055  0.000297  0.000093  0.000001
 16  -7217.34852300   0.0000000168  0.000042  0.000091  0.000072  0.000001
 17  -7217.34852304  -0.0000000412  0.000009  0.000130  0.000033  0.000000
 18  -7217.34852312  -0.0000000797  0.000005  0.000029  0.000015  0.000000
                  ***Gradient check signals convergence***
              ***Rediagonalizing the Fockian in SOSCF/NRSCF***

               *****************************************************
               *                     SUCCESS                       *
               *           SCF CONVERGED AFTER  19 CYCLES          *
               *****************************************************

Setting up the final grid:

General Integration Accuracy     IntAcc      ...  5.010
Radial Grid Type                 RadialGrid  ... Gauss-Chebyshev
Angular Grid (max. acc.)         AngularGrid ... Lebedev-434
Angular grid pruning method      GridPruning ... 3 (G Style)
Weight generation scheme         WeightScheme... Becke
Basis function cutoff            BFCut       ...    1.0000e-11
Integration weight cutoff        WCut        ...    1.0000e-14
Grids for H and He will be reduced by one unit

# of grid points (after initial pruning)     ... 869088 (   0.0 sec)
# of grid points (after weights+screening)   ... 752232 (   6.7 sec)
nearest neighbour list constructed           ...    0.0 sec
Grid point re-assignment to atoms done       ...    0.1 sec
Grid point division into batches done        ...    5.5 sec
Reduced shell lists constructed in    6.7 sec

Total number of grid points                  ...   752232
Total number of batches                      ...    11798
Average number of points per batch           ...       63
Average number of grid points per atom       ...     8266
Average number of shells per batch           ...    77.72 (16.29%)
Average number of basis functions per batch  ...   167.85 (15.91%)
Average number of large shells per batch     ...    50.03 (64.37%)
Average number of large basis fcns per batch ...   109.79 (65.41%)
Maximum spatial batch extension              ...  16.78, 14.73, 20.29 au
Average spatial batch extension              ...   0.28,  0.28,  0.30 au

Final grid set up in   16.7 sec
Final integration                            ... done (   3.4 sec)
Change in XC energy                          ...    -0.000172003
Integrated number of electrons               ...   497.999785429
Previous integrated no of electrons          ...   497.999768433
Old exchange energy                            =   -143.154388767 Eh
New exchange energy                            =   -143.151016629 Eh
Exchange energy change after final integration =      0.003372137 Eh
Total energy after final integration           =  -7217.345322980 Eh
Final COS-X integration done in                =    66.046 sec

----------------
TOTAL SCF ENERGY
----------------

Total Energy       :        -7217.34532298 Eh         -196393.95071 eV

Components:
Nuclear Repulsion  :         9315.94708067 Eh          253499.80775 eV
Electronic Energy  :       -16533.29240365 Eh         -449893.75846 eV
One Electron Energy:       -28501.07054527 Eh         -775553.55792 eV
Two Electron Energy:        11967.77814163 Eh          325659.79946 eV

Virial components:
Potential Energy   :       -14404.74777036 Eh         -391973.11436 eV
Kinetic Energy     :         7187.40244738 Eh          195579.16365 eV
Virial Ratio       :            2.00416602


DFT components:
N(Alpha)           :      248.999892714489 electrons
N(Beta)            :      248.999892714489 electrons
N(Total)           :      497.999785428977 electrons
E(XC)              :     -423.049810995475 Eh       
DFET-embed. en.    :        0.000000000000 Eh       

---------------
SCF CONVERGENCE
---------------

  Last Energy change         ...    2.0973e-09  Tolerance :   1.0000e-08
  Last MAX-Density change    ...    7.9936e-15  Tolerance :   1.0000e-07
  Last RMS-Density change    ...    4.3168e-17  Tolerance :   5.0000e-09
  Last Orbital Gradient      ...    1.6350e-06  Tolerance :   1.0000e-05
  Last Orbital Rotation      ...    2.4471e-05  Tolerance :   1.0000e-05

             **** THE GBW FILE WAS UPDATED (xtbopt.gbw) ****
             **** DENSITY FILE WAS UPDATED (xtbopt.scfp) ****
             **** ENERGY FILE WAS UPDATED (xtbopt.en.tmp) ****
             **** THE GBW FILE WAS UPDATED (xtbopt.gbw) ****
             **** DENSITY FILE WAS UPDATED (xtbopt.scfp) ****
----------------
ORBITAL ENERGIES
----------------

  NO   OCC          E(Eh)            E(eV) 
   0   2.0000    -482.873119    -13139.6456 
   1   2.0000     -88.963366     -2420.8162 
   2   2.0000     -88.959853     -2420.7207 
   3   2.0000     -88.959821     -2420.7198 
   4   2.0000     -88.953861     -2420.5576 
   5   2.0000     -88.946234     -2420.3501 
   6   2.0000     -88.943788     -2420.2835 
   7   2.0000     -62.550815     -1702.0942 
   8   2.0000     -56.384748     -1534.3070 
   9   2.0000     -56.382067     -1534.2340 
  10   2.0000     -56.382027     -1534.2329 
  11   2.0000     -19.297100      -525.1008 
  12   2.0000     -19.199437      -522.4432 
  13   2.0000     -19.192315      -522.2494 
  14   2.0000     -14.395381      -391.7182 
  15   2.0000     -14.391734      -391.6190 
  16   2.0000     -10.357757      -281.8489 
  17   2.0000     -10.347234      -281.5625 
  18   2.0000     -10.343615      -281.4641 
  19   2.0000     -10.342606      -281.4366 
  20   2.0000     -10.337232      -281.2904 
  21   2.0000     -10.333432      -281.1870 
  22   2.0000     -10.321933      -280.8741 
  23   2.0000     -10.320320      -280.8302 
  24   2.0000     -10.316889      -280.7368 
  25   2.0000     -10.314975      -280.6848 
  26   2.0000     -10.314956      -280.6842 
  27   2.0000     -10.314248      -280.6650 
  28   2.0000     -10.314079      -280.6604 
  29   2.0000     -10.313815      -280.6532 
  30   2.0000     -10.313411      -280.6422 
  31   2.0000     -10.313288      -280.6388 
  32   2.0000     -10.312412      -280.6150 
  33   2.0000     -10.308334      -280.5040 
  34   2.0000     -10.307469      -280.4805 
  35   2.0000     -10.305385      -280.4238 
  36   2.0000     -10.300307      -280.2856 
  37   2.0000     -10.299990      -280.2770 
  38   2.0000     -10.298880      -280.2468 
  39   2.0000     -10.296711      -280.1877 
  40   2.0000     -10.294646      -280.1316 
  41   2.0000     -10.292826      -280.0820 
  42   2.0000     -10.292252      -280.0664 
  43   2.0000     -10.291541      -280.0471 
  44   2.0000     -10.290210      -280.0109 
  45   2.0000     -10.289752      -279.9984 
  46   2.0000     -10.289407      -279.9890 
  47   2.0000     -10.288960      -279.9768 
  48   2.0000     -10.287949      -279.9493 
  49   2.0000     -10.287541      -279.9382 
  50   2.0000     -10.286737      -279.9163 
  51   2.0000     -10.285850      -279.8922 
  52   2.0000     -10.285354      -279.8787 
  53   2.0000     -10.282514      -279.8014 
  54   2.0000     -10.282092      -279.7899 
  55   2.0000     -10.281914      -279.7851 
  56   2.0000     -10.281336      -279.7694 
  57   2.0000     -10.279251      -279.7127 
  58   2.0000     -10.276562      -279.6395 
  59   2.0000     -10.274143      -279.5736 
  60   2.0000     -10.273939      -279.5681 
  61   2.0000     -10.271288      -279.4960 
  62   2.0000     -10.269667      -279.4518 
  63   2.0000     -10.269129      -279.4372 
  64   2.0000     -10.267142      -279.3831 
  65   2.0000     -10.265013      -279.3252 
  66   2.0000      -8.780226      -238.9221 
  67   2.0000      -8.059082      -219.2988 
  68   2.0000      -8.055818      -219.2099 
  69   2.0000      -8.055302      -219.1959 
  70   2.0000      -8.049853      -219.0476 
  71   2.0000      -8.041443      -218.8188 
  72   2.0000      -8.040471      -218.7923 
  73   2.0000      -6.616440      -180.0425 
  74   2.0000      -6.601992      -179.6493 
  75   2.0000      -6.601829      -179.6449 
  76   2.0000      -6.028805      -164.0521 
  77   2.0000      -6.025522      -163.9628 
  78   2.0000      -6.024606      -163.9379 
  79   2.0000      -6.024578      -163.9371 
  80   2.0000      -6.021251      -163.8466 
  81   2.0000      -6.020679      -163.8310 
  82   2.0000      -6.020216      -163.8184 
  83   2.0000      -6.019419      -163.7967 
  84   2.0000      -6.017167      -163.7354 
  85   2.0000      -6.017035      -163.7319 
  86   2.0000      -6.015387      -163.6870 
  87   2.0000      -6.011394      -163.5784 
  88   2.0000      -6.011114      -163.5707 
  89   2.0000      -6.010288      -163.5483 
  90   2.0000      -6.007064      -163.4605 
  91   2.0000      -6.006402      -163.4425 
  92   2.0000      -6.002280      -163.3304 
  93   2.0000      -6.000985      -163.2951 
  94   2.0000      -2.732348       -74.3510 
  95   2.0000      -2.728252       -74.2395 
  96   2.0000      -2.728145       -74.2366 
  97   2.0000      -2.716660       -73.9241 
  98   2.0000      -2.716641       -73.9236 
  99   2.0000      -1.218337       -33.1526 
 100   2.0000      -1.117081       -30.3973 
 101   2.0000      -1.105317       -30.0772 
 102   2.0000      -1.010480       -27.4966 
 103   2.0000      -1.003814       -27.3152 
 104   2.0000      -0.999657       -27.2020 
 105   2.0000      -0.996453       -27.1149 
 106   2.0000      -0.993227       -27.0271 
 107   2.0000      -0.984380       -26.7863 
 108   2.0000      -0.974244       -26.5105 
 109   2.0000      -0.972848       -26.4725 
 110   2.0000      -0.968162       -26.3450 
 111   2.0000      -0.929590       -25.2954 
 112   2.0000      -0.925680       -25.1890 
 113   2.0000      -0.923784       -25.1374 
 114   2.0000      -0.909117       -24.7383 
 115   2.0000      -0.907032       -24.6816 
 116   2.0000      -0.898095       -24.4384 
 117   2.0000      -0.889562       -24.2062 
 118   2.0000      -0.885852       -24.1053 
 119   2.0000      -0.872778       -23.7495 
 120   2.0000      -0.867440       -23.6042 
 121   2.0000      -0.863324       -23.4922 
 122   2.0000      -0.858337       -23.3565 
 123   2.0000      -0.849657       -23.1204 
 124   2.0000      -0.846205       -23.0264 
 125   2.0000      -0.834141       -22.6981 
 126   2.0000      -0.832964       -22.6661 
 127   2.0000      -0.826053       -22.4780 
 128   2.0000      -0.822704       -22.3869 
 129   2.0000      -0.812551       -22.1106 
 130   2.0000      -0.811171       -22.0731 
 131   2.0000      -0.806233       -21.9387 
 132   2.0000      -0.797849       -21.7106 
 133   2.0000      -0.785837       -21.3837 
 134   2.0000      -0.769525       -20.9398 
 135   2.0000      -0.753100       -20.4929 
 136   2.0000      -0.738621       -20.0989 
 137   2.0000      -0.732536       -19.9333 
 138   2.0000      -0.724211       -19.7068 
 139   2.0000      -0.715677       -19.4746 
 140   2.0000      -0.703745       -19.1499 
 141   2.0000      -0.693370       -18.8676 
 142   2.0000      -0.683403       -18.5963 
 143   2.0000      -0.681026       -18.5317 
 144   2.0000      -0.677838       -18.4449 
 145   2.0000      -0.673501       -18.3269 
 146   2.0000      -0.669823       -18.2268 
 147   2.0000      -0.662084       -18.0162 
 148   2.0000      -0.651816       -17.7368 
 149   2.0000      -0.651487       -17.7279 
 150   2.0000      -0.640881       -17.4393 
 151   2.0000      -0.637262       -17.3408 
 152   2.0000      -0.631979       -17.1970 
 153   2.0000      -0.628059       -17.0904 
 154   2.0000      -0.624831       -17.0025 
 155   2.0000      -0.621788       -16.9197 
 156   2.0000      -0.613328       -16.6895 
 157   2.0000      -0.603955       -16.4345 
 158   2.0000      -0.603292       -16.4164 
 159   2.0000      -0.597445       -16.2573 
 160   2.0000      -0.586676       -15.9643 
 161   2.0000      -0.582632       -15.8542 
 162   2.0000      -0.580687       -15.8013 
 163   2.0000      -0.575299       -15.6547 
 164   2.0000      -0.574651       -15.6370 
 165   2.0000      -0.568435       -15.4679 
 166   2.0000      -0.566095       -15.4042 
 167   2.0000      -0.560642       -15.2558 
 168   2.0000      -0.552662       -15.0387 
 169   2.0000      -0.540002       -14.6942 
 170   2.0000      -0.538172       -14.6444 
 171   2.0000      -0.535467       -14.5708 
 172   2.0000      -0.531382       -14.4596 
 173   2.0000      -0.525770       -14.3069 
 174   2.0000      -0.524795       -14.2804 
 175   2.0000      -0.521790       -14.1986 
 176   2.0000      -0.518734       -14.1155 
 177   2.0000      -0.516201       -14.0465 
 178   2.0000      -0.514534       -14.0012 
 179   2.0000      -0.512660       -13.9502 
 180   2.0000      -0.511315       -13.9136 
 181   2.0000      -0.510757       -13.8984 
 182   2.0000      -0.506273       -13.7764 
 183   2.0000      -0.501985       -13.6597 
 184   2.0000      -0.498066       -13.5531 
 185   2.0000      -0.497835       -13.5468 
 186   2.0000      -0.495001       -13.4697 
 187   2.0000      -0.493469       -13.4280 
 188   2.0000      -0.492085       -13.3903 
 189   2.0000      -0.491006       -13.3609 
 190   2.0000      -0.488754       -13.2997 
 191   2.0000      -0.488073       -13.2811 
 192   2.0000      -0.486880       -13.2487 
 193   2.0000      -0.480117       -13.0647 
 194   2.0000      -0.476592       -12.9687 
 195   2.0000      -0.475635       -12.9427 
 196   2.0000      -0.474067       -12.9000 
 197   2.0000      -0.472059       -12.8454 
 198   2.0000      -0.469726       -12.7819 
 199   2.0000      -0.468679       -12.7534 
 200   2.0000      -0.465965       -12.6796 
 201   2.0000      -0.464999       -12.6533 
 202   2.0000      -0.457092       -12.4381 
 203   2.0000      -0.454843       -12.3769 
 204   2.0000      -0.452966       -12.3258 
 205   2.0000      -0.448616       -12.2075 
 206   2.0000      -0.445134       -12.1127 
 207   2.0000      -0.441396       -12.0110 
 208   2.0000      -0.440763       -11.9938 
 209   2.0000      -0.439064       -11.9475 
 210   2.0000      -0.435116       -11.8401 
 211   2.0000      -0.432379       -11.7656 
 212   2.0000      -0.430951       -11.7268 
 213   2.0000      -0.430333       -11.7100 
 214   2.0000      -0.424132       -11.5412 
 215   2.0000      -0.423766       -11.5313 
 216   2.0000      -0.422862       -11.5067 
 217   2.0000      -0.422306       -11.4915 
 218   2.0000      -0.421294       -11.4640 
 219   2.0000      -0.418579       -11.3901 
 220   2.0000      -0.408572       -11.1178 
 221   2.0000      -0.406332       -11.0569 
 222   2.0000      -0.403991       -10.9931 
 223   2.0000      -0.402719       -10.9585 
 224   2.0000      -0.401452       -10.9241 
 225   2.0000      -0.398295       -10.8382 
 226   2.0000      -0.393407       -10.7052 
 227   2.0000      -0.388521       -10.5722 
 228   2.0000      -0.386813       -10.5257 
 229   2.0000      -0.374149       -10.1811 
 230   2.0000      -0.367245        -9.9932 
 231   2.0000      -0.364260        -9.9120 
 232   2.0000      -0.362762        -9.8713 
 233   2.0000      -0.353033        -9.6065 
 234   2.0000      -0.348067        -9.4714 
 235   2.0000      -0.341571        -9.2946 
 236   2.0000      -0.340869        -9.2755 
 237   2.0000      -0.331566        -9.0224 
 238   2.0000      -0.325980        -8.8704 
 239   2.0000      -0.325468        -8.8564 
 240   2.0000      -0.315257        -8.5786 
 241   2.0000      -0.314302        -8.5526 
 242   2.0000      -0.313054        -8.5186 
 243   2.0000      -0.297982        -8.1085 
 244   2.0000      -0.291947        -7.9443 
 245   2.0000      -0.276770        -7.5313 
 246   2.0000      -0.264564        -7.1992 
 247   2.0000      -0.226401        -6.1607 
 248   2.0000      -0.210505        -5.7281 
 249   0.0000      -0.108577        -2.9545 
 250   0.0000      -0.074482        -2.0267 
 251   0.0000      -0.056427        -1.5355 
 252   0.0000      -0.043231        -1.1764 
 253   0.0000      -0.024791        -0.6746 
 254   0.0000       0.000860         0.0234 
 255   0.0000       0.005312         0.1445 
 256   0.0000       0.019622         0.5339 
 257   0.0000       0.032871         0.8945 
 258   0.0000       0.036142         0.9835 
 259   0.0000       0.037927         1.0320 
 260   0.0000       0.049991         1.3603 
 261   0.0000       0.050068         1.3624 
 262   0.0000       0.053099         1.4449 
 263   0.0000       0.059080         1.6077 
 264   0.0000       0.060287         1.6405 
 265   0.0000       0.070093         1.9073 
 266   0.0000       0.071574         1.9476 
 267   0.0000       0.081004         2.2042 
 268   0.0000       0.083597         2.2748 
 269   0.0000       0.088695         2.4135 
 270   0.0000       0.093779         2.5518 
 271   0.0000       0.096586         2.6282 
 272   0.0000       0.098672         2.6850 
 273   0.0000       0.101341         2.7576 
 274   0.0000       0.104786         2.8514 
 275   0.0000       0.107656         2.9295 
 276   0.0000       0.110184         2.9983 
 277   0.0000       0.112169         3.0523 
 278   0.0000       0.115201         3.1348 
 279   0.0000       0.117800         3.2055 
 280   0.0000       0.118501         3.2246 
 281   0.0000       0.121833         3.3152 
 282   0.0000       0.122230         3.3261 
 283   0.0000       0.129299         3.5184 
 284   0.0000       0.133573         3.6347 
 285   0.0000       0.134551         3.6613 
 286   0.0000       0.138604         3.7716 
 287   0.0000       0.139919         3.8074 
 288   0.0000       0.141280         3.8444 
 289   0.0000       0.143343         3.9006 
 290   0.0000       0.147222         4.0061 
 291   0.0000       0.149708         4.0738 
 292   0.0000       0.150825         4.1042 
 293   0.0000       0.152884         4.1602 
 294   0.0000       0.154997         4.2177 
 295   0.0000       0.158029         4.3002 
 296   0.0000       0.162967         4.4346 
 297   0.0000       0.163472         4.4483 
 298   0.0000       0.166342         4.5264 
 299   0.0000       0.172049         4.6817 
 300   0.0000       0.173315         4.7161 
 301   0.0000       0.175059         4.7636 
 302   0.0000       0.177967         4.8427 
 303   0.0000       0.185392         5.0448 
 304   0.0000       0.188590         5.1318 
 305   0.0000       0.190954         5.1961 
 306   0.0000       0.193627         5.2689 
 307   0.0000       0.198039         5.3889 
 308   0.0000       0.202761         5.5174 
 309   0.0000       0.205296         5.5864 
 310   0.0000       0.208585         5.6759 
 311   0.0000       0.211200         5.7470 
 312   0.0000       0.216885         5.9017 
 313   0.0000       0.222102         6.0437 
 314   0.0000       0.226016         6.1502 
 315   0.0000       0.227141         6.1808 
 316   0.0000       0.228974         6.2307 
 317   0.0000       0.231629         6.3030 
 318   0.0000       0.240549         6.5457 
 319   0.0000       0.243550         6.6273 
 320   0.0000       0.247378         6.7315 
 321   0.0000       0.248672         6.7667 
 322   0.0000       0.255616         6.9557 
 323   0.0000       0.257812         7.0154 
 324   0.0000       0.263021         7.1572 
 325   0.0000       0.267278         7.2730 
 326   0.0000       0.269438         7.3318 
 327   0.0000       0.274507         7.4697 
 328   0.0000       0.276675         7.5287 
 329   0.0000       0.279538         7.6066 
 330   0.0000       0.283745         7.7211 
 331   0.0000       0.286136         7.7862 
 332   0.0000       0.291209         7.9242 
 333   0.0000       0.299219         8.1422 
 334   0.0000       0.304612         8.2889 
 335   0.0000       0.310676         8.4539 
 336   0.0000       0.312222         8.4960 
 337   0.0000       0.314687         8.5631 
 338   0.0000       0.317671         8.6443 
 339   0.0000       0.321182         8.7398 
 340   0.0000       0.322882         8.7861 
 341   0.0000       0.327675         8.9165 
[...]

molecular weight:  978.053
state   eV        nm        fL         fV        Rl        RV
   0   1.149    1079.4   1.240846   2.537124  -1316.099470  -1750.014024     0.94 (  88->  89)    0.03 (  87->  90)    0.01 (  87->  91)
   1   1.681     737.7   0.170183   0.336314  1420.501693  1722.197100     0.91 (  87->  89)    0.04 (  88->  90)    0.02 (  88->  91)
   2   2.095     591.9   0.089790   0.106798  620.154311  693.331422     0.86 (  88->  90)    0.05 (  87->  91)    0.04 (  87->  89)
   3   2.474     501.1   0.171811   0.209272  -15.320684  -9.770171     0.39 (  88->  91)    0.35 (  86->  89)    0.16 (  87->  90)
   4   2.662     465.8   0.667496   0.775185  -206.787743  -170.723531     0.47 (  87->  90)    0.17 (  88->  92)    0.15 (  86->  89)
   5   2.707     458.0   0.370979   0.431223  24.759226  -10.797327     0.33 (  88->  91)    0.20 (  86->  89)    0.13 (  87->  92)
   6   2.870     432.1   1.198444   1.353877  -427.132108  -376.131407     0.35 (  88->  92)    0.23 (  86->  89)    0.10 (  85->  89)
   7   3.071     403.7   0.136628   0.150207   3.568979   1.587182     0.44 (  85->  89)    0.12 (  88->  93)    0.09 (  87->  92)
   8   3.123     396.9   0.153703   0.155806  -211.556528  -209.729438     0.34 (  85->  89)    0.25 (  87->  91)    0.10 (  88->  93)
   9   3.333     372.0   0.000481   0.000429   3.239817   2.798426     0.76 (  82->  89)    0.07 (  82->  93)    0.06 (  82->  90)
  10   3.341     371.1   0.030115   0.024713  -1.873257   0.731408     0.33 (  87->  91)    0.20 (  84->  89)    0.16 (  88->  93)
  11   3.447     359.6   0.085849   0.079048   9.323999  -19.460317     0.45 (  84->  89)    0.22 (  88->  93)    0.05 (  86->  90)
  12   3.543     350.0   0.135689   0.116289  -18.872135  -14.623186     0.34 (  83->  89)    0.28 (  86->  90)    0.08 (  88->  93)
  13   3.561     348.1   0.088258   0.086437  -52.407612  -49.640610     0.39 (  83->  89)    0.28 (  86->  90)    0.05 (  88->  93)
  14   3.652     339.5   0.061789   0.048932  -6.084499   4.285942     0.85 (  80->  89)    0.03 (  81->  89)    0.02 (  84->  89)
  15   3.727     332.6   0.086458   0.087413  23.570928  22.202621     0.34 (  87->  92)    0.17 (  87->  93)    0.07 (  86->  91)
  16   3.760     329.7   0.074294   0.067489  -1.004235  -5.618689     0.52 (  77->  89)    0.10 (  79->  89)    0.06 (  76->  89)
  17   3.862     321.0   0.063637   0.055512   4.902436  -2.492592     0.39 (  81->  89)    0.08 (  88->  95)    0.07 (  77->  89)
  18   3.922     316.1   0.003823   0.003338  -9.053413  -7.820681     0.50 (  82->  92)    0.25 (  82->  91)    0.12 (  82->  93)
  19   3.925     315.9   0.061986   0.055087  -13.309573  -9.701437     0.18 (  88->  95)    0.13 (  88->  94)    0.09 (  87->  95)
  20   3.970     312.3   0.030548   0.033489  10.797181  14.154502     0.14 (  81->  89)    0.13 (  88->  94)    0.11 (  86->  91)
  21   4.000     309.9   0.631367   0.578633  -38.286103  -21.235237     0.22 (  85->  92)    0.17 (  85->  91)    0.13 (  87->  93)
  22   4.081     303.8   0.008382   0.006763  -5.230286  -3.600250     0.21 (  79->  89)    0.12 (  79->  90)    0.08 (  81->  90)
  23   4.116     301.2   0.033649   0.028422  36.954610  29.717898     0.32 (  86->  91)    0.15 (  87->  93)    0.07 (  86->  92)
  24   4.182     296.5   0.000070   0.000129   1.100408   1.369075     0.65 (  78->  89)    0.13 (  78->  90)    0.08 (  78->  92)
  25   4.242     292.3   0.044720   0.035472  37.803043  48.753041     0.20 (  88->  94)    0.11 (  88->  97)    0.11 (  87->  94)
  26   4.312     287.5   0.019302   0.015362   7.411695   6.729531     0.20 (  74->  89)    0.17 (  88->  98)    0.11 (  88->  97)
  27   4.314     287.4   0.055325   0.046823  -21.005124  -11.182254     0.18 (  74->  89)    0.18 (  88->  98)    0.09 (  81->  89)
  28   4.333     286.1   0.044376   0.045966   3.303214   1.303778     0.21 (  85->  90)    0.20 (  84->  90)    0.05 (  79->  89)
  29   4.339     285.7   0.005963   0.007229  -10.002778  -7.145470     0.25 (  88->  99)    0.14 (  87->  98)    0.13 (  88->  98)
  30   4.417     280.7   0.015911   0.013794  -30.562614  -26.945138     0.25 (  84->  90)    0.09 (  85->  91)    0.07 (  79->  89)
  31   4.437     279.4   0.031191   0.030760  12.998008   9.342938     0.35 (  86->  92)    0.18 (  84->  91)    0.05 (  88->  96)
  32   4.545     272.8   0.054776   0.050477  17.133813  14.864903     0.22 (  88->  96)    0.12 (  76->  89)    0.05 (  88->  97)
  33   4.593     270.0   0.000802   0.001602   6.144948   9.470249     0.32 (  80->  90)    0.12 (  79->  89)    0.07 (  88->  96)
  34   4.601     269.4   0.067808   0.054836  14.609718  15.423221     0.49 (  80->  90)    0.08 (  79->  89)    0.07 (  81->  90)
  35   4.655     266.4   0.045237   0.033949  -19.381004  -24.430890     0.15 (  75->  89)    0.13 (  83->  91)    0.12 (  75->  90)
  36   4.706     263.5   0.118253   0.101895  17.769538  12.902405     0.18 (  75->  89)    0.12 (  75->  90)    0.10 (  88->  95)
  37   4.751     261.0   0.092740   0.072132  13.617431  15.150798     0.17 (  88->  96)    0.14 (  76->  89)    0.13 (  87->  96)
  38   4.782     259.2   0.028383   0.023637  -1.753385  -1.254136     0.29 (  88-> 102)    0.11 (  88->  98)    0.09 (  88->  99)
  39   4.805     258.0   0.027056   0.023519  -3.851466  -9.879799     0.16 (  87->  95)    0.11 (  85->  90)    0.11 (  86->  93)
  40   4.836     256.4   0.024504   0.021446   0.019103  -0.463128     0.30 (  76->  89)    0.09 (  87->  94)    0.09 (  87->  95)
  41   4.874     254.4   0.128532   0.101242  45.820971  33.920632     0.17 (  87->  95)    0.12 (  86->  93)    0.07 (  88->  95)
  42   4.909     252.6   0.000120   0.000085  -1.056081  -0.647276     0.31 (  82->  91)    0.24 (  82->  93)    0.17 (  82->  90)
  43   4.916     252.2   0.003095   0.002926  15.730945  14.384424     0.18 (  86->  93)    0.15 (  85->  91)    0.14 (  84->  91)
  44   4.995     248.2   0.050875   0.042318  -50.578692  -45.254105     0.19 (  84->  91)    0.08 (  85->  93)    0.08 (  79->  90)

-----------------------------------------------------------------------------
         ABSORPTION SPECTRUM VIA TRANSITION ELECTRIC DIPOLE MOMENTS
-----------------------------------------------------------------------------
State   Energy  Wavelength   fosc         T2         TX        TY        TZ  
        (cm-1)    (nm)                  (au**2)     (au)      (au)      (au) 
-----------------------------------------------------------------------------
   0    9264.2   1079.4   1.240845912  44.09465  -0.59207  -5.19316  -4.09575
   1   13556.3    737.7   0.170183146   4.13287  -0.70529  -1.82780  -0.54276
   2   16893.6    591.9   0.089789819   1.74977   0.72466  -0.24793   1.07850
   3   19956.3    501.1   0.171811027   2.83430  -1.44630   0.72822  -0.46064
   4   21466.6    465.8   0.667495954  10.23671   2.84123  -1.43861   0.30749
   5   21834.6    458.0   0.370978691   5.59346   1.96933  -1.30964   0.00534
   6   23145.4    432.1   1.198444101  17.04624   3.72119  -1.71798   0.49755
   7   24768.6    403.7   0.136627583   1.81599   0.90829   0.74797   0.65692
   8   25192.3    396.9   0.153702619   2.00858   1.33976  -0.00205   0.46220
   9   26884.9    372.0   0.000480977   0.00589  -0.01987   0.05781   0.04640
  10   26946.6    371.1   0.030115237   0.36792  -0.10418   0.45833   0.38341
  11   27805.1    359.6   0.085848951   1.01645  -0.80080  -0.28348  -0.54297
  12   28575.3    350.0   0.135688784   1.56325  -0.75365   0.85549   0.51322
  13   28724.7    348.1   0.088257916   1.01152   0.72637  -0.62496  -0.30549
  14   29458.3    339.5   0.061789106   0.69052   0.07222   0.49761   0.66159
  15   30062.1    332.6   0.086458365   0.94681  -0.54206   0.76458   0.26153
  16   30328.3    329.7   0.074293838   0.80645  -0.81921  -0.08659  -0.35756
  17   31150.2    321.0   0.063636600   0.67255   0.01433  -0.67489  -0.46569
  18   31636.3    316.1   0.003822717   0.03978   0.10837   0.15020   0.07400
  19   31656.3    315.9   0.061986065   0.64463   0.53178   0.50482   0.32709
  20   32016.8    312.3   0.030548318   0.31411   0.08652  -0.42193  -0.35862
  21   32263.5    309.9   0.631367426   6.44238   0.52985   2.02453   1.43629
  22   32912.7    303.8   0.008381693   0.08384  -0.13374   0.09189  -0.23981
  23   33196.8    301.2   0.033649179   0.33370   0.23176   0.25018   0.46625
  24   33729.7    296.5   0.000069578   0.00068  -0.02300   0.00251   0.01199
  25   34212.5    292.3   0.044720223   0.43032   0.01110   0.63080   0.17970
  26   34782.2    287.5   0.019301781   0.18269  -0.35870  -0.15221  -0.17567
  27   34792.2    287.4   0.055325138   0.52350   0.55415  -0.46080   0.06386
  28   34947.4    286.1   0.044375736   0.41803   0.11692  -0.44568  -0.45358
  29   34997.4    285.7   0.005962577   0.05609   0.14096   0.06040   0.18048
  30   35621.5    280.7   0.015911207   0.14705  -0.18098   0.32731  -0.08465
  31   35788.3    279.4   0.031191385   0.28693  -0.22338   0.47123   0.12235
  32   36657.7    272.8   0.054776073   0.49193   0.62762  -0.31270  -0.01567
  33   37042.2    270.0   0.000801549   0.00712  -0.01576  -0.06621  -0.04991
  34   37113.5    269.4   0.067808310   0.60149  -0.64821   0.29310  -0.30887
  35   37541.3    266.4   0.045236697   0.39670   0.00632   0.51507   0.36243
  36   37956.1    263.5   0.118252929   1.02567  -0.73117   0.68918   0.12681
  37   38320.8    261.0   0.092739821   0.79672   0.13312   0.61877   0.62938
  38   38572.9    259.2   0.028382931   0.24224   0.27792  -0.38612  -0.12615
  39   38753.2    258.0   0.027055761   0.22984   0.42431  -0.16915   0.14557
  40   39008.2    256.4   0.024504187   0.20680  -0.06515   0.38160   0.23863
  41   39309.8    254.4   0.128532130   1.07643  -0.63125   0.78613   0.24486
  42   39589.8    252.6   0.000120358   0.00100   0.00761  -0.02077  -0.02262
  43   39646.8    252.2   0.003094907   0.02570  -0.08980  -0.12861  -0.03308
  44   40284.5    248.2   0.050875001   0.41576   0.56372  -0.01323   0.31274

-----------------------------------------------------------------------------
         ABSORPTION SPECTRUM VIA TRANSITION VELOCITY DIPOLE MOMENTS
-----------------------------------------------------------------------------
State   Energy  Wavelength   fosc         P2         PX        PY        PZ  
        (cm-1)    (nm)                  (au**2)     (au)      (au)      (au) 
-----------------------------------------------------------------------------
   0    9264.2   1079.4   2.537124180   0.16064  -0.03988  -0.31517  -0.24437
   1   13556.3    737.7   0.336313661   0.03116  -0.05803  -0.15691  -0.05630
   2   16893.6    591.9   0.106798207   0.01233   0.06123  -0.02842   0.08817
   3   19956.3    501.1   0.209272109   0.02854  -0.14548   0.07139  -0.04777
   4   21466.6    465.8   0.775184867   0.11373   0.30132  -0.14652   0.03830
   5   21834.6    458.0   0.431223345   0.06435   0.20791  -0.14527  -0.00461
   6   23145.4    432.1   1.353876517   0.21417   0.41989  -0.18400   0.06326
   7   24768.6    403.7   0.150206618   0.02543   0.10724   0.08829   0.07831
   8   25192.3    396.9   0.155805764   0.02683   0.15474  -0.00177   0.05366
   9   26884.9    372.0   0.000428667   0.00008  -0.00274   0.00629   0.00563
  10   26946.6    371.1   0.024713257   0.00455  -0.01158   0.05127   0.04229
  11   27805.1    359.6   0.079048133   0.01502  -0.10349  -0.02330  -0.06139
  12   28575.3    350.0   0.116288851   0.02271  -0.09672   0.09964   0.05855
  13   28724.7    348.1   0.086437395   0.01697   0.09242  -0.08244  -0.04040
  14   29458.3    339.5   0.048931745   0.00985   0.00578   0.06178   0.07747
  15   30062.1    332.6   0.087412893   0.01796  -0.07370   0.10578   0.03660
  16   30328.3    329.7   0.067489398   0.01399  -0.10950  -0.00858  -0.04387
  17   31150.2    321.0   0.055511875   0.01182   0.00414  -0.08878  -0.06261
  18   31636.3    316.1   0.003337903   0.00072   0.01444   0.02061   0.00940
  19   31656.3    315.9   0.055087393   0.01192   0.07163   0.07013   0.04323
  20   32016.8    312.3   0.033489356   0.00733   0.01148  -0.06603  -0.05326
  21   32263.5    309.9   0.578632947   0.12759   0.07054   0.28600   0.20204
  22   32912.7    303.8   0.006763009   0.00152  -0.01586   0.01196  -0.03356
  23   33196.8    301.2   0.028421710   0.00645   0.03472   0.03350   0.06419
  24   33729.7    296.5   0.000128565   0.00003  -0.00505  -0.00064   0.00192
  25   34212.5    292.3   0.035471915   0.00829  -0.00504   0.08869   0.02007
  26   34782.2    287.5   0.015361911   0.00365  -0.04861  -0.02405  -0.02665
  27   34792.2    287.4   0.046823079   0.01113   0.08273  -0.06401   0.01384
  28   34947.4    286.1   0.045966052   0.01098   0.01932  -0.07129  -0.07432
  29   34997.4    285.7   0.007228771   0.00173   0.02720   0.01926   0.02486
  30   35621.5    280.7   0.013793818   0.00336  -0.02857   0.04836  -0.01425
  31   35788.3    279.4   0.030760159   0.00752  -0.03803   0.07505   0.02110
  32   36657.7    272.8   0.050476701   0.01265   0.09997  -0.05145  -0.00243
  33   37042.2    270.0   0.001602487   0.00041  -0.00325  -0.01637  -0.01128
  34   37113.5    269.4   0.054835529   0.01391  -0.09829   0.04452  -0.04761
  35   37541.3    266.4   0.033949393   0.00871   0.00384   0.07612   0.05386
  36   37956.1    263.5   0.101895464   0.02643  -0.11640   0.11128   0.02235
  37   38320.8    261.0   0.072131892   0.01889   0.01842   0.09548   0.09714
  38   38572.9    259.2   0.023637151   0.00623   0.04545  -0.06200  -0.01791
  39   38753.2    258.0   0.023519113   0.00623   0.06914  -0.03345   0.01816
  40   39008.2    256.4   0.021445645   0.00572  -0.01091   0.06317   0.04010
  41   39309.8    254.4   0.101242232   0.02720  -0.09883   0.12518   0.04197
  42   39589.8    252.6   0.000085117   0.00002   0.00059  -0.00420  -0.00224
  43   39646.8    252.2   0.002925960   0.00079  -0.01785  -0.02096  -0.00593
  44   40284.5    248.2   0.042318162   0.01165   0.09402  -0.00139   0.05301

-------------------------------------------------------------------
                             CD SPECTRUM
-------------------------------------------------------------------
State   Energy Wavelength       R         MX        MY        MZ   
        (cm-1)   (nm)       (1e40*cgs)   (au)      (au)      (au)  
-------------------------------------------------------------------
   0    9264.2   1079.4    -1316.09947  -1.06149   4.61060  -7.05571
   1   13556.3    737.7    1420.50169   2.09990   4.34579  -6.26083
   2   16893.6    591.9    620.15431   3.08962   2.14243  -4.02285
   3   19956.3    501.1    -15.32068  -1.60528  -1.02720   3.27520
   4   21466.6    465.8    -206.78774   0.84805   0.18906  -4.09854
   5   21834.6    458.0     24.75923   0.04330   0.13226  -3.20127
   6   23145.4    432.1    -427.13211   1.75987   0.91605  -6.35718
   7   24768.6    403.7      3.56898   0.31500  -1.56832   1.32711
   8   25192.3    396.9    -211.55653   1.39049   0.61941  -2.08602
   9   26884.9    372.0      3.23982   0.17967  -0.37863   0.25249
  10   26946.6    371.1     -1.87326  -0.52654  -1.82862   2.06360
  11   27805.1    359.6      9.32400   0.03631   1.75925  -0.89921
  12   28575.3    350.0    -18.87214  -0.27678  -1.97570   3.04285
  13   28724.7    348.1    -52.40761   0.62057   2.00642  -3.35680
  14   29458.3    339.5     -6.08450   0.65519  -1.05761   0.76297
  15   30062.1    332.6     23.57093   0.09525  -0.72232   1.92675
  16   30328.3    329.7     -1.00424  -0.08722   0.97308  -0.04773
  17   31150.2    321.0      4.90244   0.20613   1.96050  -2.79021
  18   31636.3    316.1     -9.05341   0.60864  -0.33014   0.29780
  19   31656.3    315.9    -13.30957   0.30125  -0.56593   0.55630
  20   32016.8    312.3     10.79718  -0.40839   0.74684  -0.84949
  21   32263.5    309.9    -38.28610   1.42341  -3.24508   4.16209
  22   32912.7    303.8     -5.23029  -0.11350   0.54422   0.17930
  23   33196.8    301.2     36.95461   0.75408  -0.41966  -0.48589
  24   33729.7    296.5      1.10041   0.24278  -0.17961   0.11395
  25   34212.5    292.3     37.80304  -0.10480  -0.82168   1.99831
  26   34782.2    287.5      7.41169   0.16959   0.76888  -0.83352
  27   34792.2    287.4    -21.00512  -0.00380  -0.33280  -0.97310
  28   34947.4    286.1      3.30321  -0.67187   0.87704  -1.00406
  29   34997.4    285.7    -10.00278   0.16165  -0.20744   0.17829
  30   35621.5    280.7    -30.56261   0.10261   0.51498   0.24020
  31   35788.3    279.4     12.99801   0.05027  -0.48716   1.51739
  32   36657.7    272.8     17.13381  -0.44535  -0.64814  -0.26498
  33   37042.2    270.0      6.14495   0.29738   0.69666  -0.49577
  34   37113.5    269.4     14.60972  -1.02338  -0.25344   2.10786
  35   37541.3    266.4    -19.38100   2.17507   1.86746  -2.46501
  36   37956.1    263.5     17.76954   0.19933  -0.13065   1.26496
  37   38320.8    261.0     13.61743   1.09682  -0.86269   0.52437
  38   38572.9    259.2     -1.75339  -0.63898  -0.51652   0.11427
  39   38753.2    258.0     -3.85147   0.31925  -0.01517  -0.83595
  40   39008.2    256.4      0.01910   0.55432  -0.36106   0.72837
  41   39309.8    254.4     45.82097   0.57257  -0.22742   1.41234
  42   39589.8    252.6     -1.05608   0.20012  -0.03928  -0.09467
  43   39646.8    252.2     15.73095   0.22462   0.63645  -1.06668
  44   40284.5    248.2    -50.57869   0.00987  -1.30339   0.61316

sTD-DFT done

Total run time:        3.275 sec

           *** ORCA-CIS/TD-DFT FINISHED WITHOUT ERROR ***

-------------------------   --------------------
FINAL SINGLE POINT ENERGY     -7217.345322980483
-------------------------   --------------------


                            ***************************************
                            *     ORCA property calculations      *
                            ***************************************

                                    ---------------------
                                    Active property flags
                                    ---------------------
   (+) Dipole Moment


------------------------------------------------------------------------------
                       ORCA ELECTRIC PROPERTIES CALCULATION
------------------------------------------------------------------------------

Dipole Moment Calculation                       ... on
Quadrupole Moment Calculation                   ... off
Polarizability Calculation                      ... off
GBWName                                         ... xtbopt.gbw
Electron density file                           ... xtbopt.scfp
The origin for moment calculation is the CENTER OF MASS  = (-13.383596, -1.240712  1.985072)

-------------
DIPOLE MOMENT
-------------
                                X             Y             Z
Electronic contribution:     58.07046     167.86717     120.38638
Nuclear contribution   :    -62.00589    -169.90720    -123.56179
                        -----------------------------------------
Total Dipole Moment    :     -3.93543      -2.04003      -3.17541
                        -----------------------------------------
Magnitude (a.u.)       :      5.45276
Magnitude (Debye)      :     13.85981



--------------------
Rotational spectrum 
--------------------
 
Rotational constants in cm-1:     0.001723     0.000243     0.000217 
Rotational constants in MHz :    51.669089     7.273454     6.512023 

 Dipole components along the rotational axes: 
x,y,z [a.u.] :     4.074857    -3.623178    -0.026089 
x,y,z [Debye]:    10.357464    -9.209387    -0.066314 

 

Timings for individual modules:

Sum of individual times         ...      635.318 sec (=  10.589 min)
GTO integral calculation        ...        5.168 sec (=   0.086 min)   0.8 %
SCF iterations                  ...      624.361 sec (=  10.406 min)  98.3 %
CIS module                      ...        5.790 sec (=   0.096 min)   0.9 %
                             ****ORCA TERMINATED NORMALLY****
TOTAL RUN TIME: 0 days 0 hours 10 minutes 37 seconds 957 msec
