
                                 *****************
                                 * O   R   C   A *
                                 *****************

           --- An Ab Initio, DFT and Semiempirical electronic structure package ---

                  #######################################################
                  #                        -***-                        #
                  #          Department of theory and spectroscopy      #
                  #               Directorship: Frank Neese             #
                  #        Max Planck Institute fuer Kohlenforschung    #
                  #                Kaiser Wilhelm Platz 1               #
                  #                 D-45470 Muelheim/Ruhr               #
                  #                      Germany                        #
                  #                                                     #
                  #                  All rights reserved                #
                  #                        -***-                        #
                  #######################################################


                         Program Version 4.2.0 -  RELEASE  -


 With contributions from (in alphabetic order):
   Daniel Aravena         : Magnetic Suceptibility
   Michael Atanasov       : Ab Initio Ligand Field Theory (pilot matlab implementation)
   Alexander A. Auer      : GIAO ZORA, VPT2
   Ute Becker             : Parallelization
   Giovanni Bistoni       : ED, misc. LED, open-shell LED, HFLED
   Martin Brehm           : Molecular dynamics
   Dmytro Bykov           : SCF Hessian
   Vijay G. Chilkuri      : MRCI spin determinant printing, contributions to CSF-ICE
   Dipayan Datta          : RHF DLPNO-CCSD density
   Achintya Kumar Dutta   : EOM-CC, STEOM-CC
   Dmitry Ganyushin       : Spin-Orbit,Spin-Spin,Magnetic field MRCI
   Miquel Garcia          : C-PCM Hessian, Gaussian charge scheme
   Yang Guo               : DLPNO-NEVPT2, CIM, IAO-localization
   Andreas Hansen         : Spin unrestricted coupled pair/coupled cluster methods
   Benjamin Helmich-Paris : CASSCF linear response (MC-RPA)
   Lee Huntington         : MR-EOM, pCC
   Robert Izsak           : Overlap fitted RIJCOSX, COSX-SCS-MP3, EOM
   Christian Kollmar      : KDIIS, OOCD, Brueckner-CCSD(T), CCSD density
   Simone Kossmann        : Meta GGA functionals, TD-DFT gradient, OOMP2, MP2 Hessian
   Martin Krupicka        : AUTO-CI
   Lucas Lang             : DCDCAS
   Dagmar Lenk            : GEPOL surface, SMD
   Dimitrios Liakos       : Extrapolation schemes; Compound Job, initial MDCI parallelization
   Dimitrios Manganas     : Further ROCIS development; embedding schemes
   Dimitrios Pantazis     : SARC Basis sets
   Taras Petrenko         : DFT Hessian,TD-DFT gradient, ASA, ECA, R-Raman, ABS, FL, XAS/XES, NRVS
   Peter Pinski           : DLPNO-MP2, DLPNO-MP2 Gradient
   Christoph Reimann      : Effective Core Potentials
   Marius Retegan         : Local ZFS, SOC
   Christoph Riplinger    : Optimizer, TS searches, QM/MM, DLPNO-CCSD(T), (RO)-DLPNO pert. Triples
   Tobias Risthaus        : Range-separated hybrids, TD-DFT gradient, RPA, STAB
   Michael Roemelt        : Original ROCIS implementation
   Masaaki Saitow         : Open-shell DLPNO-CCSD energy and density
   Barbara Sandhoefer     : DKH picture change effects
   Avijit Sen             : IP-ROCIS
   Kantharuban Sivalingam : CASSCF convergence, NEVPT2, FIC-MRCI
   Bernardo de Souza      : ESD, SOC TD-DFT
   Georgi Stoychev        : AutoAux, RI-MP2 NMR
   Willem Van den Heuvel  : Paramagnetic NMR
   Boris Wezisla          : Elementary symmetry handling
   Frank Wennmohs         : Technical directorship


 We gratefully acknowledge several colleagues who have allowed us to
 interface, adapt or use parts of their codes:
   Stefan Grimme, W. Hujo, H. Kruse,             : VdW corrections, initial TS optimization,
                  C. Bannwarth                     DFT functionals, gCP, sTDA/sTD-DF
   Ed Valeev, F. Pavosevic, A. Kumar             : LibInt (2-el integral package), F12 methods
   Garnet Chan, S. Sharma, J. Yang, R. Olivares  : DMRG
   Ulf Ekstrom                                   : XCFun DFT Library
   Mihaly Kallay                                 : mrcc  (arbitrary order and MRCC methods)
   Andreas Klamt, Michael Diedenhofen            : otool_cosmo (COSMO solvation model)
   Jiri Pittner, Ondrej Demel                    : Mk-CCSD
   Frank Weinhold                                : gennbo (NPA and NBO analysis)
   Christopher J. Cramer and Donald G. Truhlar   : smd solvation model
   Lars Goerigk                                  : TD-DFT with DH, B97 family of functionals
   V. Asgeirsson, H. Jonsson                     : NEB implementation
   FAccTs GmbH                                   : IRC, NEB, NEB-TS, Multilevel, MM, QM/MM, CI optimization
   S Lehtola, MJT Oliveira, MAL Marques          : LibXC Library


 Your calculation uses the libint2 library for the computation of 2-el integrals
 For citations please refer to: http://libint.valeyev.net

 Your ORCA version has been built with support for libXC version: 4.2.3
 For citations please refer to: https://tddft.org/programs/libxc/

 This ORCA versions uses:
   CBLAS   interface :  Fast vector & matrix operations
   LAPACKE interface :  Fast linear algebra routines
   SCALAPACK package :  Parallel linear algebra routines


XCFun DFT library Copyright 2009-2010 Ulf Ekstrom and contributors.
See http://admol.org/xcfun for more information. This is free soft-
ware; see the source code for copying conditions. There is ABSOLUTELY
NO WARRANTY; not even for MERCHANTABILITY or FITNESS FOR A PARTICULAR
PURPOSE. For details see the documentation. Scientific users of this 
library should cite U. Ekstrom, L. Visscher, R. Bast, A. J. Thorvald-
sen and K. Ruud; J.Chem.Theor.Comp. 2010, DOI: 10.1021/ct100117s
XCFun Version 0.99 
----- Orbital basis set information -----
Your calculation utilizes the basis: def2-SVP
   F. Weigend and R. Ahlrichs, Phys. Chem. Chem. Phys. 7, 3297 (2005).

----- AuxJ basis set information -----
Your calculation utilizes the auxiliary basis: def2/J
   F. Weigend, Phys. Chem. Chem. Phys. 8, 1057 (2006).

================================================================================
                                        WARNINGS
                       Please study these warnings very carefully!
================================================================================

INFO   : Checking CIS options ...

WARNING: CIS/ROCIS methods need fully converged wavefunctions
  ===> : Setting SCFConvForced true
         You can overwrite this default with %scf ConvForced false 


INFO   : the flag for use of LIBINT has been found!

================================================================================
                                       INPUT FILE
================================================================================
NAME = xtbopt.inp
|  1> # ORCA input file
|  2> # SCF done       -142.187894198887          0.000662603129
|  3> ! CAM-B3LYP def2-SVP def2/J RIJCOSX Grid4 TightSCF
|  4> %maxcore 5000
|  5> %tddft
|  6>     Mode sTDDFT
|  7>     Ethresh 5.0
|  8>     maxcore 5000
|  9> end
| 10> 
| 11> %pal
| 12>   nprocs 6
| 13>   end
| 14> * xyz 0 1
| 15>    C        2.01864        -4.58359        -0.65701
| 16>    C        2.04734        -3.66658         0.36147
| 17>    C        1.11909        -3.81056         1.48826
| 18>    O        0.24755        -4.63900         1.54388
| 19>    O        1.31804        -2.92511         2.48843
| 20>    C        3.02770        -2.63708         0.12866
| 21>    C        3.68333        -2.83353        -1.05618
| 22>    S        3.14139        -4.24061        -1.88319
| 23>    N        3.20099        -1.60474         1.02390
| 24>    C        4.07780        -0.57844         1.01484
| 25>    S        5.35300        -0.43180        -0.15075
| 26>    C        5.96121         0.96851         0.68073
| 27>    N        7.08313         1.59519         0.14671
| 28>    O        7.51914         2.57711         0.72373
| 29>    O        7.55098         1.10804        -0.87274
| 30>    C        5.22450         1.28992         1.78756
| 31>    C        4.12399         0.43571         1.99278
| 32>    C        3.22650         0.64372         3.09283
| 33>    C        1.94390         0.22383         3.23608
| 34>    C        1.18349         0.48740         4.39581
| 35>    C       -0.09587         0.05060         4.60271
| 36>    C       -0.89905         0.26821         5.75162
| 37>    C       -2.12600        -0.31564         5.70205
| 38>    C       -2.37796        -1.03414         4.50998
| 39>    S       -0.99327        -0.92611         3.43944
| 40>    C       -3.50645        -1.74698         4.16965
| 41>    C       -4.67646        -1.92661         4.94661
| 42>    C       -5.62497        -2.69926         4.35703
| 43>    C       -5.26377        -3.17738         3.06668
| 44>    S       -3.65705        -2.59490         2.64142
| 45>    C       -5.96935        -3.96375         2.20576
| 46>    N       -7.19286        -4.48750         2.51000
| 47>    C       -8.03306        -5.17362         1.69323
| 48>    S       -9.15465        -6.28025         2.43489
| 49>    C       -9.73558        -6.72764         0.86032
| 50>    N      -10.77267        -7.65936         0.80889
| 51>    O      -11.19995        -7.98236        -0.28474
| 52>    O      -11.17550        -8.08421         1.88256
| 53>    C       -9.10395        -6.06651        -0.15767
| 54>    C       -8.13112        -5.15217         0.29384
| 55>    C       -7.42861        -4.23129        -0.55828
| 56>    C       -7.33678        -4.34180        -1.89774
| 57>    C       -6.66867        -3.39410        -2.72409
| 58>    C       -6.56789        -3.40175        -4.10938
| 59>    C       -7.16778        -4.41963        -4.97395
| 60>    O       -7.80623        -5.37963        -4.61024
| 61>    O       -6.93617        -4.18240        -6.27675
| 62>    C       -5.82185        -2.30415        -4.61082
| 63>    C       -5.36649        -1.48695        -3.63280
| 64>    S       -5.83108        -2.02059        -2.06430
| 65>    H        1.37548        -5.43908        -0.71320
| 66>    H        0.63610        -3.04234         3.17062
| 67>    H        4.44655        -2.24144        -1.51434
| 68>    H        2.62632        -1.68441         1.85849
| 69>    H        5.46255         2.13047         2.41410
| 70>    H        3.63994         1.25729         3.88359
| 71>    H        1.42831        -0.30237         2.44485
| 72>    H        1.64544         1.06012         5.18893
| 73>    H       -0.53562         0.85048         6.57976
| 74>    H       -2.85654        -0.25206         6.48822
| 75>    H       -4.78279        -1.47992         5.91867
| 76>    H       -6.57393        -2.92562         4.81132
| 77>    H       -5.55483        -4.22670         1.24641
| 78>    H       -7.46236        -4.45422         3.48544
| 79>    H       -9.36688        -6.21791        -1.18856
| 80>    H       -6.98275        -3.36964        -0.07837
| 81>    H       -7.76492        -5.18133        -2.42482
| 82>    H       -7.35245        -4.87731        -6.80974
| 83>    H       -5.64463        -2.15073        -5.65910
| 84>    H       -4.78134        -0.59417        -3.72795
| 85> *
| 86> 
| 87>                          ****END OF INPUT****
================================================================================

                       ****************************
                       * Single Point Calculation *
                       ****************************

---------------------------------
CARTESIAN COORDINATES (ANGSTROEM)
---------------------------------
  C      2.018640   -4.583590   -0.657010
  C      2.047340   -3.666580    0.361470
  C      1.119090   -3.810560    1.488260
  O      0.247550   -4.639000    1.543880
  O      1.318040   -2.925110    2.488430
  C      3.027700   -2.637080    0.128660
  C      3.683330   -2.833530   -1.056180
  S      3.141390   -4.240610   -1.883190
  N      3.200990   -1.604740    1.023900
  C      4.077800   -0.578440    1.014840
  S      5.353000   -0.431800   -0.150750
  C      5.961210    0.968510    0.680730
  N      7.083130    1.595190    0.146710
  O      7.519140    2.577110    0.723730
  O      7.550980    1.108040   -0.872740
  C      5.224500    1.289920    1.787560
  C      4.123990    0.435710    1.992780
  C      3.226500    0.643720    3.092830
  C      1.943900    0.223830    3.236080
  C      1.183490    0.487400    4.395810
  C     -0.095870    0.050600    4.602710
  C     -0.899050    0.268210    5.751620
  C     -2.126000   -0.315640    5.702050
  C     -2.377960   -1.034140    4.509980
  S     -0.993270   -0.926110    3.439440
  C     -3.506450   -1.746980    4.169650
  C     -4.676460   -1.926610    4.946610
  C     -5.624970   -2.699260    4.357030
  C     -5.263770   -3.177380    3.066680
  S     -3.657050   -2.594900    2.641420
  C     -5.969350   -3.963750    2.205760
  N     -7.192860   -4.487500    2.510000
  C     -8.033060   -5.173620    1.693230
  S     -9.154650   -6.280250    2.434890
  C     -9.735580   -6.727640    0.860320
  N    -10.772670   -7.659360    0.808890
  O    -11.199950   -7.982360   -0.284740
  O    -11.175500   -8.084210    1.882560
  C     -9.103950   -6.066510   -0.157670
  C     -8.131120   -5.152170    0.293840
  C     -7.428610   -4.231290   -0.558280
  C     -7.336780   -4.341800   -1.897740
  C     -6.668670   -3.394100   -2.724090
  C     -6.567890   -3.401750   -4.109380
  C     -7.167780   -4.419630   -4.973950
  O     -7.806230   -5.379630   -4.610240
  O     -6.936170   -4.182400   -6.276750
  C     -5.821850   -2.304150   -4.610820
  C     -5.366490   -1.486950   -3.632800
  S     -5.831080   -2.020590   -2.064300
  H      1.375480   -5.439080   -0.713200
  H      0.636100   -3.042340    3.170620
  H      4.446550   -2.241440   -1.514340
  H      2.626320   -1.684410    1.858490
  H      5.462550    2.130470    2.414100
  H      3.639940    1.257290    3.883590
  H      1.428310   -0.302370    2.444850
  H      1.645440    1.060120    5.188930
  H     -0.535620    0.850480    6.579760
  H     -2.856540   -0.252060    6.488220
  H     -4.782790   -1.479920    5.918670
  H     -6.573930   -2.925620    4.811320
  H     -5.554830   -4.226700    1.246410
  H     -7.462360   -4.454220    3.485440
  H     -9.366880   -6.217910   -1.188560
  H     -6.982750   -3.369640   -0.078370
  H     -7.764920   -5.181330   -2.424820
  H     -7.352450   -4.877310   -6.809740
  H     -5.644630   -2.150730   -5.659100
  H     -4.781340   -0.594170   -3.727950

----------------------------
CARTESIAN COORDINATES (A.U.)
----------------------------
  NO LB      ZA    FRAG     MASS         X           Y           Z
   0 C     6.0000    0    12.011    3.814677   -8.661730   -1.241569
   1 C     6.0000    0    12.011    3.868912   -6.928832    0.683079
   2 C     6.0000    0    12.011    2.114774   -7.200915    2.812404
   3 O     8.0000    0    15.999    0.467802   -8.766440    2.917510
   4 O     8.0000    0    15.999    2.490735   -5.527657    4.702451
   5 C     6.0000    0    12.011    5.721524   -4.983359    0.243132
   6 C     6.0000    0    12.011    6.960485   -5.354596   -1.995891
   7 S    16.0000    0    32.060    5.936367   -8.013592   -3.558713
   8 N     7.0000    0    14.007    6.048994   -3.032519    1.934891
   9 C     6.0000    0    12.011    7.705925   -1.093093    1.917770
  10 S    16.0000    0    32.060   10.115704   -0.815984   -0.284876
  11 C     6.0000    0    12.011   11.265054    1.830219    1.286393
  12 N     7.0000    0    14.007   13.385176    3.014472    0.277242
  13 O     8.0000    0    15.999   14.209115    4.870032    1.367651
  14 O     8.0000    0    15.999   14.269284    2.093892   -1.649240
  15 C     6.0000    0    12.011    9.872874    2.437596    3.377999
  16 C     6.0000    0    12.011    7.793212    0.823373    3.765808
  17 C     6.0000    0    12.011    6.097201    1.216455    5.844602
  18 C     6.0000    0    12.011    3.673439    0.422977    6.115305
  19 C     6.0000    0    12.011    2.236472    0.921053    8.306877
  20 C     6.0000    0    12.011   -0.181168    0.095620    8.697861
  21 C     6.0000    0    12.011   -1.698958    0.506843   10.868987
  22 C     6.0000    0    12.011   -4.017558   -0.596473   10.775313
  23 C     6.0000    0    12.011   -4.493693   -1.954241    8.522627
  24 S    16.0000    0    32.060   -1.877008   -1.750094    6.499600
  25 C     6.0000    0    12.011   -6.626230   -3.301314    7.879497
  26 C     6.0000    0    12.011   -8.837229   -3.640765    9.347738
  27 C     6.0000    0    12.011  -10.629653   -5.100862    8.233593
  28 C     6.0000    0    12.011   -9.947084   -6.004378    5.795185
  29 S    16.0000    0    32.060   -6.910823   -4.903650    4.991560
  30 C     6.0000    0    12.011  -11.280437   -7.490402    4.168282
  31 N     7.0000    0    14.007  -13.592536   -8.480146    4.743213
  32 C     6.0000    0    12.011  -15.180283   -9.776725    3.199741
  33 S    16.0000    0    32.060  -17.299781  -11.867953    4.601275
  34 C     6.0000    0    12.011  -18.397580  -12.713397    1.625769
  35 N     7.0000    0    14.007  -20.357396  -14.474093    1.528581
  36 O     8.0000    0    15.999  -21.164838  -15.084474   -0.538081
  37 O     8.0000    0    15.999  -21.118634  -15.276943    3.557523
  38 C     6.0000    0    12.011  -17.203972  -11.464042   -0.297953
  39 C     6.0000    0    12.011  -15.365590   -9.736190    0.555277
  40 C     6.0000    0    12.011  -14.038038   -7.995979   -1.054996
  41 C     6.0000    0    12.011  -13.864505   -8.204813   -3.586209
  42 C     6.0000    0    12.011  -12.601960   -6.413919   -5.147784
  43 C     6.0000    0    12.011  -12.411513   -6.428376   -7.765603
  44 C     6.0000    0    12.011  -13.545141   -8.351890   -9.399403
  45 O     8.0000    0    15.999  -14.751637  -10.166027   -8.712091
  46 O     8.0000    0    15.999  -13.107462   -7.903591  -11.861339
  47 C     6.0000    0    12.011  -11.001702   -4.354212   -8.713187
  48 C     6.0000    0    12.011  -10.141196   -2.809928   -6.864997
  49 S    16.0000    0    32.060  -11.019144   -3.818362   -3.900962
  50 H     1.0000    0     1.008    2.599281  -10.278372   -1.347753
  51 H     1.0000    0     1.008    1.202055   -5.749189    5.991603
  52 H     1.0000    0     1.008    8.402762   -4.235708   -2.861688
  53 H     1.0000    0     1.008    4.963026   -3.183074    3.512037
  54 H     1.0000    0     1.008   10.322723    4.026005    4.561988
  55 H     1.0000    0     1.008    6.878490    2.375934    7.338922
  56 H     1.0000    0     1.008    2.699115   -0.571396    4.620097
  57 H     1.0000    0     1.008    3.109431    2.003336    9.805657
  58 H     1.0000    0     1.008   -1.012175    1.607174   12.433944
  59 H     1.0000    0     1.008   -5.398078   -0.476324   12.260959
  60 H     1.0000    0     1.008   -9.038163   -2.796644   11.184665
  61 H     1.0000    0     1.008  -12.422927   -5.528621    9.092077
  62 H     1.0000    0     1.008  -10.497107   -7.987305    2.355374
  63 H     1.0000    0     1.008  -14.101817   -8.417256    6.586527
  64 H     1.0000    0     1.008  -17.700838  -11.750147   -2.246053
  65 H     1.0000    0     1.008  -13.195485   -6.367697   -0.148098
  66 H     1.0000    0     1.008  -14.673572   -9.791295   -4.582246
  67 H     1.0000    0     1.008  -13.894117   -9.216780  -12.868544
  68 H     1.0000    0     1.008  -10.666805   -4.064291  -10.694149
  69 H     1.0000    0     1.008   -9.035423   -1.122819   -7.044805

--------------------------------
INTERNAL COORDINATES (ANGSTROEM)
--------------------------------
 C      0   0   0     0.000000000000     0.00000000     0.00000000
 C      1   0   0     1.370778078501     0.00000000     0.00000000
 C      2   1   0     1.466981256526   119.45823132     0.00000000
 O      3   2   1     1.203739336235   124.13708259   354.36711370
 O      3   2   1     1.350534277203   114.28487774   174.24253220
 C      2   1   3     1.440547283396   111.85490580   181.15163455
 C      6   2   1     1.368316164123   111.31052949     0.12961413
 S      1   2   3     1.697563028373   112.80958699   178.96965278
 N      6   2   1     1.377392448542   121.07824773   178.92397315
 C      9   6   2     1.349877605452   130.32984883   177.73395154
 S     10   9   6     1.733850736857   123.12983668   353.85038105
 C     11  10   9     1.738432193271    90.22365879   184.93476627
 N     12  11  10     1.391621237694   117.46801663   180.71927315
 O     13  12  11     1.219517809177   117.98601872   180.12175311
 O     13  12  11     1.222896989734   116.67567606     0.16422236
 C     12  11  10     1.367888394972   112.82094920     0.25331175
 C     16  12  11     1.408159164512   113.34687762   358.75731076
 C     17  16  12     1.434875068673   120.83848493   181.27015789
 C     18  17  16     1.357162825382   128.84300913   158.01997845
 C     19  18  17     1.411618286188   122.54988595   178.90253712
 C     20  19  18     1.367612466893   124.65085345   182.10874162
 C     21  20  19     1.418607208709   127.09729782   179.05234698
 C     22  21  20     1.359685371658   114.55138009   181.76633086
 C     23  22  21     1.414481168662   114.17861664   359.94596073
 S     24  23  22     1.753594242862   110.03188320   359.43491058
 C     24  23  22     1.377481417152   128.09854575   178.83947509
 C     26  24  23     1.415929792963   127.37534271   359.71617912
 C     27  26  24     1.358036751712   114.27327817   180.88343743
 C     28  27  26     1.422697190867   114.05637947   359.76396783
 S     26  24  23     1.754176621467   122.39274438   180.30678011
 C     29  28  27     1.362866156194   129.44987448   180.16498121
 N     31  29  28     1.365229929426   122.99448540   356.96054601
 C     32  31  29     1.357869628241   127.90351852   173.34176922
 S     33  32  31     1.741451590082   117.60917877   154.51931378
 C     34  33  32     1.736924915447    89.59965145   181.89348568
 N     35  34  33     1.395099591929   117.00522448   181.47969987
 O     36  35  34     1.217753577412   118.10468581   179.63686970
 O     36  35  34     1.222921420329   116.39259670   359.60282781
 C     35  34  33     1.368339495118   113.30227256     0.00000000
 C     33  32  31     1.402985473268   129.45628600   335.84960816
 C     40  33  32     1.437932115540   124.52227273   351.76929899
 C     41  40  33     1.347144498783   124.74941098   168.21776640
 C     42  41  40     1.423854130380   123.67189948   178.03622023
 C     43  42  41     1.388972107351   127.53188579   182.58943734
 C     44  43  42     1.464045419856   124.26827074     0.63527461
 O     45  44  43     1.208926534823   126.21544815   359.14787860
 O     45  44  43     1.344324776607   112.27237670   179.11244120
 C     44  43  42     1.418711921145   112.73093596   180.25802898
 C     48  44  43     1.353400048027   112.87104900     0.11683612
 S     49  48  44     1.720699790114   112.37188035   359.88659005
 H      1   2   3     1.071762679794   125.83800083   358.87097786
 H      5   3   2     0.971683195594   109.72158800   176.44918386
 H      7   6   2     1.069105196929   129.31841458   178.90652515
 H      9   6   2     1.016431692688   113.81581785     3.66975906
 H     16  12  11     1.075055569075   122.41372012   180.18906323
 H     18  17  16     1.082913734376   113.77577171   340.86342096
 H     19  18  17     1.081094075925   121.60436452   356.38702798
 H     20  19  18     1.081871219369   118.10685662     0.95829554
 H     22  21  20     1.075609398155   121.01694005     1.57718984
 H     23  22  21     1.075078777067   124.13407782   179.84395898
 H     27  26  24     1.075052867816   121.67997690     0.85794112
 H     28  27  26     1.076170681305   123.52399466   180.50773329
 H     31  29  28     1.077646489068   120.26516678   178.97309046
 H     32  31  29     1.012531975791   116.14285614   345.72180275
 H     39  35  34     1.074610783959   122.18653773   181.40649409
 H     41  40  33     1.082379540734   116.63580157   345.47873100
 H     42  41  40     1.079781369954   121.47345376   357.24787159
 H     47  45  44     0.969673804225   109.40561310   180.17060330
 H     48  44  43     1.074167390680   122.83260946   180.09085542
 H     49  48  44     1.071685669121   128.50342179   179.91473532

---------------------------
INTERNAL COORDINATES (A.U.)
---------------------------
 C      0   0   0     0.000000000000     0.00000000     0.00000000
 C      1   0   0     2.590395158750     0.00000000     0.00000000
 C      2   1   0     2.772192818431   119.45823132     0.00000000
 O      3   2   1     2.274737682113   124.13708259   354.36711370
 O      3   2   1     2.552139918387   114.28487774   174.24253220
 C      2   1   3     2.722239848583   111.85490580   181.15163455
 C      6   2   1     2.585742814810   111.31052949     0.12961413
 S      1   2   3     3.207929218696   112.80958699   178.96965278
 N      6   2   1     2.602894506675   121.07824773   178.92397315
 C      9   6   2     2.550898988617   130.32984883   177.73395154
 S     10   9   6     3.276503049758   123.12983668   353.85038105
 C     11  10   9     3.285160747674    90.22365879   184.93476627
 N     12  11  10     2.629783021390   117.46801663   180.71927315
 O     13  12  11     2.304554674784   117.98601872   180.12175311
 O     13  12  11     2.310940400594   116.67567606     0.16422236
 C     12  11  10     2.584934448267   112.82094920     0.25331175
 C     16  12  11     2.661035173900   113.34687762   358.75731076
 C     17  16  12     2.711520916184   120.83848493   181.27015789
 C     18  17  16     2.564666059112   128.84300913   158.01997845
 C     19  18  17     2.667571966530   122.54988595   178.90253712
 C     20  19  18     2.584413019763   124.65085345   182.10874162
 C     21  20  19     2.680779116066   127.09729782   179.05234698
 C     22  21  20     2.569432980732   114.55138009   181.76633086
 C     23  22  21     2.672982030360   114.17861664   359.94596073
 S     24  23  22     3.313812869031   110.03188320   359.43491058
 C     24  23  22     2.603062632984   128.09854575   178.83947509
 C     26  24  23     2.675719533560   127.37534271   359.71617912
 C     27  26  24     2.566317540535   114.27327817   180.88343743
 C     28  27  26     2.688508062237   114.05637947   359.76396783
 S     26  24  23     3.314913405099   122.39274438   180.30678011
 C     29  28  27     2.575443792397   129.44987448   180.16498121
 N     31  29  28     2.579910676447   122.99448540   356.96054601
 C     32  31  29     2.566001722945   127.90351852   173.34176922
 S     33  32  31     3.290866580737   117.60917877   154.51931378
 C     34  33  32     3.282312405379    89.59965145   181.89348568
 N     35  34  33     2.636356158291   117.00522448   181.47969987
 O     36  35  34     2.301220759912   118.10468581   179.63686970
 O     36  35  34     2.310986567728   116.39259670   359.60282781
 C     35  34  33     2.585786904001   113.30227256     0.00000000
 C     33  32  31     2.651258314346   129.45628600   335.84960816
 C     40  33  32     2.717297897540   124.52227273   351.76929899
 C     41  40  33     2.545734165518   124.74941098   168.21776640
 C     42  41  40     2.690694361071   123.67189948   178.03622023
 C     43  42  41     2.624776890549   127.53188579   182.58943734
 C     44  43  42     2.766644891149   124.26827074     0.63527461
 O     45  44  43     2.284540066847   126.21544815   359.14787860
 O     45  44  43     2.540405662832   112.27237670   179.11244120
 C     44  43  42     2.680976993894   112.73093596   180.25802898
 C     48  44  43     2.557555440407   112.87104900     0.11683612
 S     49  48  44     3.251651362012   112.37188035   359.88659005
 H      1   2   3     2.025337945369   125.83800083   358.87097786
 H      5   3   2     1.836215128606   109.72158800   176.44918386
 H      7   6   2     2.020316030547   129.31841458   178.90652515
 H      9   6   2     1.920777533018   113.81581785     3.66975906
 H     16  12  11     2.031560604299   122.41372012   180.18906323
 H     18  17  16     2.046410384632   113.77577171   340.86342096
 H     19  18  17     2.042971728503   121.60436452   356.38702798
 H     20  19  18     2.044440316780   118.10685662     0.95829554
 H     22  21  20     2.032607189585   121.01694005     1.57718984
 H     23  22  21     2.031604461048   124.13407782   179.84395898
 H     27  26  24     2.031555499659   121.67997690     0.85794112
 H     28  27  26     2.033667861021   123.52399466   180.50773329
 H     31  29  28     2.036456733520   120.26516678   178.97309046
 H     32  31  29     1.913408136084   116.14285614   345.72180275
 H     39  35  34     2.030720082240   122.18653773   181.40649409
 H     41  40  33     2.045400904947   116.63580157   345.47873100
 H     42  41  40     2.040491073724   121.47345376   357.24787159
 H     47  45  44     1.832417929223   109.40561310   180.17060330
 H     48  44  43     2.029882190374   122.83260946   180.09085542
 H     49  48  44     2.025192416287   128.50342179   179.91473532

---------------------
BASIS SET INFORMATION
---------------------
There are 5 groups of distinct atoms

 Group   1 Type C   : 7s4p1d contracted to 3s2p1d pattern {511/31/1}
 Group   2 Type O   : 7s4p1d contracted to 3s2p1d pattern {511/31/1}
 Group   3 Type S   : 10s7p1d contracted to 4s3p1d pattern {5311/511/1}
 Group   4 Type N   : 7s4p1d contracted to 3s2p1d pattern {511/31/1}
 Group   5 Type H   : 4s1p contracted to 2s1p pattern {31/1}

Atom   0C    basis set group =>   1
Atom   1C    basis set group =>   1
Atom   2C    basis set group =>   1
Atom   3O    basis set group =>   2
Atom   4O    basis set group =>   2
Atom   5C    basis set group =>   1
Atom   6C    basis set group =>   1
Atom   7S    basis set group =>   3
Atom   8N    basis set group =>   4
Atom   9C    basis set group =>   1
Atom  10S    basis set group =>   3
Atom  11C    basis set group =>   1
Atom  12N    basis set group =>   4
Atom  13O    basis set group =>   2
Atom  14O    basis set group =>   2
Atom  15C    basis set group =>   1
Atom  16C    basis set group =>   1
Atom  17C    basis set group =>   1
Atom  18C    basis set group =>   1
Atom  19C    basis set group =>   1
Atom  20C    basis set group =>   1
Atom  21C    basis set group =>   1
Atom  22C    basis set group =>   1
Atom  23C    basis set group =>   1
Atom  24S    basis set group =>   3
Atom  25C    basis set group =>   1
Atom  26C    basis set group =>   1
Atom  27C    basis set group =>   1
Atom  28C    basis set group =>   1
Atom  29S    basis set group =>   3
Atom  30C    basis set group =>   1
Atom  31N    basis set group =>   4
Atom  32C    basis set group =>   1
Atom  33S    basis set group =>   3
Atom  34C    basis set group =>   1
Atom  35N    basis set group =>   4
Atom  36O    basis set group =>   2
Atom  37O    basis set group =>   2
Atom  38C    basis set group =>   1
Atom  39C    basis set group =>   1
Atom  40C    basis set group =>   1
Atom  41C    basis set group =>   1
Atom  42C    basis set group =>   1
Atom  43C    basis set group =>   1
Atom  44C    basis set group =>   1
Atom  45O    basis set group =>   2
Atom  46O    basis set group =>   2
Atom  47C    basis set group =>   1
Atom  48C    basis set group =>   1
Atom  49S    basis set group =>   3
Atom  50H    basis set group =>   5
Atom  51H    basis set group =>   5
Atom  52H    basis set group =>   5
Atom  53H    basis set group =>   5
Atom  54H    basis set group =>   5
Atom  55H    basis set group =>   5
Atom  56H    basis set group =>   5
Atom  57H    basis set group =>   5
Atom  58H    basis set group =>   5
Atom  59H    basis set group =>   5
Atom  60H    basis set group =>   5
Atom  61H    basis set group =>   5
Atom  62H    basis set group =>   5
Atom  63H    basis set group =>   5
Atom  64H    basis set group =>   5
Atom  65H    basis set group =>   5
Atom  66H    basis set group =>   5
Atom  67H    basis set group =>   5
Atom  68H    basis set group =>   5
Atom  69H    basis set group =>   5
---------------------------------
AUXILIARY/J BASIS SET INFORMATION
---------------------------------
There are 5 groups of distinct atoms

 Group   1 Type C   : 12s5p4d2f1g contracted to 6s4p3d1f1g pattern {711111/2111/211/2/1}
 Group   2 Type O   : 12s5p4d2f1g contracted to 6s4p3d1f1g pattern {711111/2111/211/2/1}
 Group   3 Type S   : 14s5p5d2f1g contracted to 8s4p3d1f1g pattern {71111111/2111/311/2/1}
 Group   4 Type N   : 12s5p4d2f1g contracted to 6s4p3d1f1g pattern {711111/2111/211/2/1}
 Group   5 Type H   : 5s2p1d contracted to 3s1p1d pattern {311/2/1}

Atom   0C    basis set group =>   1
Atom   1C    basis set group =>   1
Atom   2C    basis set group =>   1
Atom   3O    basis set group =>   2
Atom   4O    basis set group =>   2
Atom   5C    basis set group =>   1
Atom   6C    basis set group =>   1
Atom   7S    basis set group =>   3
Atom   8N    basis set group =>   4
Atom   9C    basis set group =>   1
Atom  10S    basis set group =>   3
Atom  11C    basis set group =>   1
Atom  12N    basis set group =>   4
Atom  13O    basis set group =>   2
Atom  14O    basis set group =>   2
Atom  15C    basis set group =>   1
Atom  16C    basis set group =>   1
Atom  17C    basis set group =>   1
Atom  18C    basis set group =>   1
Atom  19C    basis set group =>   1
Atom  20C    basis set group =>   1
Atom  21C    basis set group =>   1
Atom  22C    basis set group =>   1
Atom  23C    basis set group =>   1
Atom  24S    basis set group =>   3
Atom  25C    basis set group =>   1
Atom  26C    basis set group =>   1
Atom  27C    basis set group =>   1
Atom  28C    basis set group =>   1
Atom  29S    basis set group =>   3
Atom  30C    basis set group =>   1
Atom  31N    basis set group =>   4
Atom  32C    basis set group =>   1
Atom  33S    basis set group =>   3
Atom  34C    basis set group =>   1
Atom  35N    basis set group =>   4
Atom  36O    basis set group =>   2
Atom  37O    basis set group =>   2
Atom  38C    basis set group =>   1
Atom  39C    basis set group =>   1
Atom  40C    basis set group =>   1
Atom  41C    basis set group =>   1
Atom  42C    basis set group =>   1
Atom  43C    basis set group =>   1
Atom  44C    basis set group =>   1
Atom  45O    basis set group =>   2
Atom  46O    basis set group =>   2
Atom  47C    basis set group =>   1
Atom  48C    basis set group =>   1
Atom  49S    basis set group =>   3
Atom  50H    basis set group =>   5
Atom  51H    basis set group =>   5
Atom  52H    basis set group =>   5
Atom  53H    basis set group =>   5
Atom  54H    basis set group =>   5
Atom  55H    basis set group =>   5
Atom  56H    basis set group =>   5
Atom  57H    basis set group =>   5
Atom  58H    basis set group =>   5
Atom  59H    basis set group =>   5
Atom  60H    basis set group =>   5
Atom  61H    basis set group =>   5
Atom  62H    basis set group =>   5
Atom  63H    basis set group =>   5
Atom  64H    basis set group =>   5
Atom  65H    basis set group =>   5
Atom  66H    basis set group =>   5
Atom  67H    basis set group =>   5
Atom  68H    basis set group =>   5
Atom  69H    basis set group =>   5


           ************************************************************
           *        Program running with 6 parallel MPI-processes     *
           *              working on a common directory               *
           ************************************************************
------------------------------------------------------------------------------
                           ORCA GTO INTEGRAL CALCULATION
                           -- RI-GTO INTEGRALS CHOSEN --
------------------------------------------------------------------------------

                         BASIS SET STATISTICS AND STARTUP INFO

Gaussian basis set:
 # of primitive gaussian shells          ...  736
 # of primitive gaussian functions       ... 1412
 # of contracted shells                  ...  372
 # of contracted basis functions         ...  824
 Highest angular momentum                ...    2
 Maximum contraction depth               ...    5
Auxiliary gaussian basis set:
 # of primitive gaussian shells          ... 1378
 # of primitive gaussian functions       ... 3862
 # of contracted shells                  ...  862
 # of contracted aux-basis functions     ... 2682
 Highest angular momentum                ...    4
 Maximum contraction depth               ...    7
Ratio of auxiliary to basis functions    ...  3.25
Integral package used                  ... LIBINT
 One Electron integrals                  ... done
 Ordering auxiliary basis shells         ... done
 Integral threshhold             Thresh  ...  2.500e-11
 Primitive cut-off               TCut    ...  2.500e-12
 Pre-screening matrix                    ... done
 Shell pair data                         ... 
 Ordering of the shell pairs             ... done (   0.005 sec) 26588 of 69378 pairs
 Determination of significant pairs      ... done (   0.000 sec)
 Creation of shell pair data             ... done (   0.003 sec)
 Storage of shell pair data              ... done (   0.006 sec)
 Shell pair data done in (   0.014 sec)
 Computing two index integrals           ... done
 Cholesky decomposition of the V-matrix  ... done


Timings:
 Total evaluation time                   ...   1.602 sec (  0.027 min)
 One electron matrix time                ...   0.280 sec (  0.005 min) = 17.5%
 Schwartz matrix evaluation time         ...   0.545 sec (  0.009 min) = 34.0%
 Two index repulsion integral time       ...   0.203 sec (  0.003 min) = 12.7%
 Cholesky decomposition of V             ...   0.543 sec (  0.009 min) = 33.9%
 Three index repulsion integral time     ...   0.000 sec (  0.000 min) =  0.0%



           ************************************************************
           *        Program running with 6 parallel MPI-processes     *
           *              working on a common directory               *
           ************************************************************
-------------------------------------------------------------------------------
                                 ORCA SCF
-------------------------------------------------------------------------------

------------
SCF SETTINGS
------------
Hamiltonian:
 Density Functional     Method          .... DFT(GTOs)
 Exchange Functional    Exchange        .... WB88
 Correlation Functional Correlation     .... LYP
 LDA part of GGA corr.  LDAOpt          .... VWN-5
 Gradients option       PostSCFGGA      .... off
 Hybrid DFT is turned on
   Fraction HF Exchange ScalHFX         ....  0.190000
   Scaling of DF-GGA-X  ScalDFX         ....  0.350000
   Scaling of DF-GGA-C  ScalDFC         ....  0.810000
   Scaling of DF-LDA-C  ScalLDAC        ....  1.000000
   Perturbative correction              ....  0.000000
   Density functional embedding theory  .... OFF
 Long-range corrected/Screened/Range-Separated Hybrid DFT is turned on
   Amount of maximum screened exact exchange              ....  0.460000
   Range separation parameter mu (erf(mu*r12)/r12)        ....  0.330000
 RI-approximation to the Coulomb term is turned on
   Number of auxiliary basis functions  .... 2682
   RIJ-COSX (HFX calculated with COS-X)).... on


General Settings:
 Integral files         IntName         .... xtbopt
 Hartree-Fock type      HFTyp           .... RHF
 Total Charge           Charge          ....    0
 Multiplicity           Mult            ....    1
 Number of Electrons    NEL             ....  400
 Basis Dimension        Dim             ....  824
 Nuclear Repulsion      ENuc            ....   7011.0019006332 Eh

Convergence Acceleration:
 DIIS                   CNVDIIS         .... on
   Start iteration      DIISMaxIt       ....    12
   Startup error        DIISStart       ....  0.200000
   # of expansion vecs  DIISMaxEq       ....     5
   Bias factor          DIISBfac        ....   1.050
   Max. coefficient     DIISMaxC        ....  10.000
 Newton-Raphson         CNVNR           .... off
 SOSCF                  CNVSOSCF        .... on
   Start iteration      SOSCFMaxIt      ....   150
   Startup grad/error   SOSCFStart      ....  0.003300
 Level Shifting         CNVShift        .... on
   Level shift para.    LevelShift      ....    0.2500
   Turn off err/grad.   ShiftErr        ....    0.0010
 Zerner damping         CNVZerner       .... off
 Static damping         CNVDamp         .... on
   Fraction old density DampFac         ....    0.7000
   Max. Damping (<1)    DampMax         ....    0.9800
   Min. Damping (>=0)   DampMin         ....    0.0000
   Turn off err/grad.   DampErr         ....    0.1000
 Fernandez-Rico         CNVRico         .... off

SCF Procedure:
 Maximum # iterations   MaxIter         ....   125
 SCF integral mode      SCFMode         .... Direct
   Integral package                     .... LIBINT
 Reset frequency        DirectResetFreq ....    20
 Integral Threshold     Thresh          ....  2.500e-11 Eh
 Primitive CutOff       TCut            ....  2.500e-12 Eh

Convergence Tolerance:
 Convergence Check Mode ConvCheckMode   .... Total+1el-Energy
 Convergence forced     ConvForced      .... 1
 Energy Change          TolE            ....  1.000e-08 Eh
 1-El. energy change                    ....  1.000e-05 Eh
 Orbital Gradient       TolG            ....  1.000e-05
 Orbital Rotation angle TolX            ....  1.000e-05
 DIIS Error             TolErr          ....  5.000e-07


Diagonalization of the overlap matrix:
Smallest eigenvalue                        ... 4.280e-04
Time for diagonalization                   ...    0.115 sec
Threshold for overlap eigenvalues          ... 1.000e-08
Number of eigenvalues below threshold      ... 0
Time for construction of square roots      ...    0.088 sec
Total time needed                          ...    0.206 sec

-------------------
DFT GRID GENERATION
-------------------

General Integration Accuracy     IntAcc      ...  4.670
Radial Grid Type                 RadialGrid  ... Gauss-Chebyshev
Angular Grid (max. acc.)         AngularGrid ... Lebedev-302
Angular grid pruning method      GridPruning ... 3 (G Style)
Weight generation scheme         WeightScheme... Becke
Basis function cutoff            BFCut       ...    1.0000e-11
Integration weight cutoff        WCut        ...    1.0000e-14
Grids for H and He will be reduced by one unit

# of grid points (after initial pruning)     ... 382284 (   0.0 sec)
# of grid points (after weights+screening)   ... 334618 (   2.1 sec)
nearest neighbour list constructed           ...    0.0 sec
Grid point re-assignment to atoms done       ...    0.1 sec
Grid point division into batches done        ...    1.3 sec
Reduced shell lists constructed in    1.9 sec

Total number of grid points                  ...   334618
Total number of batches                      ...     5263
Average number of points per batch           ...       63
Average number of grid points per atom       ...     4780
Average number of shells per batch           ...    86.90 (23.36%)
Average number of basis functions per batch  ...   182.48 (22.15%)
Average number of large shells per batch     ...    53.54 (61.61%)
Average number of large basis fcns per batch ...   114.23 (62.60%)
Maximum spatial batch extension              ...  16.16, 16.29, 19.55 au
Average spatial batch extension              ...   0.33,  0.32,  0.32 au

Time for grid setup =    4.493 sec

------------------------------
INITIAL GUESS: MODEL POTENTIAL
------------------------------
Loading Hartree-Fock densities                     ... done
Calculating cut-offs                               ... done
Setting up the integral package                    ... done
Initializing the effective Hamiltonian             ... done
Starting the Coulomb interaction                   ... done (   0.6 sec)
Reading the grid                                   ... done
Mapping shells                                     ... done
Starting the XC term evaluation                    ... done (   0.8 sec)
  promolecular density results
     # of electrons  =    399.990224445
     EX              =   -410.742245673
     EC              =    -14.155208641
     EX+EC           =   -424.897454313
Transforming the Hamiltonian                       ... done (   0.1 sec)
Diagonalizing the Hamiltonian                      ... done (   0.1 sec)
Back transforming the eigenvectors                 ... done (   0.0 sec)
Now organizing SCF variables                       ... done
                      ------------------
                      INITIAL GUESS DONE (   6.2 sec)
                      ------------------
--------------------
COSX GRID GENERATION
--------------------

General Integration Accuracy     IntAcc      ...  3.340
Radial Grid Type                 RadialGrid  ... Gauss-Chebyshev
Angular Grid (max. acc.)         AngularGrid ... Lebedev-50
Angular grid pruning method      GridPruning ... 3 (G Style)
Weight generation scheme         WeightScheme... Becke
Basis function cutoff            BFCut       ...    1.0000e-11
Integration weight cutoff        WCut        ...    1.0000e-14
Grids for H and He will be reduced by one unit

# of grid points (after initial pruning)     ...  36100 (   0.0 sec)
# of grid points (after weights+screening)   ...  32768 (   0.2 sec)
nearest neighbour list constructed           ...    0.0 sec
Grid point re-assignment to atoms done       ...    0.0 sec
Grid point division into batches done        ...    0.0 sec
Reduced shell lists constructed in    0.1 sec

Total number of grid points                  ...    32768
Total number of batches                      ...      548
Average number of points per batch           ...       59
Average number of grid points per atom       ...      468
Average number of shells per batch           ...   103.70 (27.88%)
Average number of basis functions per batch  ...   219.10 (26.59%)
Average number of large shells per batch     ...    63.73 (61.46%)
Average number of large basis fcns per batch ...   137.99 (62.98%)
Maximum spatial batch extension              ...  16.49, 20.01, 16.04 au
Average spatial batch extension              ...   0.73,  0.71,  0.67 au

Overlap Fitting                  UseSFitting ... on
Constructing numerical overlap ... done (      0.1 sec)
Inverting numerical overlap    ... done (      0.0 sec)
Obtaining analytic overlap     ... done (      0.0 sec)
Final contraction and storage  ... done (      0.0 sec)


General Integration Accuracy     IntAcc      ...  3.670
Radial Grid Type                 RadialGrid  ... Gauss-Chebyshev
Angular Grid (max. acc.)         AngularGrid ... Lebedev-50
Angular grid pruning method      GridPruning ... 3 (G Style)
Weight generation scheme         WeightScheme... Becke
Basis function cutoff            BFCut       ...    1.0000e-11
Integration weight cutoff        WCut        ...    1.0000e-14
Grids for H and He will be reduced by one unit

# of grid points (after initial pruning)     ...  45196 (   0.0 sec)
# of grid points (after weights+screening)   ...  40882 (   0.2 sec)
nearest neighbour list constructed           ...    0.0 sec
Grid point re-assignment to atoms done       ...    0.0 sec
Grid point division into batches done        ...    0.0 sec
Reduced shell lists constructed in    0.1 sec

Total number of grid points                  ...    40882
Total number of batches                      ...      675
Average number of points per batch           ...       60
Average number of grid points per atom       ...      584
Average number of shells per batch           ...   102.32 (27.50%)
Average number of basis functions per batch  ...   216.12 (26.23%)
Average number of large shells per batch     ...    62.31 (60.90%)
Average number of large basis fcns per batch ...   134.50 (62.23%)
Maximum spatial batch extension              ...  17.30, 20.69, 17.39 au
Average spatial batch extension              ...   0.67,  0.64,  0.63 au

Overlap Fitting                  UseSFitting ... on
Constructing numerical overlap ... done (      0.1 sec)
Inverting numerical overlap    ... done (      0.0 sec)
Obtaining analytic overlap     ... done (      0.0 sec)
Final contraction and storage  ... done (      0.0 sec)


General Integration Accuracy     IntAcc      ...  4.010
Radial Grid Type                 RadialGrid  ... Gauss-Chebyshev
Angular Grid (max. acc.)         AngularGrid ... Lebedev-110
Angular grid pruning method      GridPruning ... 3 (G Style)
Weight generation scheme         WeightScheme... Becke
Basis function cutoff            BFCut       ...    1.0000e-11
Integration weight cutoff        WCut        ...    1.0000e-14
Grids for H and He will be reduced by one unit

# of grid points (after initial pruning)     ...  87376 (   0.0 sec)
# of grid points (after weights+screening)   ...  78474 (   0.5 sec)
nearest neighbour list constructed           ...    0.0 sec
Grid point re-assignment to atoms done       ...    0.0 sec
Grid point division into batches done        ...    0.1 sec
Reduced shell lists constructed in    0.2 sec

Total number of grid points                  ...    78474
Total number of batches                      ...     1263
Average number of points per batch           ...       62
Average number of grid points per atom       ...     1121
Average number of shells per batch           ...    96.50 (25.94%)
Average number of basis functions per batch  ...   203.95 (24.75%)
Average number of large shells per batch     ...    60.10 (62.28%)
Average number of large basis fcns per batch ...   129.67 (63.58%)
Maximum spatial batch extension              ...  16.03, 16.33, 17.65 au
Average spatial batch extension              ...   0.56,  0.54,  0.54 au

Overlap Fitting                  UseSFitting ... on
Constructing numerical overlap ... done (      0.1 sec)
Inverting numerical overlap    ... done (      0.0 sec)
Obtaining analytic overlap     ... done (      0.0 sec)
Final contraction and storage  ... done (      0.0 sec)

Time for X-Grid setup             =    1.863 sec
--------------
SCF ITERATIONS
--------------
ITER       Energy         Delta-E        Max-DP      RMS-DP      [F,P]     Damp
               ***  Starting incremental Fock matrix formation  ***
  0  -4436.7247112720   0.000000000000 0.07666666  0.00116956  0.2450367 0.7000
  1  -4437.2788357656  -0.554124493599 0.04481077  0.00081259  0.1062271 0.7000
                               ***Turning on DIIS***
  2  -4437.5085261417  -0.229690376108 0.08231123  0.00139887  0.0444411 0.0000
  3  -4437.8518263839  -0.343300242171 0.04141331  0.00062539  0.0626980 0.0000
  4  -4437.9410829936  -0.089256609742 0.01320869  0.00021167  0.0096183 0.0000
  5  -4437.9468601114  -0.005777117784 0.00775173  0.00009252  0.0091165 0.0000
  6  -4437.9484765841  -0.001616472681 0.00274783  0.00005570  0.0017780 0.0000
                      *** Initiating the SOSCF procedure ***
                           *** Shutting down DIIS ***
                      *** Re-Reading the Fockian *** 
                      *** Removing any level shift *** 
ITER      Energy       Delta-E        Grad      Rot      Max-DP    RMS-DP
  7  -4437.94911275  -0.0006361701  0.002640  0.002640  0.001857  0.000038
               *** Restarting incremental Fock matrix formation ***
  8  -4437.94942426  -0.0003115095  0.001792  0.010710  0.002401  0.000052
  9  -4437.94967980  -0.0002555412  0.001158  0.014849  0.003668  0.000075
 10  -4437.94968789  -0.0000080807  0.002043  0.005813  0.002411  0.000031
 11  -4437.94978345  -0.0000955594  0.000220  0.001056  0.000981  0.000010
 12  -4437.94978281   0.0000006377  0.000244  0.000658  0.000358  0.000005
 13  -4437.94978714  -0.0000043328  0.000031  0.000115  0.000208  0.000002
 14  -4437.94978707   0.0000000681  0.000033  0.000097  0.000092  0.000001
 15  -4437.94978725  -0.0000001811  0.000005  0.000023  0.000038  0.000000
 16  -4437.94978730  -0.0000000463  0.000009  0.000016  0.000017  0.000000
                  ***Gradient check signals convergence***
              ***Rediagonalizing the Fockian in SOSCF/NRSCF***

               *****************************************************
               *                     SUCCESS                       *
               *           SCF CONVERGED AFTER  17 CYCLES          *
               *****************************************************

Setting up the final grid:

General Integration Accuracy     IntAcc      ...  5.010
Radial Grid Type                 RadialGrid  ... Gauss-Chebyshev
Angular Grid (max. acc.)         AngularGrid ... Lebedev-434
Angular grid pruning method      GridPruning ... 3 (G Style)
Weight generation scheme         WeightScheme... Becke
Basis function cutoff            BFCut       ...    1.0000e-11
Integration weight cutoff        WCut        ...    1.0000e-14
Grids for H and He will be reduced by one unit

# of grid points (after initial pruning)     ... 675712 (   0.0 sec)
# of grid points (after weights+screening)   ... 589708 (   3.5 sec)
nearest neighbour list constructed           ...    0.0 sec
Grid point re-assignment to atoms done       ...    0.1 sec
Grid point division into batches done        ...    4.0 sec
Reduced shell lists constructed in    5.1 sec

Total number of grid points                  ...   589708
Total number of batches                      ...     9253
Average number of points per batch           ...       63
Average number of grid points per atom       ...     8424
Average number of shells per batch           ...    84.26 (22.65%)
Average number of basis functions per batch  ...   176.81 (21.46%)
Average number of large shells per batch     ...    51.86 (61.54%)
Average number of large basis fcns per batch ...   110.48 (62.49%)
Maximum spatial batch extension              ...  15.36, 14.79, 21.71 au
Average spatial batch extension              ...   0.26,  0.26,  0.26 au

Final grid set up in    8.9 sec
Final integration                            ... done (   2.0 sec)
Change in XC energy                          ...    -0.000103080
Integrated number of electrons               ...   400.000011290
Previous integrated no of electrons          ...   399.999941898
Old exchange energy                            =   -110.456765985 Eh
New exchange energy                            =   -110.454995494 Eh
Exchange energy change after final integration =      0.001770492 Eh
Total energy after final integration           =  -4437.948119854 Eh
Final COS-X integration done in                =    28.265 sec

----------------
TOTAL SCF ENERGY
----------------

Total Energy       :        -4437.94811985 Eh         -120762.70780 eV

Components:
Nuclear Repulsion  :         7011.00190063 Eh          190779.06074 eV
Electronic Energy  :       -11448.95002049 Eh         -311541.76853 eV
One Electron Energy:       -20054.67453903 Eh         -545715.43784 eV
Two Electron Energy:         8605.72451854 Eh          234173.66931 eV

Virial components:
Potential Energy   :        -8852.98494356 Eh         -240901.96753 eV
Kinetic Energy     :         4415.03682371 Eh          120139.25973 eV
Virial Ratio       :            2.00518938


DFT components:
N(Alpha)           :      200.000005644933 electrons
N(Beta)            :      200.000005644933 electrons
N(Total)           :      400.000011289867 electrons
E(XC)              :     -320.342499009709 Eh       
DFET-embed. en.    :        0.000000000000 Eh       

---------------
SCF CONVERGENCE
---------------

  Last Energy change         ...    3.4452e-08  Tolerance :   1.0000e-08
  Last MAX-Density change    ...    5.7732e-15  Tolerance :   1.0000e-07
  Last RMS-Density change    ...    4.1355e-17  Tolerance :   5.0000e-09
  Last Orbital Gradient      ...    2.0755e-06  Tolerance :   1.0000e-05
  Last Orbital Rotation      ...    1.2435e-05  Tolerance :   1.0000e-05

             **** THE GBW FILE WAS UPDATED (xtbopt.gbw) ****
             **** DENSITY FILE WAS UPDATED (xtbopt.scfp) ****
             **** ENERGY FILE WAS UPDATED (xtbopt.en.tmp) ****
             **** THE GBW FILE WAS UPDATED (xtbopt.gbw) ****
             **** DENSITY FILE WAS UPDATED (xtbopt.scfp) ****
----------------
ORBITAL ENERGIES
----------------

  NO   OCC          E(Eh)            E(eV) 
   0   2.0000     -88.981467     -2421.3088 
   1   2.0000     -88.979041     -2421.2428 
   2   2.0000     -88.975734     -2421.1528 
   3   2.0000     -88.963770     -2420.8273 
   4   2.0000     -88.954241     -2420.5680 
   5   2.0000     -88.951387     -2420.4903 
   6   2.0000     -19.279986      -524.6351 
   7   2.0000     -19.260975      -524.1178 
   8   2.0000     -19.231941      -523.3277 
   9   2.0000     -19.231897      -523.3265 
  10   2.0000     -19.224900      -523.1361 
  11   2.0000     -19.224386      -523.1222 
  12   2.0000     -19.211933      -522.7833 
  13   2.0000     -19.202713      -522.5324 
  14   2.0000     -14.643599      -398.4726 
  15   2.0000     -14.637057      -398.2946 
  16   2.0000     -14.490729      -394.3128 
  17   2.0000     -14.472231      -393.8094 
  18   2.0000     -10.418110      -283.4912 
  19   2.0000     -10.405399      -283.1453 
  20   2.0000     -10.369984      -282.1816 
  21   2.0000     -10.366950      -282.0990 
  22   2.0000     -10.343482      -281.4605 
  23   2.0000     -10.339341      -281.3478 
  24   2.0000     -10.339071      -281.3404 
  25   2.0000     -10.329236      -281.0728 
  26   2.0000     -10.318802      -280.7889 
  27   2.0000     -10.318089      -280.7695 
  28   2.0000     -10.316597      -280.7289 
  29   2.0000     -10.315058      -280.6870 
  30   2.0000     -10.314626      -280.6752 
  31   2.0000     -10.312110      -280.6068 
  32   2.0000     -10.306569      -280.4560 
  33   2.0000     -10.302137      -280.3354 
  34   2.0000     -10.300948      -280.3031 
  35   2.0000     -10.300753      -280.2977 
  36   2.0000     -10.300740      -280.2974 
  37   2.0000     -10.299616      -280.2668 
  38   2.0000     -10.299094      -280.2526 
  39   2.0000     -10.298952      -280.2487 
  40   2.0000     -10.293859      -280.1101 
  41   2.0000     -10.292558      -280.0747 
  42   2.0000     -10.291133      -280.0360 
  43   2.0000     -10.290481      -280.0182 
  44   2.0000     -10.289352      -279.9875 
  45   2.0000     -10.285894      -279.8934 
  46   2.0000     -10.284302      -279.8501 
  47   2.0000     -10.283237      -279.8211 
  48   2.0000     -10.282232      -279.7938 
  49   2.0000     -10.279421      -279.7173 
  50   2.0000      -8.077395      -219.7971 
  51   2.0000      -8.074137      -219.7084 
  52   2.0000      -8.071956      -219.6491 
  53   2.0000      -8.059640      -219.3140 
  54   2.0000      -8.049986      -219.0513 
  55   2.0000      -8.047734      -218.9900 
  56   2.0000      -6.047129      -164.5507 
  57   2.0000      -6.043809      -164.4604 
  58   2.0000      -6.042756      -164.4317 
  59   2.0000      -6.041126      -164.3874 
  60   2.0000      -6.039301      -164.3377 
  61   2.0000      -6.038641      -164.3198 
  62   2.0000      -6.036711      -164.2673 
  63   2.0000      -6.035709      -164.2400 
  64   2.0000      -6.034471      -164.2063 
  65   2.0000      -6.028845      -164.0532 
  66   2.0000      -6.024572      -163.9369 
  67   2.0000      -6.022066      -163.8688 
  68   2.0000      -6.019680      -163.8038 
  69   2.0000      -6.017708      -163.7502 
  70   2.0000      -6.015773      -163.6975 
  71   2.0000      -6.013681      -163.6406 
  72   2.0000      -6.011006      -163.5678 
  73   2.0000      -6.008144      -163.4899 
  74   2.0000      -1.311860       -35.6975 
  75   2.0000      -1.304680       -35.5022 
  76   2.0000      -1.202473       -32.7210 
  77   2.0000      -1.188341       -32.3364 
  78   2.0000      -1.131028       -30.7768 
  79   2.0000      -1.123531       -30.5728 
  80   2.0000      -1.105349       -30.0781 
  81   2.0000      -1.094118       -29.7725 
  82   2.0000      -1.091280       -29.6952 
  83   2.0000      -1.084081       -29.4993 
  84   2.0000      -1.005927       -27.3727 
  85   2.0000      -1.005309       -27.3558 
  86   2.0000      -0.998651       -27.1747 
  87   2.0000      -0.990505       -26.9530 
  88   2.0000      -0.985278       -26.8108 
  89   2.0000      -0.978358       -26.6225 
  90   2.0000      -0.920910       -25.0592 
  91   2.0000      -0.917397       -24.9637 
  92   2.0000      -0.901619       -24.5343 
  93   2.0000      -0.890876       -24.2420 
  94   2.0000      -0.877608       -23.8809 
  95   2.0000      -0.868450       -23.6317 
  96   2.0000      -0.861132       -23.4326 
  97   2.0000      -0.855922       -23.2908 
  98   2.0000      -0.855431       -23.2775 
  99   2.0000      -0.852737       -23.2042 
 100   2.0000      -0.838466       -22.8158 
 101   2.0000      -0.834534       -22.7088 
 102   2.0000      -0.825880       -22.4733 
 103   2.0000      -0.807625       -21.9766 
 104   2.0000      -0.794459       -21.6183 
 105   2.0000      -0.773959       -21.0605 
 106   2.0000      -0.766095       -20.8465 
 107   2.0000      -0.752448       -20.4752 
 108   2.0000      -0.745101       -20.2752 
 109   2.0000      -0.741770       -20.1846 
 110   2.0000      -0.714233       -19.4353 
 111   2.0000      -0.706992       -19.2382 
 112   2.0000      -0.701649       -19.0929 
 113   2.0000      -0.685813       -18.6619 
 114   2.0000      -0.680584       -18.5196 
 115   2.0000      -0.674744       -18.3607 
 116   2.0000      -0.666763       -18.1435 
 117   2.0000      -0.658941       -17.9307 
 118   2.0000      -0.652416       -17.7531 
 119   2.0000      -0.644085       -17.5264 
 120   2.0000      -0.640618       -17.4321 
 121   2.0000      -0.634526       -17.2663 
 122   2.0000      -0.627918       -17.0865 
 123   2.0000      -0.624850       -17.0030 
 124   2.0000      -0.624546       -16.9948 
 125   2.0000      -0.623217       -16.9586 
 126   2.0000      -0.621060       -16.8999 
 127   2.0000      -0.618286       -16.8244 
 128   2.0000      -0.618100       -16.8193 
 129   2.0000      -0.601681       -16.3726 
 130   2.0000      -0.597576       -16.2609 
 131   2.0000      -0.588224       -16.0064 
 132   2.0000      -0.586253       -15.9527 
 133   2.0000      -0.573149       -15.5962 
 134   2.0000      -0.571311       -15.5462 
 135   2.0000      -0.569415       -15.4946 
 136   2.0000      -0.564589       -15.3633 
 137   2.0000      -0.559055       -15.2127 
 138   2.0000      -0.558384       -15.1944 
 139   2.0000      -0.556463       -15.1421 
 140   2.0000      -0.548007       -14.9120 
 141   2.0000      -0.544641       -14.8204 
 142   2.0000      -0.540029       -14.6949 
 143   2.0000      -0.538046       -14.6410 
 144   2.0000      -0.532727       -14.4962 
 145   2.0000      -0.530936       -14.4475 
 146   2.0000      -0.525426       -14.2976 
 147   2.0000      -0.524801       -14.2806 
 148   2.0000      -0.522061       -14.2060 
 149   2.0000      -0.511979       -13.9317 
 150   2.0000      -0.506792       -13.7905 
 151   2.0000      -0.503079       -13.6895 
 152   2.0000      -0.500932       -13.6311 
 153   2.0000      -0.499089       -13.5809 
 154   2.0000      -0.495953       -13.4956 
 155   2.0000      -0.487890       -13.2762 
 156   2.0000      -0.483664       -13.1612 
 157   2.0000      -0.481107       -13.0916 
 158   2.0000      -0.478428       -13.0187 
 159   2.0000      -0.476139       -12.9564 
 160   2.0000      -0.475605       -12.9419 
 161   2.0000      -0.473968       -12.8973 
 162   2.0000      -0.473290       -12.8789 
 163   2.0000      -0.472205       -12.8494 
 164   2.0000      -0.461414       -12.5557 
 165   2.0000      -0.455668       -12.3993 
 166   2.0000      -0.450688       -12.2639 
 167   2.0000      -0.446942       -12.1619 
 168   2.0000      -0.445426       -12.1207 
 169   2.0000      -0.443154       -12.0588 
 170   2.0000      -0.438017       -11.9191 
 171   2.0000      -0.433440       -11.7945 
 172   2.0000      -0.426982       -11.6188 
 173   2.0000      -0.420992       -11.4558 
 174   2.0000      -0.415873       -11.3165 
 175   2.0000      -0.413806       -11.2602 
 176   2.0000      -0.404382       -11.0038 
 177   2.0000      -0.403781       -10.9875 
 178   2.0000      -0.396205       -10.7813 
 179   2.0000      -0.380888       -10.3645 
 180   2.0000      -0.380153       -10.3445 
 181   2.0000      -0.373691       -10.1687 
 182   2.0000      -0.372284       -10.1304 
 183   2.0000      -0.367954       -10.0125 
 184   2.0000      -0.365837        -9.9549 
 185   2.0000      -0.360351        -9.8056 
 186   2.0000      -0.353928        -9.6309 
 187   2.0000      -0.352727        -9.5982 
 188   2.0000      -0.349402        -9.5077 
 189   2.0000      -0.347566        -9.4577 
 190   2.0000      -0.346460        -9.4277 
 191   2.0000      -0.341186        -9.2841 
 192   2.0000      -0.333169        -9.0660 
 193   2.0000      -0.330481        -8.9928 
 194   2.0000      -0.327863        -8.9216 
 195   2.0000      -0.320691        -8.7264 
 196   2.0000      -0.296416        -8.0659 
 197   2.0000      -0.271772        -7.3953 
 198   2.0000      -0.257493        -7.0067 
 199   2.0000      -0.212539        -5.7835 
 200   0.0000      -0.079568        -2.1651 
 201   0.0000      -0.049804        -1.3552 
 202   0.0000      -0.044505        -1.2111 
 203   0.0000      -0.043865        -1.1936 
 204   0.0000      -0.017670        -0.4808 
 205   0.0000      -0.012897        -0.3510 
 206   0.0000       0.026939         0.7330 
 207   0.0000       0.030374         0.8265 
 208   0.0000       0.036448         0.9918 
 209   0.0000       0.040703         1.1076 
 210   0.0000       0.046803         1.2736 
 211   0.0000       0.054958         1.4955 
 212   0.0000       0.056057         1.5254 
 213   0.0000       0.070668         1.9230 
 214   0.0000       0.073167         1.9910 
 215   0.0000       0.075069         2.0427 
 216   0.0000       0.081810         2.2262 
 217   0.0000       0.082581         2.2471 
 218   0.0000       0.089751         2.4422 
 219   0.0000       0.091994         2.5033 
 220   0.0000       0.097343         2.6488 
 221   0.0000       0.099727         2.7137 
 222   0.0000       0.104141         2.8338 
 223   0.0000       0.111517         3.0345 
 224   0.0000       0.113002         3.0749 
 225   0.0000       0.122213         3.3256 
 226   0.0000       0.125083         3.4037 
 227   0.0000       0.126411         3.4398 
 228   0.0000       0.128385         3.4935 
 229   0.0000       0.134502         3.6600 
 230   0.0000       0.134820         3.6686 
 231   0.0000       0.135520         3.6877 
 232   0.0000       0.137825         3.7504 
 233   0.0000       0.143670         3.9095 
 234   0.0000       0.145047         3.9469 
 235   0.0000       0.147853         4.0233 
 236   0.0000       0.150047         4.0830 
 237   0.0000       0.154432         4.2023 
 238   0.0000       0.159633         4.3438 
 239   0.0000       0.165341         4.4992 
 240   0.0000       0.169791         4.6202 
 241   0.0000       0.173712         4.7269 
 242   0.0000       0.175198         4.7674 
 243   0.0000       0.186947         5.0871 
 244   0.0000       0.190598         5.1864 
 245   0.0000       0.192207         5.2302 
 246   0.0000       0.195162         5.3106 
 247   0.0000       0.211336         5.7508 
 248   0.0000       0.219180         5.9642 
 249   0.0000       0.224063         6.0971 
 250   0.0000       0.235921         6.4197 
 251   0.0000       0.239950         6.5294 
 252   0.0000       0.245609         6.6834 
 253   0.0000       0.251242         6.8366 
 254   0.0000       0.254462         6.9243 
 255   0.0000       0.260310         7.0834 
 256   0.0000       0.267301         7.2736 
 257   0.0000       0.273293         7.4367 
 258   0.0000       0.284264         7.7352 
 259   0.0000       0.290739         7.9114 
 260   0.0000       0.291186         7.9236 
 261   0.0000       0.297025         8.0825 
 262   0.0000       0.300025         8.1641 
 263   0.0000       0.301683         8.2092 
 264   0.0000       0.307973         8.3804 
 265   0.0000       0.312783         8.5112 
 266   0.0000       0.313875         8.5410 
 267   0.0000       0.317249         8.6328 
 268   0.0000       0.320525         8.7219 
 269   0.0000       0.325917         8.8686 
 270   0.0000       0.329682         8.9711 
 271   0.0000       0.338281         9.2051 
 272   0.0000       0.341916         9.3040 
 273   0.0000       0.342866         9.3298 
 274   0.0000       0.345376         9.3982 
 275   0.0000       0.351590         9.5673 
 276   0.0000       0.352757         9.5990 
 277   0.0000       0.358374         9.7519 
 278   0.0000       0.359410         9.7800 
 279   0.0000       0.369794        10.0626 
 280   0.0000       0.370830        10.0908 
 281   0.0000       0.375528        10.2186 
 282   0.0000       0.383299        10.4301 
 283   0.0000       0.384667        10.4673 
 284   0.0000       0.388448        10.5702 
 285   0.0000       0.389201        10.5907 
 286   0.0000       0.393877        10.7179 
 287   0.0000       0.399067        10.8592 
 288   0.0000       0.402222        10.9450 
 289   0.0000       0.404772        11.0144 
 290   0.0000       0.406437        11.0597 
 291   0.0000       0.411626        11.2009 
 292   0.0000       0.414348        11.2750 
 293   0.0000       0.418453        11.3867 
 294   0.0000       0.422491        11.4966 
 295   0.0000       0.426380        11.6024 
 296   0.0000       0.432967        11.7816 
 297   0.0000       0.434504        11.8234 
 298   0.0000       0.436641        11.8816 
 299   0.0000       0.442648        12.0451 
 300   0.0000       0.444417        12.0932 
 301   0.0000       0.446844        12.1592 
 302   0.0000       0.448514        12.2047 
 303   0.0000       0.454881        12.3780 
 304   0.0000       0.460504        12.5309 
 305   0.0000       0.461933        12.5698 
 306   0.0000       0.467267        12.7150 
 307   0.0000       0.470183        12.7943 
 308   0.0000       0.481175        13.0934 
 309   0.0000       0.483879        13.1670 
 310   0.0000       0.485836        13.2203 
 311   0.0000       0.489191        13.3116 
 312   0.0000       0.492257        13.3950 
 313   0.0000       0.495877        13.4935 
 314   0.0000       0.496049        13.4982 
 315   0.0000       0.497229        13.5303 
 316   0.0000       0.498770        13.5722 
 317   0.0000       0.504398        13.7254 
 318   0.0000       0.507123        13.7995 
 319   0.0000       0.510696        13.8968 
 320   0.0000       0.512981        13.9589 
 321   0.0000       0.516508        14.0549 
 322   0.0000       0.518458        14.1080 
 323   0.0000       0.519202        14.1282 
 324   0.0000       0.524159        14.2631 
 325   0.0000       0.528032        14.3685 
 326   0.0000       0.530668        14.4402 
 327   0.0000       0.533240        14.5102 
 328   0.0000       0.536155        14.5895 
 329   0.0000       0.542282        14.7562 
 330   0.0000       0.545377        14.8405 
 331   0.0000       0.549085        14.9414 
 332   0.0000       0.550568        14.9817 
 333   0.0000       0.552244        15.0273 
 334   0.0000       0.554973        15.1016 
 335   0.0000       0.559932        15.2365 
 336   0.0000       0.562082        15.2950 
 337   0.0000       0.564789        15.3687 
 338   0.0000       0.567937        15.4544 
 339   0.0000       0.572012        15.5652 
 340   0.0000       0.572197        15.5703 
 341   0.0000       0.575250        15.6533 
 342   0.0000       0.583658        15.8821 
 343   0.0000       0.586091        15.9483 
 344   0.0000       0.587414        15.9843 
 345   0.0000       0.591042        16.0831 
 346   0.0000       0.594202        16.1691 
 347   0.0000       0.599843        16.3226 
 348   0.0000       0.603756        16.4290 
 349   0.0000       0.605980        16.4895 
 350   0.0000       0.611331        16.6352 
 351   0.0000       0.612066        16.6552 
 352   0.0000       0.617250        16.7962 
 353   0.0000       0.622060        16.9271 
 354   0.0000       0.622684        16.9441 
 355   0.0000       0.630331        17.1522 
 356   0.0000       0.631927        17.1956 
 357   0.0000       0.635284        17.2870 
 358   0.0000       0.637770        17.3546 
 359   0.0000       0.640428        17.4269 
 360   0.0000       0.645011        17.5516 
 361   0.0000       0.646756        17.5991 
 362   0.0000       0.650223        17.6935 
 363   0.0000       0.655431        17.8352 
 364   0.0000       0.660120        17.9628 
 365   0.0000       0.662717        18.0335 
 366   0.0000       0.669582        18.2202 
 367   0.0000       0.672590        18.3021 
 368   0.0000       0.674450        18.3527 
 369   0.0000       0.679214        18.4824 
 370   0.0000       0.680888        18.5279 
 371   0.0000       0.681413        18.5422 
 372   0.0000       0.688230        18.7277 
 373   0.0000       0.691593        18.8192 
 374   0.0000       0.693212        18.8632 
 375   0.0000       0.697644        18.9839 
 376   0.0000       0.698059        18.9951 
 377   0.0000       0.699322        19.0295 
 378   0.0000       0.702224        19.1085 
 379   0.0000       0.703545        19.1444 
 380   0.0000       0.705606        19.2005 
 381   0.0000       0.708088        19.2681 
 382   0.0000       0.712532        19.3890 
 383   0.0000       0.715828        19.4787 
 384   0.0000       0.716916        19.5083 
 385   0.0000       0.718181        19.5427 
 386   0.0000       0.720742        19.6124 
 387   0.0000       0.722629        19.6637 
 388   0.0000       0.724919        19.7261 
 389   0.0000       0.727041        19.7838 
 390   0.0000       0.729397        19.8479 
 391   0.0000       0.730884        19.8884 
 392   0.0000       0.732928        19.9440 
 393   0.0000       0.736269        20.0349 
 394   0.0000       0.742242        20.1974 
 395   0.0000       0.748881        20.3781 
 396   0.0000       0.751198        20.4411 
 397   0.0000       0.753387        20.5007 
 398   0.0000       0.755088        20.5470 
 399   0.0000       0.760167        20.6852 
 400   0.0000       0.762510        20.7489 
 401   0.0000       0.765081        20.8189 
 402   0.0000       0.766375        20.8541 
 403   0.0000       0.772329        21.0161 
 404   0.0000       0.775061        21.0905 
 405   0.0000       0.776036        21.1170 
 406   0.0000       0.779759        21.2183 
 407   0.0000       0.782063        21.2810 
 408   0.0000       0.786236        21.3946 
 409   0.0000       0.788197        21.4479 
 410   0.0000       0.793242        21.5852 
 411   0.0000       0.797780        21.7087 
 412   0.0000       0.801814        21.8185 
 413   0.0000       0.804604        21.8944 
 414   0.0000       0.806733        21.9523 
 415   0.0000       0.808437        21.9987 
 416   0.0000       0.811328        22.0774 
 417   0.0000       0.813889        22.1470 
 418   0.0000       0.814691        22.1689 
 419   0.0000       0.817735        22.2517 
 420   0.0000       0.821022        22.3411 
 421   0.0000       0.822284        22.3755 
 422   0.0000       0.825383        22.4598 
 423   0.0000       0.828847        22.5541 
 424   0.0000       0.831227        22.6188 
 425   0.0000       0.836013        22.7491 
 426   0.0000       0.836644        22.7663 
 427   0.0000       0.841406        22.8958 
 428   0.0000       0.842636        22.9293 
 429   0.0000       0.847342        23.0573 
 430   0.0000       0.850699        23.1487 
 431   0.0000       0.853816        23.2335 
 432   0.0000       0.856702        23.3120 
 433   0.0000       0.863882        23.5074 
 434   0.0000       0.866908        23.5898 
 435   0.0000       0.871500        23.7147 
 436   0.0000       0.874323        23.7915 
 437   0.0000       0.880767        23.9669 
 438   0.0000       0.890285        24.2259 
 439   0.0000       0.895327        24.3631 
 440   0.0000       0.898878        24.4597 
 441   0.0000       0.902668        24.5629 
 442   0.0000       0.903486        24.5851 
 443   0.0000       0.910866        24.7859 
 444   0.0000       0.919727        25.0270 
 445   0.0000       0.924611        25.1600 
 446   0.0000       0.925971        25.1970 
 447   0.0000       0.935549        25.4576 
 448   0.0000       0.936124        25.4732 
 449   0.0000       0.946113        25.7451 
 450   0.0000       0.959185        26.1007 
 451   0.0000       0.960568        26.1384 
 452   0.0000       0.962862        26.2008 
 453   0.0000       0.964136        26.2355 
 454   0.0000       0.978327        26.6216 
 455   0.0000       0.982449        26.7338 
 456   0.0000       0.988675        26.9032 
 457   0.0000       0.990166        26.9438 
 458   0.0000       0.992186        26.9988 
 459   0.0000       0.999957        27.2102 
 460   0.0000       1.003468        27.3058 
 461   0.0000       1.006424        27.3862 
 462   0.0000       1.013049        27.5665 
 463   0.0000       1.014012        27.5927 
 464   0.0000       1.027336        27.9552 
 465   0.0000       1.036518        28.2051 
 466   0.0000       1.042254        28.3612 
 467   0.0000       1.045213        28.4417 
 468   0.0000       1.046966        28.4894 
 469   0.0000       1.051472        28.6120 
 470   0.0000       1.052293        28.6344 
 471   0.0000       1.056268        28.7425 
 472   0.0000       1.058087        28.7920 
 473   0.0000       1.064438        28.9648 
 474   0.0000       1.074082        29.2272 
 475   0.0000       1.079775        29.3822 
 476   0.0000       1.094907        29.7939 
 477   0.0000       1.096208        29.8293 
 478   0.0000       1.098608        29.8946 
 479   0.0000       1.102076        29.9890 
 480   0.0000       1.107711        30.1423 
 481   0.0000       1.109217        30.1833 
 482   0.0000       1.113063        30.2880 
 483   0.0000       1.122284        30.5389 
 484   0.0000       1.129245        30.7283 
 485   0.0000       1.134657        30.8756 
 486   0.0000       1.136437        30.9240 
 487   0.0000       1.142408        31.0865 
 488   0.0000       1.144844        31.1528 
 489   0.0000       1.150772        31.3141 
 490   0.0000       1.154612        31.4186 
 491   0.0000       1.166789        31.7500 
 492   0.0000       1.173115        31.9221 
 493   0.0000       1.178858        32.0784 
 494   0.0000       1.181553        32.1517 
 495   0.0000       1.185803        32.2673 
 496   0.0000       1.190748        32.4019 
 497   0.0000       1.195950        32.5434 
 498   0.0000       1.199233        32.6328 
 499   0.0000       1.204980        32.7892 
 500   0.0000       1.217176        33.1210 
 501   0.0000       1.221923        33.2502 
 502   0.0000       1.225516        33.3480 
 503   0.0000       1.228542        33.4303 
 504   0.0000       1.232559        33.5396 
 505   0.0000       1.234710        33.5982 
 506   0.0000       1.237739        33.6806 
 507   0.0000       1.251026        34.0421 
 508   0.0000       1.255300        34.1585 
 509   0.0000       1.260401        34.2972 
 510   0.0000       1.265240        34.4289 
 511   0.0000       1.268615        34.5208 
 512   0.0000       1.272806        34.6348 
 513   0.0000       1.276029        34.7225 
 514   0.0000       1.277980        34.7756 
 515   0.0000       1.281064        34.8595 
 516   0.0000       1.285622        34.9835 
 517   0.0000       1.288326        35.0571 
 518   0.0000       1.289242        35.0821 
 519   0.0000       1.297246        35.2998 
 520   0.0000       1.299125        35.3510 
 521   0.0000       1.302711        35.4486 
 522   0.0000       1.311750        35.6945 
 523   0.0000       1.314857        35.7791 
[...]
B( 35-N , 37-O ) :   1.5009 B( 36-O , 37-O ) :   0.2564 B( 38-C , 39-C ) :   1.2346 
B( 38-C , 64-H ) :   1.0029 B( 39-C , 40-C ) :   1.0733 B( 40-C , 41-C ) :   1.6824 
B( 40-C , 65-H ) :   0.9682 B( 41-C , 42-C ) :   1.1585 B( 41-C , 66-H ) :   0.9565 
B( 42-C , 43-C ) :   1.4808 B( 42-C , 49-S ) :   1.1549 B( 43-C , 44-C ) :   0.9669 
B( 43-C , 47-C ) :   1.2253 B( 44-C , 45-O ) :   2.0869 B( 44-C , 46-O ) :   1.2956 
B( 46-O , 67-H ) :   0.9418 B( 47-C , 48-C ) :   1.5916 B( 47-C , 68-H ) :   0.9957 
B( 48-C , 49-S ) :   1.1375 B( 48-C , 69-H ) :   0.9712 

-------
TIMINGS
-------

Total SCF time: 0 days 0 hours 5 min 4 sec 

Total time                  ....     304.306 sec
Sum of individual times     ....     302.966 sec  ( 99.6%)

Fock matrix formation       ....     282.200 sec  ( 92.7%)
  Split-RI-J                ....      26.988 sec  (  9.6% of F)
  Chain of spheres X        ....     234.544 sec  ( 83.1% of F)
  COS-X 1 center corr.      ....       0.000 sec  (  0.0% of F)
  XC integration            ....      19.897 sec  (  7.1% of F)
    Basis function eval.    ....       5.675 sec  ( 28.5% of XC)
    Density eval.           ....       4.106 sec  ( 20.6% of XC)
    XC-Functional eval.     ....       5.519 sec  ( 27.7% of XC)
    XC-Potential eval.      ....       3.624 sec  ( 18.2% of XC)
Diagonalization             ....       1.485 sec  (  0.5%)
Density matrix formation    ....       0.232 sec  (  0.1%)
Population analysis         ....       0.123 sec  (  0.0%)
Initial guess               ....       1.683 sec  (  0.6%)
Orbital Transformation      ....       0.000 sec  (  0.0%)
Orbital Orthonormalization  ....       0.000 sec  (  0.0%)
DIIS solution               ....       0.618 sec  (  0.2%)
SOSCF solution              ....       1.373 sec  (  0.5%)
Grid generation             ....      15.253 sec  (  5.0%)


           ************************************************************
           *        Program running with 6 parallel MPI-processes     *
           *              working on a common directory               *
           ************************************************************

---------------------------------------------------------------------------------

                       ORCA sTD-DFT CALCULATION

                       please cite in your paper           
 orginal sTDA method:  S. Grimme, J. Chem. Phys. 138, 244104 (2013)           
 range-separated sTDA: T. Risthaus, A. Hansen, S. Grimme, Phys. Chem. Chem. Phys.
                       16, 14408-14419 (2014) 
 sTD-DFT approach:     C. Bannwarth, S. Grimme, Comp. Theor. Chem. 
                       1040-1041, 45-53 (2014)

---------------------------------------------------------------------------------


spectral range up to (eV)      ...    5.000000
occ. MO cut-off (eV)           ...   -15.205142
virt. MO cut-off (eV)          ...    7.256511
perturbation threshold         ...   1.000e-04 
MOs in sTD-DFT                 ...         118 
occ. MOs in sTD-DFT            ...          62 
virt. in sTD-DFT               ...          56 
calculate triplets           ...   no  

Calculating the dipole lengths integrals ... 
Transforming integrals ... 
Calculating the dipole velocity integrals ... 
Transforming integrals ... 
Calculating magnetic dipole integrals ... 
Transforming integrals ... 






















SCF atom population (using active MOs):

   2.244   2.048   1.430   4.121   2.765   1.743   2.260   3.651   2.010   1.734
   3.413   1.726   0.422   3.033   3.056   1.995   2.067   2.171   2.047   2.175
   2.052   2.098   2.002   2.060   3.657   2.089   1.933   1.981   2.069   3.757
   1.583   1.746   1.697   3.406   1.701   0.421   3.037   3.061   1.914   2.011
   2.036   2.097   2.091   2.070   1.553   4.372   3.417   2.221   2.370   3.653
   0.444   0.199   0.395   0.213   0.442   0.543   0.453   0.525   0.453   0.397
   0.345   0.379   0.276   0.148   0.402   0.478   0.496   0.204   0.454   0.487

Number of electrons in sTDA:  124.000

ax(DF)   :  0.3800
s^k      :  2.0000
beta  (J):  1.8600
alpha (K):  0.9000

hardness table read
setting up gammas ...














computing q(ij,n)
memory needed for q data:             2.8 MB 
memory available for q data:       2490.9 MB 

CSF included by energy:           23 
CSF considered in PT2:          3449 

ordered frontier orbitals
           eV         # centers 
  51      -9.458       7.7
  52      -9.428       7.5
  53      -9.284       6.7
  54      -9.066       5.7
  55      -8.993       2.9
  56      -8.922       6.0
  57      -8.726      20.9
  58      -8.066      28.4
  59      -7.395      24.2
  60      -7.007      25.5
  61      -5.783      17.9

  62      -2.165      17.7
  63      -1.355      10.6
  64      -1.211      10.4
  65      -1.194      21.0
  66      -0.481       5.2
  67      -0.351      19.5
  68       0.733      27.9
  69       0.827      13.3
  70       0.992      11.7
  71       1.108      11.3
  72       1.274      11.2

           eV        nm       excitation i->a                     eV 
   0      2.30     539.6    61 ->  62      gap,J,K:    3.618     2.379     0.529
   1      2.94     422.2    61 ->  63      gap,J,K:    4.428     1.658     0.083
   2      3.03     409.5    61 ->  65      gap,J,K:    4.590     1.884     0.161
   3      3.05     406.7    61 ->  64      gap,J,K:    4.572     1.715     0.096
   4      3.24     383.2    60 ->  62      gap,J,K:    4.842     1.983     0.188
   5      3.46     358.3    61 ->  66      gap,J,K:    5.303     1.866     0.012
   6      3.68     336.9    59 ->  62      gap,J,K:    5.230     1.878     0.164
   7      3.84     322.6    61 ->  67      gap,J,K:    5.433     2.325     0.368
   8      4.11     301.3    60 ->  63      gap,J,K:    5.651     1.804     0.134
   9      4.28     290.0    60 ->  64      gap,J,K:    5.796     1.945     0.213
  10      4.31     287.7    60 ->  65      gap,J,K:    5.813     1.943     0.219
  11      4.31     287.7    61 ->  69      gap,J,K:    6.610     2.348     0.024
  12      4.34     285.8    58 ->  62      gap,J,K:    5.901     2.061     0.249
  13      4.43     280.0    59 ->  63      gap,J,K:    6.040     1.898     0.143
  14      4.51     275.0    61 ->  70      gap,J,K:    6.775     2.294     0.014
  15      4.70     263.9    59 ->  65      gap,J,K:    6.202     2.019     0.257
  16      4.70     263.7    59 ->  64      gap,J,K:    6.184     1.843     0.180
  17      4.71     263.3    60 ->  66      gap,J,K:    6.526     1.953     0.068
  18      4.74     261.8    54 ->  62      gap,J,K:    6.901     2.444     0.140
  19      4.77     260.2    61 ->  68      gap,J,K:    6.517     2.173     0.211
  20      4.89     253.6    48 ->  64      gap,J,K:    8.420     3.533     0.001
  21      4.95     250.6    57 ->  62      gap,J,K:    6.561     2.008     0.198
  22      4.97     249.3    47 ->  63      gap,J,K:    8.450     3.481     0.002

average / max PT2 energy lowering (eV):       0.045       0.083

CSF included by PT:                   204 
total number of CSF included:         227 
 
sTD-DFT procedure...
setting up A+B and A-B matrices...  done
estimated time (min):    0.000
calculating (A-B)^0.5 ... done
calculating (A+B)*(A-B)^0.5 ... done
calculating (A-B)^0.5 *(A+B)*(A-B)^0.5 ... done
diagonalizing ...using LAPACKE_ssyevr ...done

   24 roots found, lowest/highest eigenvalue :     1.863     4.944

excitation energies, transition moments and amplitudes

molecular weight:  780.892
state   eV        nm        fL         fV        Rl        RV
   0   1.863     665.7   1.478710   2.147184  -388.771988  -377.337068     0.96 (  61->  62)    0.01 (  60->  65)    0.00 (  60->  67)
   1   2.743     451.9   0.189085   0.220428  121.733202  129.627284     0.61 (  61->  63)    0.25 (  61->  65)    0.05 (  61->  64)
   2   2.838     436.9   0.096360   0.102900  -5.199744   4.208107     0.36 (  61->  64)    0.28 (  61->  65)    0.26 (  61->  63)
   3   2.914     425.4   0.150172   0.167083  -43.600491  -52.415777     0.46 (  61->  64)    0.40 (  61->  65)    0.05 (  60->  64)
   4   3.014     411.4   0.440441   0.459983  523.761188  536.105334     0.88 (  60->  62)    0.04 (  61->  64)    0.02 (  61->  67)
   5   3.375     367.4   0.021005   0.023836  16.981063  21.774032     0.58 (  61->  66)    0.21 (  61->  67)    0.12 (  59->  62)
   6   3.411     363.5   0.084118   0.082044  41.786219  44.558119     0.35 (  61->  66)    0.34 (  59->  62)    0.22 (  61->  67)
   7   3.540     350.2   0.137746   0.143129  87.320630  81.630794     0.39 (  61->  67)    0.37 (  59->  62)    0.08 (  60->  63)
   8   3.735     331.9   0.476846   0.482305  -132.350232  -136.220957     0.42 (  60->  63)    0.35 (  59->  63)    0.08 (  59->  62)
   9   3.840     322.9   0.415641   0.399896  -20.238242  -32.328955     0.50 (  60->  64)    0.27 (  59->  64)    0.05 (  60->  65)
  10   3.912     316.9   0.000428   0.001271  -0.322978  -0.680250     0.63 (  61->  69)    0.28 (  61->  70)    0.02 (  61->  68)
  11   4.044     306.6   0.058061   0.055925  -53.033592  -52.786420     0.59 (  58->  62)    0.13 (  60->  65)    0.05 (  47->  63)
  12   4.081     303.8   0.138847   0.128078  -456.756169  -473.551001     0.45 (  60->  65)    0.17 (  59->  65)    0.15 (  58->  62)
  13   4.114     301.4   0.009271   0.008312   3.812013   6.236765     0.60 (  47->  63)    0.14 (  47->  62)    0.08 (  47->  65)
  14   4.208     294.7   0.005293   0.005104  26.225219  25.595040     0.77 (  48->  64)    0.15 (  48->  65)    0.02 (  48->  68)
  15   4.327     286.5   0.042982   0.035032  42.744043  39.058219     0.41 (  61->  68)    0.32 (  61->  70)    0.06 (  61->  69)
  16   4.403     281.6   0.059576   0.052888  -52.355203  -54.058806     0.43 (  54->  62)    0.11 (  61->  70)    0.09 (  57->  62)
  17   4.429     279.9   0.000970   0.001555  14.095660  18.207649     0.59 (  60->  66)    0.22 (  59->  66)    0.05 (  59->  65)
  18   4.511     274.9   0.211839   0.184396  326.386802  304.279259     0.30 (  59->  65)    0.10 (  60->  67)    0.09 (  60->  65)
  19   4.539     273.2   0.064837   0.056792   0.976304  -3.141462     0.34 (  59->  63)    0.24 (  60->  63)    0.16 (  59->  65)
  20   4.629     267.9   0.039508   0.031916  -8.928066  -8.659623     0.36 (  54->  62)    0.16 (  61->  68)    0.09 (  58->  62)
  21   4.670     265.5   0.210381   0.173841  175.218281  156.567882     0.50 (  57->  62)    0.15 (  51->  62)    0.14 (  61->  68)
  22   4.755     260.7   0.089680   0.074961  12.183658  11.521528     0.33 (  59->  64)    0.27 (  60->  64)    0.19 (  58->  64)
  23   4.944     250.8   0.051966   0.047352  -57.553120  -53.112113     0.61 (  60->  67)    0.05 (  57->  62)    0.04 (  58->  65)

-----------------------------------------------------------------------------
         ABSORPTION SPECTRUM VIA TRANSITION ELECTRIC DIPOLE MOMENTS
-----------------------------------------------------------------------------
State   Energy  Wavelength   fosc         T2         TX        TY        TZ  
        (cm-1)    (nm)                  (au**2)     (au)      (au)      (au) 
-----------------------------------------------------------------------------
   0   15022.9    665.7   1.478710217  32.40452  -5.08383  -2.36345  -0.98656
   1   22127.0    451.9   0.189085382   2.81327   0.99036   0.84314  -1.05905
   2   22889.9    436.9   0.096359878   1.38589  -0.10013  -0.83020  -0.82863
   3   23506.6    425.4   0.150171702   2.10317   1.12009   0.63533  -0.66702
   4   24305.9    411.4   0.440440883   5.96557   0.26733  -1.01166  -2.20695
   5   27220.1    367.4   0.021005277   0.25405   0.27926   0.16434  -0.38607
   6   27513.0    363.5   0.084117847   1.00653   0.63422   0.28778  -0.72214
   7   28552.7    350.2   0.137746131   1.58821  -0.07155   0.71741   1.03364
   8   30125.1    331.9   0.476846042   5.21104   1.33793   1.39556  -1.21384
   9   30970.0    322.9   0.415640556   4.41827  -1.51403  -1.45357   0.11462
  10   31555.0    316.9   0.000428367   0.00447  -0.04048   0.05209   0.01084
  11   32620.7    306.6   0.058060546   0.58595  -0.13630   0.34129   0.67149
  12   32918.7    303.8   0.138847026   1.38858   0.11223   0.79736  -0.86034
  13   33183.0    301.4   0.009270768   0.09198  -0.01396   0.06844   0.29512
  14   33936.9    294.7   0.005292881   0.05134   0.16945   0.14717   0.03116
  15   34901.9    286.5   0.042981824   0.40543  -0.16328  -0.43493  -0.43543
  16   35514.4    281.6   0.059575802   0.55226  -0.48852  -0.55922   0.02959
  17   35724.1    279.9   0.000969781   0.00894  -0.01916   0.02568   0.08894
  18   36382.1    274.9   0.211838542   1.91687   0.65792  -0.05673  -1.21688
  19   36605.8    273.2   0.064836797   0.58310  -0.27996  -0.31972   0.63443
  20   37334.1    267.9   0.039507899   0.34838   0.54434   0.19044  -0.12574
  21   37664.7    265.5   0.210381443   1.83886  -1.13227  -0.43901   0.60340
  22   38354.1    260.7   0.089679694   0.76976   0.70553   0.40635  -0.32692
  23   39875.8    250.8   0.051965730   0.42903   0.13299   0.51944   0.37619

-----------------------------------------------------------------------------
         ABSORPTION SPECTRUM VIA TRANSITION VELOCITY DIPOLE MOMENTS
-----------------------------------------------------------------------------
State   Energy  Wavelength   fosc         P2         PX        PY        PZ  
        (cm-1)    (nm)                  (au**2)     (au)      (au)      (au) 
-----------------------------------------------------------------------------
   0   15022.9    665.7   2.147183803   0.22046  -0.41808  -0.19874  -0.07853
   1   22127.0    451.9   0.220427896   0.03333   0.11094   0.09261  -0.11158
   2   22889.9    436.9   0.102899650   0.01610  -0.00314  -0.08753  -0.09179
   3   23506.6    425.4   0.167083241   0.02684   0.12701   0.06851  -0.07758
   4   24305.9    411.4   0.459983072   0.07641   0.03033  -0.11563  -0.24924
   5   27220.1    367.4   0.023835561   0.00443   0.03461   0.01599  -0.05460
   6   27513.0    363.5   0.082044036   0.01543   0.08028   0.03454  -0.08825
   7   28552.7    350.2   0.143129097   0.02793  -0.00224   0.09439   0.13790
   8   30125.1    331.9   0.482304729   0.09930   0.18787   0.19372  -0.16273
   9   30970.0    322.9   0.399895855   0.08464  -0.21120  -0.19922   0.01878
  10   31555.0    316.9   0.001271105   0.00027  -0.00976   0.01334  -0.00099
  11   32620.7    306.6   0.055925070   0.01247  -0.01981   0.04869   0.09852
  12   32918.7    303.8   0.128077782   0.02882   0.01943   0.12126  -0.11719
  13   33183.0    301.4   0.008312095   0.00189  -0.00104   0.01173   0.04179
  14   33936.9    294.7   0.005103511   0.00118   0.02672   0.02117   0.00463
  15   34901.9    286.5   0.035032123   0.00836  -0.03299  -0.05198  -0.06758
  16   35514.4    281.6   0.052887937   0.01284  -0.06851  -0.09024   0.00027
  17   35724.1    279.9   0.001555125   0.00038  -0.00196   0.00775   0.01777
  18   36382.1    274.9   0.184396139   0.04585   0.10123  -0.01031  -0.18841
  19   36605.8    273.2   0.056792220   0.01421  -0.04281  -0.05127   0.09872
  20   37334.1    267.9   0.031915921   0.00814   0.08219   0.02947  -0.02281
  21   37664.7    265.5   0.173840649   0.04475  -0.17832  -0.06835   0.09100
  22   38354.1    260.7   0.074961368   0.01965   0.11269   0.06522  -0.05194
  23   39875.8    250.8   0.047352067   0.01290   0.02617   0.08833   0.06647

-------------------------------------------------------------------
                             CD SPECTRUM
-------------------------------------------------------------------
State   Energy Wavelength       R         MX        MY        MZ   
        (cm-1)   (nm)       (1e40*cgs)   (au)      (au)      (au)  
-------------------------------------------------------------------
   0   15022.9    665.7    -388.77199  -2.73861   5.50797  -0.75460
   1   22127.0    451.9    121.73320  -0.85274   1.21716   0.65921
   2   22889.9    436.9     -5.19974  -0.31211  -0.41132   0.42319
   3   23506.6    425.4    -43.60049   0.01481  -0.43634  -0.66805
   4   24305.9    411.4    523.76119  -1.38821   0.53504   0.59337
   5   27220.1    367.4     16.98106  -0.14604   0.27350   0.19738
   6   27513.0    363.5     41.78622  -0.63830   0.41742  -0.14877
   7   28552.7    350.2     87.32063   0.64054   0.23583  -0.47773
   8   30125.1    331.9    -132.35023  -1.35732   2.35064   0.74391
   9   30970.0    322.9    -20.23824  -0.68283   0.78236   1.65115
  10   31555.0    316.9     -0.32298   0.05625   0.07167  -0.00796
  11   32620.7    306.6    -53.03359   0.63768  -0.11148   0.52115
  12   32918.7    303.8    -456.75617  -1.85661   3.56454   0.80918
  13   33183.0    301.4      3.81201   0.00321  -0.83974   0.14011
  14   33936.9    294.7     26.22522  -0.33478  -0.37042  -0.00035
  15   34901.9    286.5     42.74404  -0.18943   0.02221   0.46529
  16   35514.4    281.6    -52.35520   0.06547  -0.46131  -0.13130
  17   35724.1    279.9     14.09566  -0.19825  -0.09762  -0.68685
  18   36382.1    274.9    326.38680  -1.07510   0.18691   0.54787
  19   36605.8    273.2      0.97630   0.91126  -1.43406  -0.32711
  20   37334.1    267.9     -8.92807   0.31452  -0.90264  -0.30672
  21   37664.7    265.5    175.21828  -0.06301   1.10441  -0.54660
  22   38354.1    260.7     12.18366   0.13521  -0.62387  -0.32553
  23   39875.8    250.8    -57.55312   0.09920   0.71607  -0.37479

sTD-DFT done

Total run time:        1.443 sec

           *** ORCA-CIS/TD-DFT FINISHED WITHOUT ERROR ***

-------------------------   --------------------
FINAL SINGLE POINT ENERGY     -4437.948119853891
-------------------------   --------------------


                            ***************************************
                            *     ORCA property calculations      *
                            ***************************************

                                    ---------------------
                                    Active property flags
                                    ---------------------
   (+) Dipole Moment


------------------------------------------------------------------------------
                       ORCA ELECTRIC PROPERTIES CALCULATION
------------------------------------------------------------------------------

Dipole Moment Calculation                       ... on
Quadrupole Moment Calculation                   ... off
Polarizability Calculation                      ... off
GBWName                                         ... xtbopt.gbw
Electron density file                           ... xtbopt.scfp
The origin for moment calculation is the CENTER OF MASS  = (-4.194420, -5.128254  1.392737)

-------------
DIPOLE MOMENT
-------------
                                X             Y             Z
Electronic contribution:      3.24895      -9.41480      -8.25934
Nuclear contribution   :     -3.85553      10.32950       9.81825
                        -----------------------------------------
Total Dipole Moment    :     -0.60658       0.91470       1.55891
                        -----------------------------------------
Magnitude (a.u.)       :      1.90651
Magnitude (Debye)      :      4.84598



--------------------
Rotational spectrum 
--------------------
 
Rotational constants in cm-1:     0.002162     0.000579     0.000503 
Rotational constants in MHz :    64.817087    17.345845    15.082302 

 Dipole components along the rotational axes: 
x,y,z [a.u.] :    -0.074550     1.735140     0.786467 
x,y,z [Debye]:    -0.189490     4.410374     1.999042 

 

Timings for individual modules:

Sum of individual times         ...      310.027 sec (=   5.167 min)
GTO integral calculation        ...        2.804 sec (=   0.047 min)   0.9 %
SCF iterations                  ...      305.071 sec (=   5.085 min)  98.4 %
CIS module                      ...        2.152 sec (=   0.036 min)   0.7 %
                             ****ORCA TERMINATED NORMALLY****
TOTAL RUN TIME: 0 days 0 hours 5 minutes 10 seconds 902 msec
