
                                 *****************
                                 * O   R   C   A *
                                 *****************

           --- An Ab Initio, DFT and Semiempirical electronic structure package ---

                  #######################################################
                  #                        -***-                        #
                  #          Department of theory and spectroscopy      #
                  #               Directorship: Frank Neese             #
                  #        Max Planck Institute fuer Kohlenforschung    #
                  #                Kaiser Wilhelm Platz 1               #
                  #                 D-45470 Muelheim/Ruhr               #
                  #                      Germany                        #
                  #                                                     #
                  #                  All rights reserved                #
                  #                        -***-                        #
                  #######################################################


                         Program Version 4.2.0 -  RELEASE  -


 With contributions from (in alphabetic order):
   Daniel Aravena         : Magnetic Suceptibility
   Michael Atanasov       : Ab Initio Ligand Field Theory (pilot matlab implementation)
   Alexander A. Auer      : GIAO ZORA, VPT2
   Ute Becker             : Parallelization
   Giovanni Bistoni       : ED, misc. LED, open-shell LED, HFLED
   Martin Brehm           : Molecular dynamics
   Dmytro Bykov           : SCF Hessian
   Vijay G. Chilkuri      : MRCI spin determinant printing, contributions to CSF-ICE
   Dipayan Datta          : RHF DLPNO-CCSD density
   Achintya Kumar Dutta   : EOM-CC, STEOM-CC
   Dmitry Ganyushin       : Spin-Orbit,Spin-Spin,Magnetic field MRCI
   Miquel Garcia          : C-PCM Hessian, Gaussian charge scheme
   Yang Guo               : DLPNO-NEVPT2, CIM, IAO-localization
   Andreas Hansen         : Spin unrestricted coupled pair/coupled cluster methods
   Benjamin Helmich-Paris : CASSCF linear response (MC-RPA)
   Lee Huntington         : MR-EOM, pCC
   Robert Izsak           : Overlap fitted RIJCOSX, COSX-SCS-MP3, EOM
   Christian Kollmar      : KDIIS, OOCD, Brueckner-CCSD(T), CCSD density
   Simone Kossmann        : Meta GGA functionals, TD-DFT gradient, OOMP2, MP2 Hessian
   Martin Krupicka        : AUTO-CI
   Lucas Lang             : DCDCAS
   Dagmar Lenk            : GEPOL surface, SMD
   Dimitrios Liakos       : Extrapolation schemes; Compound Job, initial MDCI parallelization
   Dimitrios Manganas     : Further ROCIS development; embedding schemes
   Dimitrios Pantazis     : SARC Basis sets
   Taras Petrenko         : DFT Hessian,TD-DFT gradient, ASA, ECA, R-Raman, ABS, FL, XAS/XES, NRVS
   Peter Pinski           : DLPNO-MP2, DLPNO-MP2 Gradient
   Christoph Reimann      : Effective Core Potentials
   Marius Retegan         : Local ZFS, SOC
   Christoph Riplinger    : Optimizer, TS searches, QM/MM, DLPNO-CCSD(T), (RO)-DLPNO pert. Triples
   Tobias Risthaus        : Range-separated hybrids, TD-DFT gradient, RPA, STAB
   Michael Roemelt        : Original ROCIS implementation
   Masaaki Saitow         : Open-shell DLPNO-CCSD energy and density
   Barbara Sandhoefer     : DKH picture change effects
   Avijit Sen             : IP-ROCIS
   Kantharuban Sivalingam : CASSCF convergence, NEVPT2, FIC-MRCI
   Bernardo de Souza      : ESD, SOC TD-DFT
   Georgi Stoychev        : AutoAux, RI-MP2 NMR
   Willem Van den Heuvel  : Paramagnetic NMR
   Boris Wezisla          : Elementary symmetry handling
   Frank Wennmohs         : Technical directorship


 We gratefully acknowledge several colleagues who have allowed us to
 interface, adapt or use parts of their codes:
   Stefan Grimme, W. Hujo, H. Kruse,             : VdW corrections, initial TS optimization,
                  C. Bannwarth                     DFT functionals, gCP, sTDA/sTD-DF
   Ed Valeev, F. Pavosevic, A. Kumar             : LibInt (2-el integral package), F12 methods
   Garnet Chan, S. Sharma, J. Yang, R. Olivares  : DMRG
   Ulf Ekstrom                                   : XCFun DFT Library
   Mihaly Kallay                                 : mrcc  (arbitrary order and MRCC methods)
   Andreas Klamt, Michael Diedenhofen            : otool_cosmo (COSMO solvation model)
   Jiri Pittner, Ondrej Demel                    : Mk-CCSD
   Frank Weinhold                                : gennbo (NPA and NBO analysis)
   Christopher J. Cramer and Donald G. Truhlar   : smd solvation model
   Lars Goerigk                                  : TD-DFT with DH, B97 family of functionals
   V. Asgeirsson, H. Jonsson                     : NEB implementation
   FAccTs GmbH                                   : IRC, NEB, NEB-TS, Multilevel, MM, QM/MM, CI optimization
   S Lehtola, MJT Oliveira, MAL Marques          : LibXC Library


 Your calculation uses the libint2 library for the computation of 2-el integrals
 For citations please refer to: http://libint.valeyev.net

 Your ORCA version has been built with support for libXC version: 4.2.3
 For citations please refer to: https://tddft.org/programs/libxc/

 This ORCA versions uses:
   CBLAS   interface :  Fast vector & matrix operations
   LAPACKE interface :  Fast linear algebra routines
   SCALAPACK package :  Parallel linear algebra routines


XCFun DFT library Copyright 2009-2010 Ulf Ekstrom and contributors.
See http://admol.org/xcfun for more information. This is free soft-
ware; see the source code for copying conditions. There is ABSOLUTELY
NO WARRANTY; not even for MERCHANTABILITY or FITNESS FOR A PARTICULAR
PURPOSE. For details see the documentation. Scientific users of this 
library should cite U. Ekstrom, L. Visscher, R. Bast, A. J. Thorvald-
sen and K. Ruud; J.Chem.Theor.Comp. 2010, DOI: 10.1021/ct100117s
XCFun Version 0.99 
----- Orbital basis set information -----
Your calculation utilizes the basis: def2-SVP
   F. Weigend and R. Ahlrichs, Phys. Chem. Chem. Phys. 7, 3297 (2005).

----- AuxJ basis set information -----
Your calculation utilizes the auxiliary basis: def2/J
   F. Weigend, Phys. Chem. Chem. Phys. 8, 1057 (2006).

================================================================================
                                        WARNINGS
                       Please study these warnings very carefully!
================================================================================

INFO   : Checking CIS options ...

WARNING: CIS/ROCIS methods need fully converged wavefunctions
  ===> : Setting SCFConvForced true
         You can overwrite this default with %scf ConvForced false 


INFO   : the flag for use of LIBINT has been found!

================================================================================
                                       INPUT FILE
================================================================================
NAME = xtbopt.inp
|  1> # ORCA input file
|  2> # SCF done       -175.075687936086          0.000594251768
|  3> ! CAM-B3LYP def2-SVP def2/J RIJCOSX Grid4 TightSCF
|  4> %maxcore 5000
|  5> %tddft
|  6>     Mode sTDDFT
|  7>     Ethresh 5.0
|  8>     maxcore 5000
|  9> end
| 10> 
| 11> %pal
| 12>   nprocs 6
| 13>   end
| 14> * xyz 0 1
| 15>    C        1.61493        -1.08631         1.75952
| 16>    C        2.24388        -0.43352         0.70800
| 17>    N        2.19119         0.87435         0.55459
| 18>    C        1.50232         1.57455         1.45857
| 19>    N        0.86847         1.03866         2.50349
| 20>    C        0.92616        -0.26999         2.64662
| 21>    C        1.43907         3.02373         1.29183
| 22>    C        2.07457         3.62671         0.20066
| 23>    C        2.00161         4.99106         0.05945
| 24>    C        1.30374         5.77156         0.99736
| 25>    C        0.67307         5.17606         2.08037
| 26>    C        0.74453         3.80382         2.21951
| 27>    C        1.39399         7.16118         0.59629
| 28>    C        2.14108         7.23697        -0.59114
| 29>    C        2.59753         5.86244        -1.02174
| 30>    C        2.04572         5.49391        -2.41085
| 31>    C        0.52562         5.57315        -2.48167
| 32>    C        4.13426         5.75929        -1.03423
| 33>    C        4.76166         6.11335         0.30856
| 34>    C        2.37062         8.44541        -1.20197
| 35>    C        1.85793         9.61881        -0.63172
| 36>    C        1.13025         9.52711         0.56109
| 37>    C        0.89017         8.31476         1.17716
| 38>    C        2.05052        10.92641        -1.22763
| 39>    C        2.53747        11.18322        -2.44870
| 40>    C        2.74629        12.52968        -2.97250
| 41>    C        2.47838        12.89672        -4.29826
| 42>    N        1.87583        12.17550        -5.31463
| 43>    C        0.90716        11.12714        -5.07217
| 44>    C       -0.51584        11.57143        -5.40289
| 45>    C        1.91391        12.94699        -6.46259
| 46>    C        2.48923        14.20496        -6.16673
| 47>    C        2.86152        14.16813        -4.78191
| 48>    C        3.45191        15.10579        -3.94657
| 49>    C        3.65859        14.76595        -2.62460
| 50>    C        3.31812        13.50399        -2.15647
| 51>    C        2.56685        15.20446        -7.12535
| 52>    C        2.04431        14.95262        -8.38028
| 53>    C        1.51119        13.71055        -8.68584
| 54>    C        1.48045        12.65842        -7.76637
| 55>    C        1.07695        11.34793        -8.22869
| 56>    C        1.74267        10.20842        -7.92534
| 57>    C        1.40295         8.90051        -8.35748
| 58>    C        0.19004         8.45490        -8.80773
| 59>    C       -0.09692         7.13105        -9.23689
| 60>    C       -1.39934         6.90751        -9.55803
| 61>    C       -2.23320         8.03627        -9.39539
| 62>    S       -1.28801         9.40912        -8.85231
| 63>    C       -3.59442         8.12869        -9.59783
| 64>    C       -4.47738         7.13378       -10.07479
| 65>    C       -5.77620         7.53329       -10.13606
| 66>    C       -6.01131         8.86578        -9.70566
| 67>    S       -4.47930         9.59583        -9.23959
| 68>    C       -7.24097         9.46504        -9.64269
| 69>    C       -7.58568        10.75994        -9.19594
| 70>    C       -8.89332        11.24221        -9.11607
| 71>    C       -8.86594        12.56384        -8.60108
| 72>    C       -9.86716        13.46224        -8.31551
| 73>    C       -9.49477        14.71352        -7.79109
| 74>    C      -10.24870        15.80718        -7.39852
| 75>    C       -9.36970        16.83695        -6.92843
| 76>    C       -8.07310        16.37347        -7.03424
| 77>    C       -8.09860        15.04575        -7.56746
| 78>    C       -7.09917        14.15609        -7.85040
| 79>    C       -7.47097        12.89592        -8.36929
| 80>    C       -6.71032        11.80313        -8.73137
| 81>    C       -9.74961        18.13495        -6.42621
| 82>    C      -10.99581        18.58277        -6.29736
| 83>    H        1.65908        -2.15596         1.87935
| 84>    H        2.81146        -0.97384        -0.04066
| 85>    H        0.40065        -0.67403         3.50391
| 86>    H        2.60441         3.00387        -0.50290
| 87>    H        0.13579         5.77347         2.80196
| 88>    H        0.26562         3.30616         3.04804
| 89>    H        2.36758         4.47974        -2.65595
| 90>    H        2.47872         6.17097        -3.15085
| 91>    H        0.07371         4.89108        -1.76503
| 92>    H        0.18164         5.30416        -3.47799
| 93>    H        0.18222         6.58132        -2.25918
| 94>    H        4.52464         6.42885        -1.80405
| 95>    H        4.41174         4.73849        -1.30500
| 96>    H        4.51824         7.13589         0.58891
| 97>    H        5.84388         6.01975         0.25243
| 98>    H        4.39842         5.44784         1.08849
| 99>    H        2.95201         8.49333        -2.11025
|100>    H        0.74167        10.43393         1.00327
|101>    H        0.32125         8.26907         2.09392
|102>    H        1.72070        11.76071        -0.62038
|103>    H        2.84306        10.37536        -3.10127
|104>    H        0.95611        10.87718        -4.01158
|105>    H        1.15420        10.23392        -5.65487
|106>    H       -0.74806        12.50284        -4.89063
|107>    H       -1.21746        10.80791        -5.07722
|108>    H       -0.64325        11.71820        -6.47200
|109>    H        3.74237        16.07302        -4.32706
|110>    H        4.11213        15.47531        -1.94844
|111>    H        3.54204        13.24420        -1.13226
|112>    H        3.01130        16.15863        -6.88719
|113>    H        2.06660        15.72095        -9.13872
|114>    H        1.14690        13.52203        -9.68557
|115>    H        0.27910        11.32348        -8.95852
|116>    H        2.65942        10.29124        -7.35262
|117>    H        2.18260         8.15163        -8.29032
|118>    H        0.67750         6.38554        -9.28817
|119>    H       -1.78692         5.96033        -9.88879
|120>    H       -4.12983         6.15657       -10.35904
|121>    H       -6.58632         6.90975       -10.47251
|122>    H       -8.07380         8.84957        -9.96366
|123>    H       -9.77959        10.69997        -9.39071
|124>    H      -10.90850        13.22368        -8.48124
|125>    H      -11.32036        15.87685        -7.43834
|126>    H       -7.18253        16.91064        -6.76261
|127>    H       -6.05713        14.39149        -7.68456
|128>    H       -5.63960        11.74041        -8.67759
|129>    H       -8.92115        18.76989        -6.13578
|130>    H      -11.85119        17.98768        -6.56769
|131>    H      -11.20436        19.56467        -5.90901
|132> *
|133> 
|134>                          ****END OF INPUT****
================================================================================

                       ****************************
                       * Single Point Calculation *
                       ****************************

---------------------------------
CARTESIAN COORDINATES (ANGSTROEM)
---------------------------------
  C      1.614930   -1.086310    1.759520
  C      2.243880   -0.433520    0.708000
  N      2.191190    0.874350    0.554590
  C      1.502320    1.574550    1.458570
  N      0.868470    1.038660    2.503490
  C      0.926160   -0.269990    2.646620
  C      1.439070    3.023730    1.291830
  C      2.074570    3.626710    0.200660
  C      2.001610    4.991060    0.059450
  C      1.303740    5.771560    0.997360
  C      0.673070    5.176060    2.080370
  C      0.744530    3.803820    2.219510
  C      1.393990    7.161180    0.596290
  C      2.141080    7.236970   -0.591140
  C      2.597530    5.862440   -1.021740
  C      2.045720    5.493910   -2.410850
  C      0.525620    5.573150   -2.481670
  C      4.134260    5.759290   -1.034230
  C      4.761660    6.113350    0.308560
  C      2.370620    8.445410   -1.201970
  C      1.857930    9.618810   -0.631720
  C      1.130250    9.527110    0.561090
  C      0.890170    8.314760    1.177160
  C      2.050520   10.926410   -1.227630
  C      2.537470   11.183220   -2.448700
  C      2.746290   12.529680   -2.972500
  C      2.478380   12.896720   -4.298260
  N      1.875830   12.175500   -5.314630
  C      0.907160   11.127140   -5.072170
  C     -0.515840   11.571430   -5.402890
  C      1.913910   12.946990   -6.462590
  C      2.489230   14.204960   -6.166730
  C      2.861520   14.168130   -4.781910
  C      3.451910   15.105790   -3.946570
  C      3.658590   14.765950   -2.624600
  C      3.318120   13.503990   -2.156470
  C      2.566850   15.204460   -7.125350
  C      2.044310   14.952620   -8.380280
  C      1.511190   13.710550   -8.685840
  C      1.480450   12.658420   -7.766370
  C      1.076950   11.347930   -8.228690
  C      1.742670   10.208420   -7.925340
  C      1.402950    8.900510   -8.357480
  C      0.190040    8.454900   -8.807730
  C     -0.096920    7.131050   -9.236890
  C     -1.399340    6.907510   -9.558030
  C     -2.233200    8.036270   -9.395390
  S     -1.288010    9.409120   -8.852310
  C     -3.594420    8.128690   -9.597830
  C     -4.477380    7.133780  -10.074790
  C     -5.776200    7.533290  -10.136060
  C     -6.011310    8.865780   -9.705660
  S     -4.479300    9.595830   -9.239590
  C     -7.240970    9.465040   -9.642690
  C     -7.585680   10.759940   -9.195940
  C     -8.893320   11.242210   -9.116070
  C     -8.865940   12.563840   -8.601080
  C     -9.867160   13.462240   -8.315510
  C     -9.494770   14.713520   -7.791090
  C    -10.248700   15.807180   -7.398520
  C     -9.369700   16.836950   -6.928430
  C     -8.073100   16.373470   -7.034240
  C     -8.098600   15.045750   -7.567460
  C     -7.099170   14.156090   -7.850400
  C     -7.470970   12.895920   -8.369290
  C     -6.710320   11.803130   -8.731370
  C     -9.749610   18.134950   -6.426210
  C    -10.995810   18.582770   -6.297360
  H      1.659080   -2.155960    1.879350
  H      2.811460   -0.973840   -0.040660
  H      0.400650   -0.674030    3.503910
  H      2.604410    3.003870   -0.502900
  H      0.135790    5.773470    2.801960
  H      0.265620    3.306160    3.048040
  H      2.367580    4.479740   -2.655950
  H      2.478720    6.170970   -3.150850
  H      0.073710    4.891080   -1.765030
  H      0.181640    5.304160   -3.477990
  H      0.182220    6.581320   -2.259180
  H      4.524640    6.428850   -1.804050
  H      4.411740    4.738490   -1.305000
  H      4.518240    7.135890    0.588910
  H      5.843880    6.019750    0.252430
  H      4.398420    5.447840    1.088490
  H      2.952010    8.493330   -2.110250
  H      0.741670   10.433930    1.003270
  H      0.321250    8.269070    2.093920
  H      1.720700   11.760710   -0.620380
  H      2.843060   10.375360   -3.101270
  H      0.956110   10.877180   -4.011580
  H      1.154200   10.233920   -5.654870
  H     -0.748060   12.502840   -4.890630
  H     -1.217460   10.807910   -5.077220
  H     -0.643250   11.718200   -6.472000
  H      3.742370   16.073020   -4.327060
  H      4.112130   15.475310   -1.948440
  H      3.542040   13.244200   -1.132260
  H      3.011300   16.158630   -6.887190
  H      2.066600   15.720950   -9.138720
  H      1.146900   13.522030   -9.685570
  H      0.279100   11.323480   -8.958520
  H      2.659420   10.291240   -7.352620
  H      2.182600    8.151630   -8.290320
  H      0.677500    6.385540   -9.288170
  H     -1.786920    5.960330   -9.888790
  H     -4.129830    6.156570  -10.359040
  H     -6.586320    6.909750  -10.472510
  H     -8.073800    8.849570   -9.963660
  H     -9.779590   10.699970   -9.390710
  H    -10.908500   13.223680   -8.481240
  H    -11.320360   15.876850   -7.438340
  H     -7.182530   16.910640   -6.762610
  H     -6.057130   14.391490   -7.684560
  H     -5.639600   11.740410   -8.677590
  H     -8.921150   18.769890   -6.135780
  H    -11.851190   17.987680   -6.567690
  H    -11.204360   19.564670   -5.909010

----------------------------
CARTESIAN COORDINATES (A.U.)
----------------------------
  NO LB      ZA    FRAG     MASS         X           Y           Z
   0 C     6.0000    0    12.011    3.051775   -2.052828    3.325011
   1 C     6.0000    0    12.011    4.240319   -0.819234    1.337926
   2 N     7.0000    0    14.007    4.140749    1.652282    1.048023
   3 C     6.0000    0    12.011    2.838973    2.975468    2.756298
   4 N     7.0000    0    14.007    1.641170    1.962783    4.730910
   5 C     6.0000    0    12.011    1.750189   -0.510207    5.001387
   6 C     6.0000    0    12.011    2.719448    5.714022    2.441205
   7 C     6.0000    0    12.011    3.920369    6.853489    0.379192
   8 C     6.0000    0    12.011    3.782495    9.431737    0.112344
   9 C     6.0000    0    12.011    2.463712   10.906668    1.884737
  10 C     6.0000    0    12.011    1.271918    9.781336    3.931330
  11 C     6.0000    0    12.011    1.406958    7.188178    4.194266
  12 C     6.0000    0    12.011    2.634259   13.532669    1.126825
  13 C     6.0000    0    12.011    4.046055   13.675891   -1.117093
  14 C     6.0000    0    12.011    4.908620   11.078406   -1.930809
  15 C     6.0000    0    12.011    3.865851   10.381985   -4.555846
  16 C     6.0000    0    12.011    0.993278   10.531727   -4.689677
  17 C     6.0000    0    12.011    7.812619   10.883481   -1.954411
  18 C     6.0000    0    12.011    8.998233   11.552557    0.583094
  19 C     6.0000    0    12.011    4.479823   15.959512   -2.271394
  20 C     6.0000    0    12.011    3.510979   18.176917   -1.193778
  21 C     6.0000    0    12.011    2.135863   18.003629    1.060306
  22 C     6.0000    0    12.011    1.682178   15.712619    2.224510
  23 C     6.0000    0    12.011    3.874921   20.647923   -2.319884
  24 C     6.0000    0    12.011    4.795123   21.133223   -4.627372
  25 C     6.0000    0    12.011    5.189736   23.677664   -5.617211
  26 C     6.0000    0    12.011    4.683459   24.371269   -8.122534
  27 N     7.0000    0    14.007    3.544805   23.008361  -10.043195
  28 C     6.0000    0    12.011    1.714284   21.027247   -9.585012
  29 C     6.0000    0    12.011   -0.974796   21.866834  -10.209982
  30 C     6.0000    0    12.011    3.616766   24.466265  -12.212525
  31 C     6.0000    0    12.011    4.703963   26.843484  -11.653431
  32 C     6.0000    0    12.011    5.407489   26.773886   -9.036500
  33 C     6.0000    0    12.011    6.523165   28.545806   -7.457936
  34 C     6.0000    0    12.011    6.913733   27.903602   -4.959775
  35 C     6.0000    0    12.011    6.270338   25.518843   -4.075138
  36 C     6.0000    0    12.011    4.850644   28.732265  -13.464960
  37 C     6.0000    0    12.011    3.863186   28.256357  -15.836434
  38 C     6.0000    0    12.011    2.855735   25.909185  -16.413859
  39 C     6.0000    0    12.011    2.797645   23.920947  -14.676312
  40 C     6.0000    0    12.011    2.035141   21.444480  -15.549971
  41 C     6.0000    0    12.011    3.293169   19.291118  -14.976722
  42 C     6.0000    0    12.011    2.651191   16.819526  -15.793348
  43 C     6.0000    0    12.011    0.359124   15.977445  -16.644198
  44 C     6.0000    0    12.011   -0.183152   13.475732  -17.455192
  45 C     6.0000    0    12.011   -2.644369   13.053302  -18.062059
  46 C     6.0000    0    12.011   -4.220136   15.186349  -17.754714
  47 S    16.0000    0    32.060   -2.433986   17.780660  -16.728442
  48 C     6.0000    0    12.011   -6.792469   15.360998  -18.137270
  49 C     6.0000    0    12.011   -8.461022   13.480890  -19.038594
  50 C     6.0000    0    12.011  -10.915436   14.235855  -19.154377
  51 C     6.0000    0    12.011  -11.359730   16.753896  -18.341039
  52 S    16.0000    0    32.060   -8.464650   18.133491  -17.460295
  53 C     6.0000    0    12.011  -13.683450   17.886333  -18.222043
  54 C     6.0000    0    12.011  -14.334858   20.333340  -17.377808
  55 C     6.0000    0    12.011  -16.805939   21.244698  -17.226876
  56 C     6.0000    0    12.011  -16.754199   23.742217  -16.253686
  57 C     6.0000    0    12.011  -18.646230   25.439947  -15.714037
  58 C     6.0000    0    12.011  -17.942515   27.804523  -14.723026
  59 C     6.0000    0    12.011  -19.367236   29.871241  -13.981177
  60 C     6.0000    0    12.011  -17.706167   31.817224  -13.092835
  61 C     6.0000    0    12.011  -15.255948   30.941374  -13.292787
  62 C     6.0000    0    12.011  -15.304136   28.432347  -14.300427
  63 C     6.0000    0    12.011  -13.415487   26.751133  -14.835106
  64 C     6.0000    0    12.011  -14.118087   24.369757  -15.815666
  65 C     6.0000    0    12.011  -12.680667   22.304683  -16.499898
  66 C     6.0000    0    12.011  -18.424093   34.270089  -12.143777
  67 C     6.0000    0    12.011  -20.779070   35.116346  -11.900286
  68 H     1.0000    0     1.008    3.135207   -4.074174    3.551457
  69 H     1.0000    0     1.008    5.312889   -1.840291   -0.076836
  70 H     1.0000    0     1.008    0.757119   -1.273732    6.621430
  71 H     1.0000    0     1.008    4.921622    5.676492   -0.950343
  72 H     1.0000    0     1.008    0.256606   10.910277    5.294937
  73 H     1.0000    0     1.008    0.501949    6.247737    5.759961
  74 H     1.0000    0     1.008    4.474078    8.465482   -5.019018
  75 H     1.0000    0     1.008    4.684102   11.661443   -5.954244
  76 H     1.0000    0     1.008    0.139292    9.242802   -3.335423
  77 H     1.0000    0     1.008    0.343250   10.023410   -6.572449
  78 H     1.0000    0     1.008    0.344346   12.436892   -4.269231
  79 H     1.0000    0     1.008    8.550330   12.148766   -3.409160
  80 H     1.0000    0     1.008    8.336980    8.954448   -2.466093
  81 H     1.0000    0     1.008    8.538236   13.484878    1.112879
  82 H     1.0000    0     1.008   11.043333   11.375679    0.477024
  83 H     1.0000    0     1.008    8.311809   10.294926    2.056948
  84 H     1.0000    0     1.008    5.578490   16.050068   -3.987795
  85 H     1.0000    0     1.008    1.401553   19.717270    1.895906
  86 H     1.0000    0     1.008    0.607075   15.626278    3.956935
  87 H     1.0000    0     1.008    3.251652   22.224521   -1.172348
  88 H     1.0000    0     1.008    5.372605   19.606589   -5.860551
  89 H     1.0000    0     1.008    1.806786   20.554891   -7.580788
  90 H     1.0000    0     1.008    2.181122   19.339306  -10.686156
  91 H     1.0000    0     1.008   -1.413629   23.626943   -9.241951
  92 H     1.0000    0     1.008   -2.300666   20.423990   -9.594555
  93 H     1.0000    0     1.008   -1.215566   22.144189  -12.230308
  94 H     1.0000    0     1.008    7.072054   30.373606   -8.176958
  95 H     1.0000    0     1.008    7.770800   29.244098   -3.682018
  96 H     1.0000    0     1.008    6.693486   25.027911   -2.139661
  97 H     1.0000    0     1.008    5.690532   30.535385  -13.014903
  98 H     1.0000    0     1.008    3.905308   29.708290  -17.269678
  99 H     1.0000    0     1.008    2.167327   25.552933  -18.303075
 100 H     1.0000    0     1.008    0.527423   21.398276  -16.929149
 101 H     1.0000    0     1.008    5.025575   19.447625  -13.894438
 102 H     1.0000    0     1.008    4.124516   15.404348  -15.666434
 103 H     1.0000    0     1.008    1.280289   12.066922  -17.552098
 104 H     1.0000    0     1.008   -3.376789   11.263391  -18.687105
 105 H     1.0000    0     1.008   -7.804248   11.634231  -19.575749
 106 H     1.0000    0     1.008  -12.446341   13.057535  -19.790176
 107 H     1.0000    0     1.008  -15.257271   16.723264  -18.828589
 108 H     1.0000    0     1.008  -18.480747   20.220013  -17.745870
 109 H     1.0000    0     1.008  -20.614078   24.989134  -16.027221
 110 H     1.0000    0     1.008  -21.392380   30.002898  -14.056425
 111 H     1.0000    0     1.008  -13.573015   31.956478  -12.779481
 112 H     1.0000    0     1.008  -11.446317   27.195975  -14.521714
 113 H     1.0000    0     1.008  -10.657300   22.186160  -16.398269
 114 H     1.0000    0     1.008  -16.858530   35.469952  -11.594944
 115 H     1.0000    0     1.008  -22.395503   33.991789  -12.411135
 116 H     1.0000    0     1.008  -21.173172   36.971868  -11.166411

--------------------------------
INTERNAL COORDINATES (ANGSTROEM)
--------------------------------
 C      0   0   0     0.000000000000     0.00000000     0.00000000
 C      1   0   0     1.388310915105     0.00000000     0.00000000
 N      2   1   0     1.317890284166   122.45816849     0.00000000
 C      3   2   1     1.334916385883   117.53839518     0.08355272
 N      4   3   2     1.334466830236   124.38299485     0.10788261
 C      5   4   3     1.317717403505   117.58536957   359.81225353
 C      4   3   2     1.460111455506   117.75051622   180.09871585
 C      7   4   3     1.399320227575   119.80561708     0.83522331
 C      8   7   4     1.373577208678   118.95071640   179.87265468
 C      9   8   7     1.405659259920   120.61729949     0.20066857
 C     10   9   8     1.387542993568   120.54073650   359.81335573
 C     11  10   9     1.381126022056   118.78540281     0.03345754
 C     10   9   8     1.449153529409   108.47311209   180.03933210
 C     13  10   9     1.404947542473   108.58783995     0.28520958
 C     14  13  10     1.510991622545   110.63544053   359.35631457
 C     15  14  13     1.539459395080   111.50821694   119.58814247
 C     16  15  14     1.523810506592   112.77164224   303.80832939
 C     15  14  13     1.540238622909   111.38487946   242.28409343
 C     18  15  14     1.523835367650   112.83510274    56.02176773
 C     14  13  10     1.373364166600   120.81395031   179.35561691
 C     20  14  13     1.401750212627   119.63699727     0.24449641
 C     21  20  14     1.400258107814   118.80271291     0.57361569
 C     22  21  20     1.380931994633   121.86188281   359.09375740
 C     21  20  14     1.449833575346   122.62794388   180.57798968
 C     24  21  20     1.339434068366   126.57764107    10.66427751
 C     25  24  21     1.459769421518   123.77745095   182.05692129
 C     26  25  24     1.401475546451   123.61839871   219.34663030
 N     27  26  25     1.384280595761   129.89000226     6.80304352
 C     28  27  26     1.447814597972   123.06089009    27.57242188
 C     29  28  27     1.526989954944   112.11955884   105.51270179
 C     28  27  26     1.383639789866   107.85910064   183.51206113
 C     31  28  27     1.414572289740   109.48253889   357.15209784
 C     27  26  25     1.413222194207   120.49954626   188.07517781
 C     33  27  26     1.387645323309   121.14750336   356.90444198
 C     34  33  27     1.380511690968   118.28198938     0.04655551
 C     35  34  33     1.388383433854   120.65838717     1.81248183
 C     32  31  28     1.387075130914   121.26659034   184.24670255
 C     37  32  31     1.382505241256   118.35422351     1.14836996
 C     38  37  32     1.385756736552   120.58631759   357.17056253
 C     39  38  37     1.397622111087   122.55723818   359.49720356
 C     40  39  38     1.447043908283   118.53560759   188.47464773
 C     41  40  39     1.354137135227   123.60299104   133.71526929
 C     42  41  40     1.418725916483   126.14409146   180.58919553
 C     43  42  41     1.368372757219   127.78409012   339.24929638
 C     44  43  42     1.420951501530   125.57579098   179.65371883
 C     45  44  43     1.359926059608   114.70047608   175.88710507
 C     46  45  44     1.412753838006   114.00142670   359.55472032
 S     47  46  45     1.753008027648   110.06777207     1.32982958
 C     47  46  45     1.379290867946   128.25361493   181.93736456
 C     49  47  46     1.413136621598   128.24313641   356.86614309
 C     50  49  47     1.360255727942   113.89278790   178.70882878
 C     51  50  49     1.419876921497   114.83955104   359.65207077
 S     49  47  46     1.750385183781   121.67061116   175.82761943
 C     52  51  50     1.369358055477   124.98199795   182.07698379
 C     54  52  51     1.412507188159   129.41058591   177.92672304
 C     55  54  52     1.396025049704   124.28999380   183.31484822
 C     56  55  54     1.418686089803   108.93627635   178.75138121
 C     57  56  55     1.375177906054   132.06196246   180.99794285
 C     58  57  56     1.406908769928   117.75724924   179.36065356
 C     59  58  57     1.385140370287   131.59031040   180.59489499
 C     60  59  58     1.433196379077   109.05331186   179.85849716
 C     61  60  59     1.381007250705   108.03257377     0.04920726
 C     62  61  60     1.431018594149   108.85672131   359.85733115
 C     63  62  61     1.367629439614   131.88371729   180.61581151
 C     64  63  62     1.412625393018   117.64303207   179.46450055
 C     65  64  63     1.379811702009   131.13291566   180.83604023
 C     61  60  59     1.442692114243   126.80731506   180.17224598
 C     67  61  60     1.330473417585   125.67571414     1.14184804
 H      1   2   3     1.077246292126   122.17952582   179.85821980
 H      2   1   3     1.083782521727   121.73832089   179.99725724
 H      6   5   4     1.083676716461   115.78364674   180.06365338
 H      8   7   4     1.078729236092   118.87173703   359.97253161
 H     11  10   9     1.079935477054   120.68005109   180.03747630
 H     12  11  10     1.078648332220   120.85160483   180.07157243
 H     16  15  14     1.091883079134   108.61710490   182.39074343
 H     16  15  14     1.092473909803   108.70998662    65.27154748
 H     17  16  15     1.087664940411   110.56337007   299.98324606
 H     17  16  15     1.087810370837   110.19103175   180.06794505
 H     17  16  15     1.088040490515   110.70307274    60.09346020
 H     18  15  14     1.092396434634   108.73634398   294.51693812
 H     18  15  14     1.091945137495   108.55132474   177.37085362
 H     19  18  15     1.087859122543   110.69291707   299.56636479
 H     19  18  15     1.087709366191   110.13171484   179.62148631
 H     19  18  15     1.087721316606   110.62121833    59.73780767
 H     20  14  13     1.079482846969   120.21908276   179.55727609
 H     22  21  20     1.081129077030   118.70225236   179.56370305
 H     23  22  21     1.079910385217   120.49481365   180.35204619
 H     24  21  20     1.083323721193   115.07100340   187.90677398
 H     25  24  21     1.082529737513   120.60347630   359.46849693
 H     29  28  27     1.090746190550   107.38242060   346.29259758
 H     29  28  27     1.094719151198   110.52984077   227.88169371
 H     30  29  28     1.088053778129   110.24247851   307.44762198
 H     30  29  28     1.086873665014   109.40753116   187.81958531
 H     30  29  28     1.086632841902   111.20197941    68.23208945
 H     34  33  27     1.079200409841   120.52292793   179.87611343
 H     35  34  33     1.079852993143   120.05136714   180.25178714
 H     36  35  34     1.080109778958   119.17691191   176.52089485
 H     37  32  31     1.079210997442   120.50569900   180.20405112
 H     38  37  32     1.079842148927   120.00894125   178.36298762
 H     39  38  37     1.080604954366   119.34451347   182.61454375
 H     41  40  39     1.081579518066   116.21596297   322.07575113
 H     42  41  40     1.084111577883   118.02025426   356.33762190
 H     43  42  41     1.083137037729   116.49673286   161.76793974
 H     45  44  43     1.076169658976   120.96218521   356.16741534
 H     46  45  44     1.075532605921   124.22920351   180.75783624
 H     50  49  47     1.075420126788   121.80515522   358.61998579
 H     51  50  49     1.076241212972   124.23949599   180.10428253
 H     54  52  51     1.084172897051   115.32541414   359.29741740
 H     56  55  54     1.074674769454   125.70044472   359.26453845
 H     58  57  56     1.081094955173   121.68836021   359.58146558
 H     60  59  58     1.074660270458   125.69461586   359.85171658
 H     62  61  60     1.074918318153   126.21281705   179.96376856
 H     64  63  62     1.081093625548   122.07281567   359.73427335
 H     66  65  64     1.073902884436   125.64423463   359.46388838
 H     67  61  60     1.083440981364   114.78538059   180.90627262
 H     68  67  61     1.076515379082   122.26733965     0.05447770
 H     68  67  61     1.076306849834   121.56720580   179.69293203

---------------------------
INTERNAL COORDINATES (A.U.)
---------------------------
 C      0   0   0     0.000000000000     0.00000000     0.00000000
 C      1   0   0     2.623527418282     0.00000000     0.00000000
 N      2   1   0     2.490451711630   122.45816849     0.00000000
 C      3   2   1     2.522626381004   117.53839518     0.08355272
 N      4   3   2     2.521776843948   124.38299485     0.10788261
 C      5   4   3     2.490125014526   117.58536957   359.81225353
 C      4   3   2     2.759210775908   117.75051622   180.09871585
 C      7   4   3     2.644332003773   119.80561708     0.83522331
 C      8   7   4     2.595684748198   118.95071640   179.87265468
 C      9   8   7     2.656311038860   120.61729949     0.20066857
 C     10   9   8     2.622076256885   120.54073650   359.81335573
 C     11  10   9     2.609949938118   118.78540281     0.03345754
 C     10   9   8     2.738503296589   108.47311209   180.03933210
 C     13  10   9     2.654966087799   108.58783995     0.28520958
 C     14  13  10     2.855360357259   110.63544053   359.35631457
 C     15  14  13     2.909156650993   111.50821694   119.58814247
 C     16  15  14     2.879584537451   112.77164224   303.80832939
 C     15  14  13     2.910629178186   111.38487946   242.28409343
 C     18  15  14     2.879631518041   112.83510274    56.02176773
 C     14  13  10     2.595282157014   120.81395031   179.35561691
 C     20  14  13     2.648924010031   119.63699727     0.24449641
 C     21  20  14     2.646104340572   118.80271291     0.57361569
 C     22  21  20     2.609583279425   121.86188281   359.09375740
 C     21  20  14     2.739788397167   122.62794388   180.57798968
 C     24  21  20     2.531163563656   126.57764107    10.66427751
 C     25  24  21     2.758564425342   123.77745095   182.05692129
 C     26  25  24     2.648404966180   123.61839871   219.34663030
 N     27  26  25     2.615911218489   129.89000226     6.80304352
 C     28  27  26     2.735973082860   123.06089009    27.57242188
 C     29  28  27     2.885592824093   112.11955884   105.51270179
 C     28  27  26     2.614700270843   107.85910064   183.51206113
 C     31  28  27     2.673154224242   109.48253889   357.15209784
 C     27  26  25     2.670602913431   120.49954626   188.07517781
 C     33  27  26     2.622269632070   121.14750336   356.90444198
 C     34  33  27     2.608789020607   118.28198938     0.04655551
 C     35  34  33     2.623664458857   120.65838717     1.81248183
 C     32  31  28     2.621192124600   121.26659034   184.24670255
 C     37  32  31     2.612556284684   118.35422351     1.14836996
 C     38  37  32     2.618700720320   120.58631759   357.17056253
 C     39  38  37     2.641123028668   122.55723818   359.49720356
 C     40  39  38     2.734516690415   118.53560759   188.47464773
 C     41  40  39     2.558948333351   123.60299104   133.71526929
 C     42  41  40     2.681003441249   126.14409146   180.58919553
 C     43  42  41     2.585849760263   127.78409012   339.24929638
 C     44  43  42     2.685209187476   125.57579098   179.65371883
 C     45  44  43     2.569887815041   114.70047608   175.88710507
 C     46  45  44     2.669717848477   114.00142670   359.55472032
 S     47  46  45     3.312705082821   110.06777207     1.32982958
 C     47  46  45     2.606481999437   128.25361493   181.93736456
 C     49  47  46     2.670441204634   128.24313641   356.86614309
 C     50  49  47     2.570510797909   113.89278790   178.70882878
 C     51  50  49     2.683178525505   114.83955104   359.65207077
 S     49  47  46     3.307748626219   121.67061116   175.82761943
 C     52  51  50     2.587711704131   124.98199795   182.07698379
 C     54  52  51     2.669251747815   129.41058591   177.92672304
 C     55  54  52     2.638105020034   124.28999380   183.31484822
 C     56  55  54     2.680928179731   108.93627635   178.75138121
 C     57  56  55     2.598709627862   132.06196246   180.99794285
 C     58  57  56     2.658672270576   117.75724924   179.36065356
 C     59  58  57     2.617535956882   131.59031040   180.59489499
 C     60  59  58     2.708348652583   109.05331186   179.85849716
 C     61  60  59     2.609725492792   108.03257377     0.04920726
 C     62  61  60     2.704233235490   108.85672131   359.85733115
 C     63  62  61     2.584445093559   131.88371729   180.61581151
 C     64  63  62     2.669475122627   117.64303207   179.46450055
 C     65  64  63     2.607466233176   131.13291566   180.83604023
 C     61  60  59     2.726292991488   126.80731506   180.17224598
 C     67  61  60     2.514230387698   125.67571414     1.14184804
 H      1   2   3     2.035700470901   122.17952582   179.85821980
 H      2   1   3     2.048052154794   121.73832089   179.99725724
 H      6   5   4     2.047852211819   115.78364674   180.06365338
 H      8   7   4     2.038502828868   118.87173703   359.97253161
 H     11  10   9     2.040782293938   120.68005109   180.03747630
 H     12  11  10     2.038349942706   120.85160483   180.07157243
 H     16  15  14     2.063359989827   108.61710490   182.39074343
 H     16  15  14     2.064476497982   108.70998662    65.27154748
 H     17  16  15     2.055388862845   110.56337007   299.98324606
 H     17  16  15     2.055663686521   110.19103175   180.06794505
 H     17  16  15     2.056098549691   110.70307274    60.09346020
 H     18  15  14     2.064330091129   108.73634398   294.51693812
 H     18  15  14     2.063477263133   108.55132474   177.37085362
 H     19  18  15     2.055755813894   110.69291707   299.56636479
 H     19  18  15     2.055472815402   110.13171484   179.62148631
 H     19  18  15     2.055495398414   110.62121833    59.73780767
 H     20  14  13     2.039926947037   120.21908276   179.55727609
 H     22  21  20     2.043037871006   118.70225236   179.56370305
 H     23  22  21     2.040734877238   120.49481365   180.35204619
 H     24  21  20     2.047185147436   115.07100340   187.90677398
 H     25  24  21     2.045684735725   120.60347630   359.46849693
 H     29  28  27     2.061211581758   107.38242060   346.29259758
 H     29  28  27     2.068719389323   110.52984077   227.88169371
 H     30  29  28     2.056123659641   110.24247851   307.44762198
 H     30  29  28     2.053893569047   109.40753116   187.81958531
 H     30  29  28     2.053438479319   111.20197941    68.23208945
 H     34  33  27     2.039393218214   120.52292793   179.87611343
 H     35  34  33     2.040626421936   120.05136714   180.25178714
 H     36  35  34     2.041111676800   119.17691191   176.52089485
 H     37  32  31     2.039413225882   120.50569900   180.20405112
 H     38  37  32     2.040605929338   120.00894125   178.36298762
 H     39  38  37     2.042047422710   119.34451347   182.61454375
 H     41  40  39     2.043889081203   116.21596297   322.07575113
 H     42  41  40     2.048673980812   118.02025426   356.33762190
 H     43  42  41     2.046832366814   116.49673286   161.76793974
 H     45  44  43     2.033665929100   120.96218521   356.16741534
 H     46  45  44     2.032462073294   124.22920351   180.75783624
 H     50  49  47     2.032249518536   121.80515522   358.61998579
 H     51  50  49     2.033801146557   124.23949599   180.10428253
 H     54  52  51     2.048789857246   115.32541414   359.29741740
 H     56  55  54     2.030840997302   125.70044472   359.26453845
 H     58  57  56     2.042973390040   121.68836021   359.58146558
 H     60  59  58     2.030813598171   125.69461586   359.85171658
 H     62  61  60     2.031301237644   126.21281705   179.96376856
 H     64  63  62     2.042970877413   122.07281567   359.73427335
 H     66  65  64     2.029382346012   125.64423463   359.46388838
 H     67  61  60     2.047406737046   114.78538059   180.90627262
 H     68  67  61     2.034319245419   122.26733965     0.05447770
 H     68  67  61     2.033925182250   121.56720580   179.69293203

---------------------
BASIS SET INFORMATION
---------------------
There are 4 groups of distinct atoms

 Group   1 Type C   : 7s4p1d contracted to 3s2p1d pattern {511/31/1}
 Group   2 Type N   : 7s4p1d contracted to 3s2p1d pattern {511/31/1}
 Group   3 Type S   : 10s7p1d contracted to 4s3p1d pattern {5311/511/1}
 Group   4 Type H   : 4s1p contracted to 2s1p pattern {31/1}

Atom   0C    basis set group =>   1
Atom   1C    basis set group =>   1
Atom   2N    basis set group =>   2
Atom   3C    basis set group =>   1
Atom   4N    basis set group =>   2
Atom   5C    basis set group =>   1
Atom   6C    basis set group =>   1
Atom   7C    basis set group =>   1
Atom   8C    basis set group =>   1
Atom   9C    basis set group =>   1
Atom  10C    basis set group =>   1
Atom  11C    basis set group =>   1
Atom  12C    basis set group =>   1
Atom  13C    basis set group =>   1
Atom  14C    basis set group =>   1
Atom  15C    basis set group =>   1
Atom  16C    basis set group =>   1
Atom  17C    basis set group =>   1
Atom  18C    basis set group =>   1
Atom  19C    basis set group =>   1
Atom  20C    basis set group =>   1
Atom  21C    basis set group =>   1
Atom  22C    basis set group =>   1
Atom  23C    basis set group =>   1
Atom  24C    basis set group =>   1
Atom  25C    basis set group =>   1
Atom  26C    basis set group =>   1
Atom  27N    basis set group =>   2
Atom  28C    basis set group =>   1
Atom  29C    basis set group =>   1
Atom  30C    basis set group =>   1
Atom  31C    basis set group =>   1
Atom  32C    basis set group =>   1
Atom  33C    basis set group =>   1
Atom  34C    basis set group =>   1
Atom  35C    basis set group =>   1
Atom  36C    basis set group =>   1
Atom  37C    basis set group =>   1
Atom  38C    basis set group =>   1
Atom  39C    basis set group =>   1
Atom  40C    basis set group =>   1
Atom  41C    basis set group =>   1
Atom  42C    basis set group =>   1
Atom  43C    basis set group =>   1
Atom  44C    basis set group =>   1
Atom  45C    basis set group =>   1
Atom  46C    basis set group =>   1
Atom  47S    basis set group =>   3
Atom  48C    basis set group =>   1
Atom  49C    basis set group =>   1
Atom  50C    basis set group =>   1
Atom  51C    basis set group =>   1
Atom  52S    basis set group =>   3
Atom  53C    basis set group =>   1
Atom  54C    basis set group =>   1
Atom  55C    basis set group =>   1
Atom  56C    basis set group =>   1
Atom  57C    basis set group =>   1
Atom  58C    basis set group =>   1
Atom  59C    basis set group =>   1
Atom  60C    basis set group =>   1
Atom  61C    basis set group =>   1
Atom  62C    basis set group =>   1
Atom  63C    basis set group =>   1
Atom  64C    basis set group =>   1
Atom  65C    basis set group =>   1
Atom  66C    basis set group =>   1
Atom  67C    basis set group =>   1
Atom  68H    basis set group =>   4
Atom  69H    basis set group =>   4
Atom  70H    basis set group =>   4
Atom  71H    basis set group =>   4
Atom  72H    basis set group =>   4
Atom  73H    basis set group =>   4
Atom  74H    basis set group =>   4
Atom  75H    basis set group =>   4
Atom  76H    basis set group =>   4
Atom  77H    basis set group =>   4
Atom  78H    basis set group =>   4
Atom  79H    basis set group =>   4
Atom  80H    basis set group =>   4
Atom  81H    basis set group =>   4
Atom  82H    basis set group =>   4
Atom  83H    basis set group =>   4
Atom  84H    basis set group =>   4
Atom  85H    basis set group =>   4
Atom  86H    basis set group =>   4
Atom  87H    basis set group =>   4
Atom  88H    basis set group =>   4
Atom  89H    basis set group =>   4
Atom  90H    basis set group =>   4
Atom  91H    basis set group =>   4
Atom  92H    basis set group =>   4
Atom  93H    basis set group =>   4
Atom  94H    basis set group =>   4
Atom  95H    basis set group =>   4
Atom  96H    basis set group =>   4
Atom  97H    basis set group =>   4
Atom  98H    basis set group =>   4
Atom  99H    basis set group =>   4
Atom 100H    basis set group =>   4
Atom 101H    basis set group =>   4
Atom 102H    basis set group =>   4
Atom 103H    basis set group =>   4
Atom 104H    basis set group =>   4
Atom 105H    basis set group =>   4
Atom 106H    basis set group =>   4
Atom 107H    basis set group =>   4
Atom 108H    basis set group =>   4
Atom 109H    basis set group =>   4
Atom 110H    basis set group =>   4
Atom 111H    basis set group =>   4
Atom 112H    basis set group =>   4
Atom 113H    basis set group =>   4
Atom 114H    basis set group =>   4
Atom 115H    basis set group =>   4
Atom 116H    basis set group =>   4
---------------------------------
AUXILIARY/J BASIS SET INFORMATION
---------------------------------
There are 4 groups of distinct atoms

 Group   1 Type C   : 12s5p4d2f1g contracted to 6s4p3d1f1g pattern {711111/2111/211/2/1}
 Group   2 Type N   : 12s5p4d2f1g contracted to 6s4p3d1f1g pattern {711111/2111/211/2/1}
 Group   3 Type S   : 14s5p5d2f1g contracted to 8s4p3d1f1g pattern {71111111/2111/311/2/1}
 Group   4 Type H   : 5s2p1d contracted to 3s1p1d pattern {311/2/1}

Atom   0C    basis set group =>   1
Atom   1C    basis set group =>   1
Atom   2N    basis set group =>   2
Atom   3C    basis set group =>   1
Atom   4N    basis set group =>   2
Atom   5C    basis set group =>   1
Atom   6C    basis set group =>   1
Atom   7C    basis set group =>   1
Atom   8C    basis set group =>   1
Atom   9C    basis set group =>   1
Atom  10C    basis set group =>   1
Atom  11C    basis set group =>   1
Atom  12C    basis set group =>   1
Atom  13C    basis set group =>   1
Atom  14C    basis set group =>   1
Atom  15C    basis set group =>   1
Atom  16C    basis set group =>   1
Atom  17C    basis set group =>   1
Atom  18C    basis set group =>   1
Atom  19C    basis set group =>   1
Atom  20C    basis set group =>   1
Atom  21C    basis set group =>   1
Atom  22C    basis set group =>   1
Atom  23C    basis set group =>   1
Atom  24C    basis set group =>   1
Atom  25C    basis set group =>   1
Atom  26C    basis set group =>   1
Atom  27N    basis set group =>   2
Atom  28C    basis set group =>   1
Atom  29C    basis set group =>   1
Atom  30C    basis set group =>   1
Atom  31C    basis set group =>   1
Atom  32C    basis set group =>   1
Atom  33C    basis set group =>   1
Atom  34C    basis set group =>   1
Atom  35C    basis set group =>   1
Atom  36C    basis set group =>   1
Atom  37C    basis set group =>   1
Atom  38C    basis set group =>   1
Atom  39C    basis set group =>   1
Atom  40C    basis set group =>   1
Atom  41C    basis set group =>   1
Atom  42C    basis set group =>   1
Atom  43C    basis set group =>   1
Atom  44C    basis set group =>   1
Atom  45C    basis set group =>   1
Atom  46C    basis set group =>   1
Atom  47S    basis set group =>   3
Atom  48C    basis set group =>   1
Atom  49C    basis set group =>   1
Atom  50C    basis set group =>   1
Atom  51C    basis set group =>   1
Atom  52S    basis set group =>   3
Atom  53C    basis set group =>   1
Atom  54C    basis set group =>   1
Atom  55C    basis set group =>   1
Atom  56C    basis set group =>   1
Atom  57C    basis set group =>   1
Atom  58C    basis set group =>   1
Atom  59C    basis set group =>   1
Atom  60C    basis set group =>   1
Atom  61C    basis set group =>   1
Atom  62C    basis set group =>   1
Atom  63C    basis set group =>   1
Atom  64C    basis set group =>   1
Atom  65C    basis set group =>   1
Atom  66C    basis set group =>   1
Atom  67C    basis set group =>   1
Atom  68H    basis set group =>   4
Atom  69H    basis set group =>   4
Atom  70H    basis set group =>   4
Atom  71H    basis set group =>   4
Atom  72H    basis set group =>   4
Atom  73H    basis set group =>   4
Atom  74H    basis set group =>   4
Atom  75H    basis set group =>   4
Atom  76H    basis set group =>   4
Atom  77H    basis set group =>   4
Atom  78H    basis set group =>   4
Atom  79H    basis set group =>   4
Atom  80H    basis set group =>   4
Atom  81H    basis set group =>   4
Atom  82H    basis set group =>   4
Atom  83H    basis set group =>   4
Atom  84H    basis set group =>   4
Atom  85H    basis set group =>   4
Atom  86H    basis set group =>   4
Atom  87H    basis set group =>   4
Atom  88H    basis set group =>   4
Atom  89H    basis set group =>   4
Atom  90H    basis set group =>   4
Atom  91H    basis set group =>   4
Atom  92H    basis set group =>   4
Atom  93H    basis set group =>   4
Atom  94H    basis set group =>   4
Atom  95H    basis set group =>   4
Atom  96H    basis set group =>   4
Atom  97H    basis set group =>   4
Atom  98H    basis set group =>   4
Atom  99H    basis set group =>   4
Atom 100H    basis set group =>   4
Atom 101H    basis set group =>   4
Atom 102H    basis set group =>   4
Atom 103H    basis set group =>   4
Atom 104H    basis set group =>   4
Atom 105H    basis set group =>   4
Atom 106H    basis set group =>   4
Atom 107H    basis set group =>   4
Atom 108H    basis set group =>   4
Atom 109H    basis set group =>   4
Atom 110H    basis set group =>   4
Atom 111H    basis set group =>   4
Atom 112H    basis set group =>   4
Atom 113H    basis set group =>   4
Atom 114H    basis set group =>   4
Atom 115H    basis set group =>   4
Atom 116H    basis set group =>   4


           ************************************************************
           *        Program running with 6 parallel MPI-processes     *
           *              working on a common directory               *
           ************************************************************
------------------------------------------------------------------------------
                           ORCA GTO INTEGRAL CALCULATION
                           -- RI-GTO INTEGRALS CHOSEN --
------------------------------------------------------------------------------

                         BASIS SET STATISTICS AND STARTUP INFO

Gaussian basis set:
 # of primitive gaussian shells          ... 1073
 # of primitive gaussian functions       ... 1999
 # of contracted shells                  ...  559
 # of contracted basis functions         ... 1205
 Highest angular momentum                ...    2
 Maximum contraction depth               ...    5
Auxiliary gaussian basis set:
 # of primitive gaussian shells          ... 2030
 # of primitive gaussian functions       ... 5558
 # of contracted shells                  ... 1269
 # of contracted aux-basis functions     ... 3875
 Highest angular momentum                ...    4
 Maximum contraction depth               ...    7
Ratio of auxiliary to basis functions    ...  3.22
Integral package used                  ... LIBINT
 One Electron integrals                  ... done
 Ordering auxiliary basis shells         ... done
 Integral threshhold             Thresh  ...  2.500e-11
 Primitive cut-off               TCut    ...  2.500e-12
 Pre-screening matrix                    ... done
 Shell pair data                         ... 
 Ordering of the shell pairs             ... done (   0.009 sec) 51188 of 156520 pairs
 Determination of significant pairs      ... done (   0.000 sec)
 Creation of shell pair data             ... done (   0.008 sec)
 Storage of shell pair data              ... done (   0.009 sec)
 Shell pair data done in (   0.026 sec)
 Computing two index integrals           ... done
 Cholesky decomposition of the V-matrix  ... done


Timings:
 Total evaluation time                   ...   2.342 sec (  0.039 min)
 One electron matrix time                ...   0.631 sec (  0.011 min) = 26.9%
 Schwartz matrix evaluation time         ...   0.636 sec (  0.011 min) = 27.2%
 Two index repulsion integral time       ...   0.391 sec (  0.007 min) = 16.7%
 Cholesky decomposition of V             ...   0.643 sec (  0.011 min) = 27.5%
 Three index repulsion integral time     ...   0.000 sec (  0.000 min) =  0.0%



           ************************************************************
           *        Program running with 6 parallel MPI-processes     *
           *              working on a common directory               *
           ************************************************************
-------------------------------------------------------------------------------
                                 ORCA SCF
-------------------------------------------------------------------------------

------------
SCF SETTINGS
------------
Hamiltonian:
 Density Functional     Method          .... DFT(GTOs)
 Exchange Functional    Exchange        .... WB88
 Correlation Functional Correlation     .... LYP
 LDA part of GGA corr.  LDAOpt          .... VWN-5
 Gradients option       PostSCFGGA      .... off
 Hybrid DFT is turned on
   Fraction HF Exchange ScalHFX         ....  0.190000
   Scaling of DF-GGA-X  ScalDFX         ....  0.350000
   Scaling of DF-GGA-C  ScalDFC         ....  0.810000
   Scaling of DF-LDA-C  ScalLDAC        ....  1.000000
   Perturbative correction              ....  0.000000
   Density functional embedding theory  .... OFF
 Long-range corrected/Screened/Range-Separated Hybrid DFT is turned on
   Amount of maximum screened exact exchange              ....  0.460000
   Range separation parameter mu (erf(mu*r12)/r12)        ....  0.330000
 RI-approximation to the Coulomb term is turned on
   Number of auxiliary basis functions  .... 3875
   RIJ-COSX (HFX calculated with COS-X)).... on


General Settings:
 Integral files         IntName         .... xtbopt
 Hartree-Fock type      HFTyp           .... RHF
 Total Charge           Charge          ....    0
 Multiplicity           Mult            ....    1
 Number of Electrons    NEL             ....  480
 Basis Dimension        Dim             .... 1205
 Nuclear Repulsion      ENuc            ....   9150.0995987626 Eh

Convergence Acceleration:
 DIIS                   CNVDIIS         .... on
   Start iteration      DIISMaxIt       ....    12
   Startup error        DIISStart       ....  0.200000
   # of expansion vecs  DIISMaxEq       ....     5
   Bias factor          DIISBfac        ....   1.050
   Max. coefficient     DIISMaxC        ....  10.000
 Newton-Raphson         CNVNR           .... off
 SOSCF                  CNVSOSCF        .... on
   Start iteration      SOSCFMaxIt      ....   150
   Startup grad/error   SOSCFStart      ....  0.003300
 Level Shifting         CNVShift        .... on
   Level shift para.    LevelShift      ....    0.2500
   Turn off err/grad.   ShiftErr        ....    0.0010
 Zerner damping         CNVZerner       .... off
 Static damping         CNVDamp         .... on
   Fraction old density DampFac         ....    0.7000
   Max. Damping (<1)    DampMax         ....    0.9800
   Min. Damping (>=0)   DampMin         ....    0.0000
   Turn off err/grad.   DampErr         ....    0.1000
 Fernandez-Rico         CNVRico         .... off

SCF Procedure:
 Maximum # iterations   MaxIter         ....   125
 SCF integral mode      SCFMode         .... Direct
   Integral package                     .... LIBINT
 Reset frequency        DirectResetFreq ....    20
 Integral Threshold     Thresh          ....  2.500e-11 Eh
 Primitive CutOff       TCut            ....  2.500e-12 Eh

Convergence Tolerance:
 Convergence Check Mode ConvCheckMode   .... Total+1el-Energy
 Convergence forced     ConvForced      .... 1
 Energy Change          TolE            ....  1.000e-08 Eh
 1-El. energy change                    ....  1.000e-05 Eh
 Orbital Gradient       TolG            ....  1.000e-05
 Orbital Rotation angle TolX            ....  1.000e-05
 DIIS Error             TolErr          ....  5.000e-07


Diagonalization of the overlap matrix:
Smallest eigenvalue                        ... 1.734e-04
Time for diagonalization                   ...    0.212 sec
Threshold for overlap eigenvalues          ... 1.000e-08
Number of eigenvalues below threshold      ... 0
Time for construction of square roots      ...    0.171 sec
Total time needed                          ...    0.386 sec

-------------------
DFT GRID GENERATION
-------------------

General Integration Accuracy     IntAcc      ...  4.670
Radial Grid Type                 RadialGrid  ... Gauss-Chebyshev
Angular Grid (max. acc.)         AngularGrid ... Lebedev-302
Angular grid pruning method      GridPruning ... 3 (G Style)
Weight generation scheme         WeightScheme... Becke
Basis function cutoff            BFCut       ...    1.0000e-11
Integration weight cutoff        WCut        ...    1.0000e-14
Grids for H and He will be reduced by one unit

# of grid points (after initial pruning)     ... 589990 (   0.0 sec)
# of grid points (after weights+screening)   ... 500800 (   7.9 sec)
nearest neighbour list constructed           ...    0.0 sec
Grid point re-assignment to atoms done       ...    0.1 sec
Grid point division into batches done        ...    1.4 sec
Reduced shell lists constructed in    2.4 sec

Total number of grid points                  ...   500800
Total number of batches                      ...     7886
Average number of points per batch           ...       63
Average number of grid points per atom       ...     4280
Average number of shells per batch           ...   116.66 (20.87%)
Average number of basis functions per batch  ...   233.38 (19.37%)
Average number of large shells per batch     ...    74.76 (64.09%)
Average number of large basis fcns per batch ...   152.18 (65.21%)
Maximum spatial batch extension              ...  19.82, 12.12, 18.21 au
Average spatial batch extension              ...   0.25,  0.22,  0.24 au

Time for grid setup =   10.931 sec

------------------------------
INITIAL GUESS: MODEL POTENTIAL
------------------------------
Loading Hartree-Fock densities                     ... done
Calculating cut-offs                               ... done
Setting up the integral package                    ... done
Initializing the effective Hamiltonian             ... done
Starting the Coulomb interaction                   ... done (   1.4 sec)
Reading the grid                                   ... done
Mapping shells                                     ... done
Starting the XC term evaluation                    ... done (   1.5 sec)
  promolecular density results
     # of electrons  =    479.976122227
     EX              =   -406.525493475
     EC              =    -16.345033898
     EX+EC           =   -422.870527373
Transforming the Hamiltonian                       ... done (   0.1 sec)
Diagonalizing the Hamiltonian                      ... done (   0.2 sec)
Back transforming the eigenvectors                 ... done (   0.1 sec)
Now organizing SCF variables                       ... done
                      ------------------
                      INITIAL GUESS DONE (  14.3 sec)
                      ------------------
--------------------
COSX GRID GENERATION
--------------------

General Integration Accuracy     IntAcc      ...  3.340
Radial Grid Type                 RadialGrid  ... Gauss-Chebyshev
Angular Grid (max. acc.)         AngularGrid ... Lebedev-50
Angular grid pruning method      GridPruning ... 3 (G Style)
Weight generation scheme         WeightScheme... Becke
Basis function cutoff            BFCut       ...    1.0000e-11
Integration weight cutoff        WCut        ...    1.0000e-14
Grids for H and He will be reduced by one unit

# of grid points (after initial pruning)     ...  55330 (   0.0 sec)
# of grid points (after weights+screening)   ...  48994 (   0.7 sec)
nearest neighbour list constructed           ...    0.0 sec
Grid point re-assignment to atoms done       ...    0.0 sec
Grid point division into batches done        ...    0.0 sec
Reduced shell lists constructed in    0.1 sec

Total number of grid points                  ...    48994
Total number of batches                      ...      826
Average number of points per batch           ...       59
Average number of grid points per atom       ...      419
Average number of shells per batch           ...   129.69 (23.20%)
Average number of basis functions per batch  ...   261.94 (21.74%)
Average number of large shells per batch     ...    82.78 (63.83%)
Average number of large basis fcns per batch ...   170.97 (65.27%)
Maximum spatial batch extension              ...  25.83,  9.11, 20.14 au
Average spatial batch extension              ...   0.56,  0.38,  0.52 au

Overlap Fitting                  UseSFitting ... on
Constructing numerical overlap ... done (      0.1 sec)
Inverting numerical overlap    ... done (      0.1 sec)
Obtaining analytic overlap     ... done (      0.0 sec)
Final contraction and storage  ... done (      0.1 sec)


General Integration Accuracy     IntAcc      ...  3.670
Radial Grid Type                 RadialGrid  ... Gauss-Chebyshev
Angular Grid (max. acc.)         AngularGrid ... Lebedev-50
Angular grid pruning method      GridPruning ... 3 (G Style)
Weight generation scheme         WeightScheme... Becke
Basis function cutoff            BFCut       ...    1.0000e-11
Integration weight cutoff        WCut        ...    1.0000e-14
Grids for H and He will be reduced by one unit

# of grid points (after initial pruning)     ...  69700 (   0.0 sec)
# of grid points (after weights+screening)   ...  61503 (   0.9 sec)
nearest neighbour list constructed           ...    0.0 sec
Grid point re-assignment to atoms done       ...    0.0 sec
Grid point division into batches done        ...    0.0 sec
Reduced shell lists constructed in    0.2 sec

Total number of grid points                  ...    61503
Total number of batches                      ...     1017
Average number of points per batch           ...       60
Average number of grid points per atom       ...      526
Average number of shells per batch           ...   130.29 (23.31%)
Average number of basis functions per batch  ...   262.77 (21.81%)
Average number of large shells per batch     ...    82.73 (63.49%)
Average number of large basis fcns per batch ...   170.40 (64.85%)
Maximum spatial batch extension              ...  28.00,  7.22, 22.31 au
Average spatial batch extension              ...   0.56,  0.38,  0.51 au

Overlap Fitting                  UseSFitting ... on
Constructing numerical overlap ... done (      0.1 sec)
Inverting numerical overlap    ... done (      0.1 sec)
Obtaining analytic overlap     ... done (      0.0 sec)
Final contraction and storage  ... done (      0.1 sec)


General Integration Accuracy     IntAcc      ...  4.010
Radial Grid Type                 RadialGrid  ... Gauss-Chebyshev
Angular Grid (max. acc.)         AngularGrid ... Lebedev-110
Angular grid pruning method      GridPruning ... 3 (G Style)
Weight generation scheme         WeightScheme... Becke
Basis function cutoff            BFCut       ...    1.0000e-11
Integration weight cutoff        WCut        ...    1.0000e-14
Grids for H and He will be reduced by one unit

# of grid points (after initial pruning)     ... 132884 (   0.0 sec)
# of grid points (after weights+screening)   ... 116319 (   1.9 sec)
nearest neighbour list constructed           ...    0.0 sec
Grid point re-assignment to atoms done       ...    0.0 sec
Grid point division into batches done        ...    0.1 sec
Reduced shell lists constructed in    0.3 sec

Total number of grid points                  ...   116319
Total number of batches                      ...     1875
Average number of points per batch           ...       62
Average number of grid points per atom       ...      994
Average number of shells per batch           ...   124.83 (22.33%)
Average number of basis functions per batch  ...   251.68 (20.89%)
Average number of large shells per batch     ...    80.68 (64.63%)
Average number of large basis fcns per batch ...   165.83 (65.89%)
Maximum spatial batch extension              ...  16.87,  5.80, 17.44 au
Average spatial batch extension              ...   0.41,  0.32,  0.40 au

Overlap Fitting                  UseSFitting ... on
Constructing numerical overlap ... done (      0.2 sec)
Inverting numerical overlap    ... done (      0.1 sec)
Obtaining analytic overlap     ... done (      0.0 sec)
Final contraction and storage  ... done (      0.1 sec)

Time for X-Grid setup             =    5.391 sec
--------------
SCF ITERATIONS
--------------
ITER       Energy         Delta-E        Max-DP      RMS-DP      [F,P]     Damp
               ***  Starting incremental Fock matrix formation  ***
  0  -3385.9282536547   0.000000000000 0.09828683  0.00083042  0.1593005 0.7000
  1  -3386.4310063066  -0.502752651912 0.05652717  0.00061428  0.0915045 0.7000
                               ***Turning on DIIS***
  2  -3386.6862129735  -0.255206666954 0.11307155  0.00121856  0.0429877 0.0000
  3  -3387.0788620551  -0.392649081565 0.05228432  0.00044455  0.0440293 0.0000
  4  -3387.1560772263  -0.077215171208 0.01094125  0.00012792  0.0129704 0.0000
  5  -3387.1610363249  -0.004959098629 0.00673165  0.00006565  0.0036459 0.0000
  6  -3387.1629466892  -0.001910364266 0.00368302  0.00004606  0.0030364 0.0000
  7  -3387.1641486948  -0.001202005560 0.00343412  0.00004009  0.0024626 0.0000
  8  -3387.1650249967  -0.000876301965 0.00316262  0.00003675  0.0018527 0.0000
  9  -3387.1656525078  -0.000627511052 0.00243936  0.00002890  0.0012619 0.0000
 10  -3387.1660337053  -0.000381197553 0.00566987  0.00006567  0.0008722 0.0000
               *** Restarting incremental Fock matrix formation ***
                                   *** Resetting DIIS ***
                      *** Initiating the SOSCF procedure ***
                           *** Shutting down DIIS ***
                      *** Re-Reading the Fockian *** 
                      *** Removing any level shift *** 
ITER      Energy       Delta-E        Grad      Rot      Max-DP    RMS-DP
 11  -3387.16638680  -0.0003530897  0.000917  0.000917  0.001918  0.000019
               *** Restarting incremental Fock matrix formation ***
 12  -3387.16643468  -0.0000478811  0.000850  0.008068  0.002924  0.000018
 13  -3387.16644194  -0.0000072609  0.000518  0.003300  0.001235  0.000010
 14  -3387.16648351  -0.0000415763  0.000218  0.005244  0.001247  0.000012
 15  -3387.16649332  -0.0000098042  0.000359  0.005414  0.001247  0.000010
 16  -3387.16649929  -0.0000059736  0.000305  0.000663  0.000350  0.000003
 17  -3387.16650055  -0.0000012612  0.000071  0.000631  0.000176  0.000002
 18  -3387.16650122  -0.0000006718  0.000034  0.000293  0.000086  0.000001
 19  -3387.16650135  -0.0000001276  0.000011  0.000153  0.000050  0.000000
 20  -3387.16650135   0.0000000021  0.000011  0.000104  0.000023  0.000000
                  ***Gradient check signals convergence***
              ***Rediagonalizing the Fockian in SOSCF/NRSCF***

               *****************************************************
               *                     SUCCESS                       *
               *           SCF CONVERGED AFTER  21 CYCLES          *
               *****************************************************

Setting up the final grid:

General Integration Accuracy     IntAcc      ...  5.010
Radial Grid Type                 RadialGrid  ... Gauss-Chebyshev
Angular Grid (max. acc.)         AngularGrid ... Lebedev-434
Angular grid pruning method      GridPruning ... 3 (G Style)
Weight generation scheme         WeightScheme... Becke
Basis function cutoff            BFCut       ...    1.0000e-11
Integration weight cutoff        WCut        ...    1.0000e-14
Grids for H and He will be reduced by one unit

# of grid points (after initial pruning)     ... 1057132 (   0.1 sec)
# of grid points (after weights+screening)   ... 894706 (  13.4 sec)
nearest neighbour list constructed           ...    0.0 sec
Grid point re-assignment to atoms done       ...    0.1 sec
Grid point division into batches done        ...    4.6 sec
Reduced shell lists constructed in    6.4 sec

Total number of grid points                  ...   894706
Total number of batches                      ...    14040
Average number of points per batch           ...       63
Average number of grid points per atom       ...     7647
Average number of shells per batch           ...   114.01 (20.40%)
Average number of basis functions per batch  ...   227.31 (18.86%)
Average number of large shells per batch     ...    72.87 (63.92%)
Average number of large basis fcns per batch ...   148.09 (65.15%)
Maximum spatial batch extension              ...  20.93, 13.25, 21.89 au
Average spatial batch extension              ...   0.19,  0.18,  0.19 au

Final grid set up in   20.7 sec
Final integration                            ... done (   3.0 sec)
Change in XC energy                          ...    -0.000028419
Integrated number of electrons               ...   480.000426028
Previous integrated no of electrons          ...   479.999920808
Old exchange energy                            =   -116.102409738 Eh
New exchange energy                            =   -116.099878608 Eh
Exchange energy change after final integration =      0.002531130 Eh
Total energy after final integration           =  -3387.163998648 Eh
Final COS-X integration done in                =    59.411 sec

----------------
TOTAL SCF ENERGY
----------------

Total Energy       :        -3387.16399865 Eh          -92169.41821 eV

Components:
Nuclear Repulsion  :         9150.09959876 Eh          248986.86833 eV
Electronic Energy  :       -12537.26359741 Eh         -341156.28654 eV
One Electron Energy:       -22831.43261582 Eh         -621274.86648 eV
Two Electron Energy:        10294.16901841 Eh          280118.57994 eV

Virial components:
Potential Energy   :        -6746.36881946 Eh         -183578.02850 eV
Kinetic Energy     :         3359.20482082 Eh           91408.61030 eV
Virial Ratio       :            2.00832315


DFT components:
N(Alpha)           :      240.000213013842 electrons
N(Beta)            :      240.000213013842 electrons
N(Total)           :      480.000426027683 electrons
E(XC)              :     -314.950045551287 Eh       
DFET-embed. en.    :        0.000000000000 Eh       

---------------
SCF CONVERGENCE
---------------

  Last Energy change         ...   -8.8494e-09  Tolerance :   1.0000e-08
  Last MAX-Density change    ...    6.2172e-15  Tolerance :   1.0000e-07
  Last RMS-Density change    ...    3.0244e-17  Tolerance :   5.0000e-09
  Last Orbital Gradient      ...    2.4944e-06  Tolerance :   1.0000e-05
  Last Orbital Rotation      ...    3.2632e-05  Tolerance :   1.0000e-05

             **** THE GBW FILE WAS UPDATED (xtbopt.gbw) ****
             **** DENSITY FILE WAS UPDATED (xtbopt.scfp) ****
             **** ENERGY FILE WAS UPDATED (xtbopt.en.tmp) ****
             **** THE GBW FILE WAS UPDATED (xtbopt.gbw) ****
             **** DENSITY FILE WAS UPDATED (xtbopt.scfp) ****
----------------
ORBITAL ENERGIES
----------------

  NO   OCC          E(Eh)            E(eV) 
   0   2.0000     -88.936240     -2420.0781 
   1   2.0000     -88.935265     -2420.0516 
   2   2.0000     -14.435167      -392.8009 
   3   2.0000     -14.402493      -391.9118 
   4   2.0000     -14.402075      -391.9004 
   5   2.0000     -10.335057      -281.2312 
   6   2.0000     -10.316492      -280.7260 
   7   2.0000     -10.316223      -280.7187 
   8   2.0000     -10.301925      -280.3296 
   9   2.0000     -10.297142      -280.1995 
  10   2.0000     -10.296450      -280.1806 
  11   2.0000     -10.296112      -280.1715 
  12   2.0000     -10.296094      -280.1709 
  13   2.0000     -10.293969      -280.1131 
  14   2.0000     -10.290438      -280.0171 
  15   2.0000     -10.289792      -279.9995 
  16   2.0000     -10.288750      -279.9711 
  17   2.0000     -10.281048      -279.7615 
  18   2.0000     -10.278997      -279.7057 
  19   2.0000     -10.277731      -279.6713 
  20   2.0000     -10.277702      -279.6705 
  21   2.0000     -10.277482      -279.6645 
  22   2.0000     -10.277148      -279.6554 
  23   2.0000     -10.273974      -279.5690 
  24   2.0000     -10.273851      -279.5657 
  25   2.0000     -10.268845      -279.4295 
  26   2.0000     -10.268829      -279.4290 
  27   2.0000     -10.268287      -279.4143 
  28   2.0000     -10.267484      -279.3924 
  29   2.0000     -10.267007      -279.3795 
  30   2.0000     -10.266479      -279.3651 
  31   2.0000     -10.265493      -279.3383 
  32   2.0000     -10.264584      -279.3135 
  33   2.0000     -10.264162      -279.3021 
  34   2.0000     -10.264032      -279.2985 
  35   2.0000     -10.263500      -279.2840 
  36   2.0000     -10.263033      -279.2713 
  37   2.0000     -10.262030      -279.2440 
  38   2.0000     -10.261993      -279.2430 
  39   2.0000     -10.261865      -279.2396 
  40   2.0000     -10.261778      -279.2372 
  41   2.0000     -10.261736      -279.2360 
  42   2.0000     -10.261371      -279.2261 
  43   2.0000     -10.261125      -279.2194 
  44   2.0000     -10.260599      -279.2051 
  45   2.0000     -10.260337      -279.1980 
  46   2.0000     -10.259868      -279.1852 
  47   2.0000     -10.259650      -279.1793 
  48   2.0000     -10.259412      -279.1728 
  49   2.0000     -10.258827      -279.1569 
  50   2.0000     -10.258473      -279.1472 
  51   2.0000     -10.256186      -279.0850 
  52   2.0000     -10.256083      -279.0822 
  53   2.0000     -10.256028      -279.0807 
  54   2.0000     -10.255852      -279.0759 
  55   2.0000     -10.255271      -279.0601 
  56   2.0000     -10.254340      -279.0348 
  57   2.0000     -10.253753      -279.0188 
  58   2.0000     -10.253651      -279.0160 
  59   2.0000     -10.253611      -279.0149 
  60   2.0000     -10.253354      -279.0079 
  61   2.0000     -10.252052      -278.9725 
  62   2.0000     -10.251619      -278.9607 
  63   2.0000     -10.248929      -278.8875 
  64   2.0000     -10.248375      -278.8725 
  65   2.0000     -10.243180      -278.7311 
  66   2.0000     -10.237329      -278.5719 
  67   2.0000     -10.236890      -278.5599 
  68   2.0000      -8.032155      -218.5661 
  69   2.0000      -8.030951      -218.5333 
  70   2.0000      -6.001963      -163.3217 
  71   2.0000      -6.000714      -163.2877 
  72   2.0000      -5.997903      -163.2113 
  73   2.0000      -5.996632      -163.1767 
  74   2.0000      -5.993019      -163.0783 
  75   2.0000      -5.991924      -163.0486 
  76   2.0000      -1.076081       -29.2817 
  77   2.0000      -1.064797       -28.9746 
  78   2.0000      -0.985455       -26.8156 
  79   2.0000      -0.981725       -26.7141 
  80   2.0000      -0.976841       -26.5812 
  81   2.0000      -0.970095       -26.3976 
  82   2.0000      -0.963478       -26.2176 
  83   2.0000      -0.954915       -25.9846 
  84   2.0000      -0.937271       -25.5044 
  85   2.0000      -0.932315       -25.3696 
  86   2.0000      -0.930622       -25.3235 
  87   2.0000      -0.910259       -24.7694 
  88   2.0000      -0.899459       -24.4755 
  89   2.0000      -0.894158       -24.3313 
  90   2.0000      -0.884521       -24.0690 
  91   2.0000      -0.880716       -23.9655 
  92   2.0000      -0.869936       -23.6722 
  93   2.0000      -0.861764       -23.4498 
  94   2.0000      -0.859096       -23.3772 
  95   2.0000      -0.849991       -23.1294 
  96   2.0000      -0.846969       -23.0472 
  97   2.0000      -0.838446       -22.8153 
  98   2.0000      -0.833912       -22.6919 
  99   2.0000      -0.827689       -22.5226 
 100   2.0000      -0.825364       -22.4593 
 101   2.0000      -0.819537       -22.3007 
 102   2.0000      -0.818195       -22.2642 
 103   2.0000      -0.812922       -22.1207 
 104   2.0000      -0.810987       -22.0681 
 105   2.0000      -0.797715       -21.7069 
 106   2.0000      -0.794409       -21.6170 
 107   2.0000      -0.792361       -21.5612 
 108   2.0000      -0.778373       -21.1806 
 109   2.0000      -0.775525       -21.1031 
 110   2.0000      -0.754604       -20.5338 
 111   2.0000      -0.752685       -20.4816 
 112   2.0000      -0.743060       -20.2197 
 113   2.0000      -0.740135       -20.1401 
 114   2.0000      -0.736305       -20.0359 
 115   2.0000      -0.729122       -19.8404 
 116   2.0000      -0.719284       -19.5727 
 117   2.0000      -0.710445       -19.3322 
 118   2.0000      -0.698774       -19.0146 
 119   2.0000      -0.694877       -18.9086 
 120   2.0000      -0.687522       -18.7084 
 121   2.0000      -0.680402       -18.5147 
 122   2.0000      -0.672315       -18.2946 
 123   2.0000      -0.664926       -18.0936 
 124   2.0000      -0.664779       -18.0896 
 125   2.0000      -0.662280       -18.0216 
[...]
  19      4.45     278.3    87 ->  95      gap,J,K:    5.602     1.238     0.045
  20      4.50     275.3    88 ->  96      gap,J,K:    5.992     1.991     0.252
  21      4.51     274.8    92 ->  97      gap,J,K:    5.818     1.544     0.118
  22      4.58     270.5    94 -> 100      gap,J,K:    5.509     0.928     0.001
  23      4.58     270.5    84 ->  95      gap,J,K:    5.965     1.588     0.103
  24      4.59     270.2    82 ->  96      gap,J,K:    6.869     2.564     0.142

average / max PT2 energy lowering (eV):       0.029       0.123

CSF included by PT:                   237 
total number of CSF included:         276 
 
sTD-DFT procedure...
setting up A+B and A-B matrices...  done
estimated time (min):    0.001
calculating (A-B)^0.5 ... done
calculating (A+B)*(A-B)^0.5 ... done
calculating (A-B)^0.5 *(A+B)*(A-B)^0.5 ... done
diagonalizing ...using LAPACKE_ssyevr ...done

   42 roots found, lowest/highest eigenvalue :     0.804     4.993

excitation energies, transition moments and amplitudes

molecular weight:  912.226
state   eV        nm        fL         fV        Rl        RV
   0   0.804    1543.0   0.016297   0.052464   4.284865  38.201425     0.79 (  94->  95)    0.09 (  92->  95)    0.06 (  93->  95)
   1   1.873     662.1   0.267105   0.356857  -27.737666   3.207521     0.38 (  92->  95)    0.21 (  93->  95)    0.20 (  94->  95)
   2   1.902     651.9   1.011754   1.466321  332.420410  352.673427     0.91 (  94->  96)    0.03 (  92->  95)    0.02 (  91->  95)
   3   2.777     446.4   0.061837   0.094871  72.617000  65.856981     0.70 (  90->  95)    0.08 (  93->  95)    0.05 (  93->  96)
   4   2.830     438.0   0.118616   0.139893  -116.865483  -113.152185     0.52 (  93->  95)    0.13 (  91->  95)    0.12 (  90->  95)
   5   3.006     412.5   0.155328   0.158363  -84.981522  -85.875767     0.49 (  93->  96)    0.19 (  94->  98)    0.13 (  92->  96)
   6   3.130     396.2   0.207625   0.219702  -165.809517  -222.543563     0.19 (  94->  98)    0.19 (  91->  95)    0.17 (  93->  96)
   7   3.258     380.6   0.293777   0.311510  -620.614438  -596.949454     0.24 (  94->  98)    0.18 (  91->  95)    0.13 (  94->  97)
   8   3.274     378.7   0.112744   0.112931  190.570843  192.706966     0.73 (  94->  97)    0.04 (  94->  98)    0.04 (  94->  99)
   9   3.432     361.2   0.664646   0.688497  315.287669  315.469642     0.53 (  92->  96)    0.11 (  94->  98)    0.07 (  88->  95)
  10   3.541     350.1   0.089056   0.092494  -75.424264  -28.756998     0.60 (  90->  96)    0.10 (  88->  95)    0.07 (  89->  95)
  11   3.565     347.8   0.004037   0.004131  -3.802431  -4.325586     0.74 (  89->  95)    0.09 (  91->  95)    0.06 (  90->  96)
  12   3.641     340.5   0.272078   0.269183  -352.440874  -231.243682     0.26 (  88->  95)    0.20 (  90->  96)    0.10 (  94-> 101)
  13   3.719     333.4   0.322621   0.293118  -403.708013  -390.228454     0.31 (  91->  96)    0.19 (  93->  97)    0.10 (  89->  96)
  14   3.746     331.0   1.428870   1.313196  1078.575081  1044.061417     0.43 (  93->  97)    0.16 (  91->  96)    0.15 (  92->  97)
  15   3.910     317.1   0.022978   0.021768  -10.896193  -22.563289     0.32 (  89->  96)    0.13 (  88->  96)    0.06 (  94-> 102)
  16   3.933     315.2   0.081784   0.081830  66.334145  54.732834     0.20 (  91->  96)    0.12 (  82->  95)    0.11 (  94-> 101)
  17   4.020     308.4   0.067939   0.062548  20.908177  23.520597     0.33 (  94->  99)    0.23 (  89->  96)    0.11 (  94-> 102)
  18   4.115     301.3   0.246910   0.230234  -192.399498  -48.403159     0.36 (  82->  95)    0.20 (  94-> 101)    0.05 (  94-> 102)
  19   4.176     296.9   0.034553   0.030637  -57.827300  -55.319189     0.32 (  82->  96)    0.14 (  84->  95)    0.11 (  88->  96)
  20   4.181     296.5   0.270213   0.233671  -61.275324  -58.212372     0.28 (  94-> 106)    0.16 (  91->  97)    0.11 (  92->  97)
  21   4.260     291.1   0.109661   0.095420  12.883156  12.207459     0.27 (  94-> 106)    0.16 (  88->  96)    0.11 (  94->  99)
  22   4.367     283.9   0.003035   0.002307  30.762328  24.313057     0.24 (  94-> 101)    0.21 (  88->  96)    0.21 (  94->  99)
  23   4.397     282.0   0.022344   0.024299  -3.420446   3.568125     0.29 (  82->  96)    0.17 (  87->  95)    0.10 (  80->  95)
  24   4.412     281.0   0.036186   0.029434  -18.712155  -16.290493     0.21 (  93->  98)    0.09 (  94-> 102)    0.08 (  89->  97)
  25   4.511     274.9   0.023252   0.018603  -195.828964  -173.956518     0.13 (  93->  98)    0.13 (  87->  95)    0.12 (  80->  95)
  26   4.572     271.2   0.061118   0.051609  103.120965  98.972395     0.25 (  89->  97)    0.16 (  87->  95)    0.16 (  94-> 100)
  27   4.582     270.6   0.030000   0.025206  128.425786  120.189296     0.64 (  94-> 100)    0.14 (  89->  97)    0.07 (  93->  98)
  28   4.588     270.3   0.020783   0.018352  73.705683  78.637988     0.20 (  87->  95)    0.13 (  94-> 100)    0.09 (  93->  98)
  29   4.588     270.2   0.002413   0.002126   7.536891   8.538842     0.68 (  83->  97)    0.18 (  83->  99)    0.02 (  83-> 101)
  30   4.644     267.0   0.020718   0.020183  74.270496  62.083181     0.26 (  90->  98)    0.10 (  92->  98)    0.09 (  89->  97)
  31   4.683     264.7   0.016073   0.014398  113.399351  113.372746     0.18 (  90->  98)    0.08 (  93->  99)    0.07 (  93->  98)
  32   4.688     264.5   0.010960   0.011166  -0.840515  -0.799677     0.95 (  83-> 100)    0.03 (  83->  99)    0.01 (  83-> 103)
  33   4.718     262.8   0.063512   0.057458  118.812175  127.376538     0.10 (  80->  95)    0.10 (  82->  96)    0.09 (  94-> 102)
  34   4.771     259.9   0.018350   0.017642  -8.413970  -12.751391     0.18 (  87->  96)    0.12 (  94-> 104)    0.11 (  80->  95)
  35   4.810     257.7   0.243071   0.210631  -660.335735  -542.482289     0.27 (  92->  98)    0.10 (  91->  97)    0.10 (  92->  97)
  36   4.817     257.4   0.006306   0.005438  -25.579936  -22.775947     0.80 (  86->  95)    0.10 (  85->  95)    0.02 (  87->  95)
  37   4.838     256.3   0.030019   0.026184  -108.812920  -96.058546     0.19 (  93->  99)    0.17 (  92->  97)    0.17 (  91->  97)
  38   4.847     255.8   0.026104   0.023971  -1.012103   9.044666     0.17 (  80->  96)    0.15 (  84->  95)    0.11 (  79->  95)
  39   4.959     250.0   0.018825   0.012955  -61.759058  -49.938360     0.13 (  81->  95)    0.12 (  85->  95)    0.07 (  85->  97)
  40   4.973     249.3   0.052586   0.037767  -209.467667  -177.533268     0.14 (  87->  96)    0.10 (  85->  97)    0.06 (  81->  95)
  41   4.993     248.3   0.004235   0.003777  -1.226192  -0.778104     0.63 (  85->  95)    0.09 (  86->  95)    0.08 (  87->  96)

-----------------------------------------------------------------------------
         ABSORPTION SPECTRUM VIA TRANSITION ELECTRIC DIPOLE MOMENTS
-----------------------------------------------------------------------------
State   Energy  Wavelength   fosc         T2         TX        TY        TZ  
        (cm-1)    (nm)                  (au**2)     (au)      (au)      (au) 
-----------------------------------------------------------------------------
   0    6480.8   1543.0   0.016296767   0.82785  -0.85076   0.32252  -0.00519
   1   15104.4    662.1   0.267105002   5.82175  -2.37738   0.29423  -0.28849
   2   15340.0    651.9   1.011753646  21.71327  -4.52440   1.03253  -0.42069
   3   22400.0    446.4   0.061836989   0.90881   0.30191  -0.87612  -0.22380
   4   22829.1    438.0   0.118615589   1.71052   0.70490  -0.98716  -0.48902
   5   24243.0    412.5   0.155328332   2.10931   0.01023  -1.26091  -0.72064
   6   25242.9    396.2   0.207624533   2.70779  -0.08035  -1.35371  -0.93209
   7   26274.7    380.6   0.293777316   3.68091  -0.77061   1.36297   1.10877
   8   26407.1    378.7   0.112744382   1.40556  -0.17496   1.13416  -0.29771
   9   27683.0    361.2   0.664646107   7.90412   0.13006   2.68550   0.82177
  10   28560.1    350.1   0.089055982   1.02655   0.15494  -0.90018  -0.43842
  11   28755.4    347.8   0.004037034   0.04622   0.03686   0.15113   0.14839
  12   29365.5    340.5   0.272077885   3.05022  -0.68482   1.40505   0.77915
  13   29998.4    333.4   0.322620929   3.54054  -0.61629  -1.54365   0.88197
  14   30211.5    331.0   1.428869503  15.57025   0.02958  -3.67599   1.43403
  15   31533.8    317.1   0.022977774   0.23989  -0.19141  -0.13529  -0.43005
  16   31720.9    315.2   0.081784429   0.84879  -0.27544  -0.87020  -0.12524
  17   32423.5    308.4   0.067938671   0.68982   0.03165  -0.82163  -0.11718
  18   33190.1    301.3   0.246909625   2.44909   0.57616  -1.34457  -0.55611
  19   33677.8    296.9   0.034552534   0.33776   0.17816   0.55319   0.00196
  20   33724.5    296.5   0.270212864   2.63776   0.11621   1.61913   0.05167
  21   34358.0    291.1   0.109661171   1.05075  -0.19167   0.99362  -0.16348
  22   35220.1    283.9   0.003034509   0.02836   0.02314  -0.00070   0.16682
  23   35465.8    282.0   0.022344198   0.20741  -0.01105  -0.40963  -0.19872
  24   35584.9    281.0   0.036186080   0.33477   0.02073   0.57822  -0.00255
  25   36380.8    274.9   0.023251654   0.21041  -0.39451  -0.20242   0.11745
  26   36877.0    271.2   0.061118411   0.54562   0.23603  -0.69740   0.05950
  27   36955.3    270.6   0.030000482   0.26726  -0.27982   0.40904  -0.14711
  28   37001.3    270.3   0.020782538   0.18491   0.36217  -0.21758   0.07999
  29   37008.7    270.2   0.002413306   0.02147   0.13660  -0.04739   0.02370
  30   37459.6    267.0   0.020717928   0.18208   0.25761   0.30678   0.14697
  31   37774.6    264.7   0.016073323   0.14008   0.00858  -0.35288   0.12443
  32   37813.6    264.5   0.010960280   0.09542  -0.25256  -0.03602  -0.17418
  33   38054.0    262.8   0.063511628   0.54945  -0.36940   0.63895  -0.06880
  34   38481.7    259.9   0.018350012   0.15698   0.17690   0.16452   0.31404
  35   38797.7    257.7   0.243071242   2.06254   0.33083  -0.86587  -1.09698
  36   38852.7    257.4   0.006305868   0.05343   0.09524  -0.10837  -0.18060
  37   39023.8    256.3   0.030019095   0.25325   0.27725   0.09960  -0.40800
  38   39091.1    255.8   0.026103746   0.21984   0.20752   0.41262   0.08073
  39   39998.2    250.0   0.018825151   0.15494   0.12639   0.06986  -0.36618
  40   40113.2    249.3   0.052585910   0.43158  -0.44989  -0.22665   0.42167
  41   40273.4    248.3   0.004234832   0.03462   0.02013  -0.17445  -0.06148

-----------------------------------------------------------------------------
         ABSORPTION SPECTRUM VIA TRANSITION VELOCITY DIPOLE MOMENTS
-----------------------------------------------------------------------------
State   Energy  Wavelength   fosc         P2         PX        PY        PZ  
        (cm-1)    (nm)                  (au**2)     (au)      (au)      (au) 
-----------------------------------------------------------------------------
   0    6480.8   1543.0   0.052463513   0.00232  -0.04357   0.02056   0.00159
   1   15104.4    662.1   0.356857469   0.03684  -0.18903   0.02530  -0.02158
   2   15340.0    651.9   1.466320815   0.15373  -0.38143   0.08437  -0.03348
   3   22400.0    446.4   0.094870892   0.01452   0.04023  -0.10933  -0.03085
   4   22829.1    438.0   0.139893187   0.02183   0.07840  -0.11304  -0.05388
   5   24243.0    412.5   0.158363169   0.02624   0.00148  -0.14128  -0.07922
   6   25242.9    396.2   0.219701813   0.03790  -0.00388  -0.16193  -0.10801
   7   26274.7    380.6   0.311509897   0.05594  -0.09280   0.17158   0.13374
   8   26407.1    378.7   0.112931004   0.02038  -0.02104   0.13704  -0.03404
   9   27683.0    361.2   0.688496646   0.13026   0.01671   0.34445   0.10648
  10   28560.1    350.1   0.092493593   0.01805   0.01289  -0.12040  -0.05825
  11   28755.4    347.8   0.004131090   0.00081   0.00450   0.02042   0.01935
  12   29365.5    340.5   0.269183085   0.05402  -0.08110   0.19122   0.10432
  13   29998.4    333.4   0.293117765   0.06010  -0.08135  -0.20098   0.11438
  14   30211.5    331.0   1.313195971   0.27115   0.00354  -0.48668   0.18516
  15   31533.8    317.1   0.021768346   0.00469  -0.02427  -0.02235  -0.06002
  16   31720.9    315.2   0.081830402   0.01774  -0.03866  -0.12572  -0.02100
  17   32423.5    308.4   0.062548448   0.01386  -0.00036  -0.11600  -0.02010
  18   33190.1    301.3   0.230233841   0.05223   0.06942  -0.20098  -0.08374
  19   33677.8    296.9   0.030636877   0.00705   0.02388   0.08049   0.00176
  20   33724.5    296.5   0.233671475   0.05386   0.01572   0.23126   0.01145
  21   34358.0    291.1   0.095419849   0.02241  -0.02850   0.14500  -0.02387
  22   35220.1    283.9   0.002307303   0.00056   0.00147  -0.00274   0.02336
  23   35465.8    282.0   0.024298960   0.00589  -0.00423  -0.06957  -0.03213
  24   35584.9    281.0   0.029434345   0.00716  -0.00132   0.08458  -0.00152
  25   36380.8    274.9   0.018603279   0.00463  -0.05923  -0.02877   0.01702
  26   36877.0    271.2   0.051608796   0.01301   0.02982  -0.10980   0.00786
  27   36955.3    270.6   0.025206401   0.00637  -0.03897   0.06622  -0.02151
  28   37001.3    270.3   0.018352496   0.00464   0.05423  -0.03925   0.01263
  29   37008.7    270.2   0.002126256   0.00054   0.02096  -0.00896   0.00428
  30   37459.6    267.0   0.020183172   0.00517   0.04156   0.05192   0.02729
  31   37774.6    264.7   0.014397906   0.00372  -0.00771  -0.05775   0.01798
  32   37813.6    264.5   0.011166428   0.00289  -0.04396  -0.00634  -0.03022
  33   38054.0    262.8   0.057457635   0.01494  -0.05710   0.10778  -0.00809
  34   38481.7    259.9   0.017642012   0.00464   0.02868   0.03142   0.05320
  35   38797.7    257.7   0.210630978   0.05585   0.04521  -0.14184  -0.18354
  36   38852.7    257.4   0.005437925   0.00144   0.01483  -0.01795  -0.03003
  37   39023.8    256.3   0.026184111   0.00698   0.04281   0.01973  -0.06901
  38   39091.1    255.8   0.023970645   0.00640   0.03994   0.06807   0.01325
  39   39998.2    250.0   0.012955500   0.00354   0.01854   0.01030  -0.05560
  40   40113.2    249.3   0.037766538   0.01035  -0.07218  -0.03092   0.06471
  41   40273.4    248.3   0.003777430   0.00104   0.00263  -0.02976  -0.01212

-------------------------------------------------------------------
                             CD SPECTRUM
-------------------------------------------------------------------
State   Energy Wavelength       R         MX        MY        MZ   
        (cm-1)   (nm)       (1e40*cgs)   (au)      (au)      (au)  
-------------------------------------------------------------------
   0    6480.8   1543.0      4.28487  -0.51363  -1.39571   0.96433
   1   15104.4    662.1    -27.73767  -0.06373  -3.17138  -3.11720
   2   15340.0    651.9    332.42041  -1.13990  -7.60524  -3.05461
   3   22400.0    446.4     72.61700   2.48082   1.52015  -1.22785
   4   22829.1    438.0    -116.86548   3.22910   1.65230   0.30535
   5   24243.0    412.5    -84.98152   4.26069   0.34142  -1.03715
   6   25242.9    396.2    -165.80952   5.41420   0.46091  -1.89080
   7   26274.7    380.6    -620.61444  -6.60056  -1.86840   0.08381
   8   26407.1    378.7    190.57084  -0.37178  -0.85695  -0.33056
   9   27683.0    361.2    315.28767  -7.71909  -0.97637   2.78478
  10   28560.1    350.1    -75.42426   3.39877   0.61704  -0.79560
  11   28755.4    347.8     -3.80243  -0.83465   0.05904   0.25591
  12   29365.5    340.5    -352.44087  -5.96392  -1.85587   0.02375
  13   29998.4    333.4    -403.70801  -2.62626  -0.52477  -0.81177
  14   30211.5    331.0    1078.57508  -2.05344   1.61639   0.99506
  15   31533.8    317.1    -10.89619   2.47827  -0.35575  -1.09861
  16   31720.9    315.2     66.33414   1.77982   0.01126  -1.74562
  17   32423.5    308.4     20.90818   0.67089   0.17464  -0.28641
  18   33190.1    301.3    -192.39950   5.49314   2.27346  -1.27338
  19   33677.8    296.9    -57.82730  -0.12812   0.48459   0.03786
  20   33724.5    296.5    -61.27532  -1.03267   0.23538  -0.02253
  21   34358.0    291.1     12.88316   0.29082  -0.21104  -1.28930
  22   35220.1    283.9     30.76233  -1.51748   0.36574  -0.57030
  23   35465.8    282.0     -3.42045   1.71875   0.17967  -0.53899
  24   35584.9    281.0    -18.71215   0.19752   0.12847  -0.39424
  25   36380.8    274.9    -195.82896  -1.32663  -1.41543   0.17783
  26   36877.0    271.2    103.12097   0.21241   0.70563   0.07578
  27   36955.3    270.6    128.42579   0.30897  -1.05933   0.17029
  28   37001.3    270.3     73.70568   0.05079   1.37394  -0.40169
  29   37008.7    270.2      7.53689   0.01824   0.66028  -0.13401
  30   37459.6    267.0     74.27050  -2.06470  -0.11880   1.72311
  31   37774.6    264.7    113.39935   0.77870   0.93249  -1.27543
  32   37813.6    264.5     -0.84051   0.21694   0.05510  -0.34643
  33   38054.0    262.8    118.81218  -1.65739  -1.74806  -0.00944
  34   38481.7    259.9     -8.41397  -1.94960   0.26194   1.07465
  35   38797.7    257.7    -660.33574   6.38672   0.95363  -1.38028
  36   38852.7    257.4    -25.57994   0.95100   0.31387  -0.28770
  37   39023.8    256.3    -108.81292   1.64645   0.38436   0.08123
  38   39091.1    255.8     -1.01210  -1.32102   0.67039   0.02258
  39   39998.2    250.0    -61.75906   1.74452   0.10445  -0.09345
  40   40113.2    249.3    -209.46767  -1.61067  -0.97895  -0.13725
  41   40273.4    248.3     -1.22619   0.62581   0.08970  -0.13423

sTD-DFT done

Total run time:        3.251 sec

           *** ORCA-CIS/TD-DFT FINISHED WITHOUT ERROR ***

-------------------------   --------------------
FINAL SINGLE POINT ENERGY     -3387.163998647506
-------------------------   --------------------


                            ***************************************
                            *     ORCA property calculations      *
                            ***************************************

                                    ---------------------
                                    Active property flags
                                    ---------------------
   (+) Dipole Moment


------------------------------------------------------------------------------
                       ORCA ELECTRIC PROPERTIES CALCULATION
------------------------------------------------------------------------------

Dipole Moment Calculation                       ... on
Quadrupole Moment Calculation                   ... off
Polarizability Calculation                      ... off
GBWName                                         ... xtbopt.gbw
Electron density file                           ... xtbopt.scfp
The origin for moment calculation is the CENTER OF MASS  = (-2.180860, 18.097728 -8.993237)

-------------
DIPOLE MOMENT
-------------
                                X             Y             Z
Electronic contribution:    -21.22620       3.13367     -24.67829
Nuclear contribution   :     20.28501      -4.70212      24.53046
                        -----------------------------------------
Total Dipole Moment    :     -0.94119      -1.56844      -0.14782
                        -----------------------------------------
Magnitude (a.u.)       :      1.83513
Magnitude (Debye)      :      4.66453



--------------------
Rotational spectrum 
--------------------
 
Rotational constants in cm-1:     0.001010     0.000395     0.000357 
Rotational constants in MHz :    30.284410    11.833897    10.702756 

 Dipole components along the rotational axes: 
x,y,z [a.u.] :    -0.319200     1.783009    -0.294436 
x,y,z [Debye]:    -0.811342     4.532048    -0.748396 

 

Timings for individual modules:

Sum of individual times         ...      731.636 sec (=  12.194 min)
GTO integral calculation        ...        3.004 sec (=   0.050 min)   0.4 %
SCF iterations                  ...      724.716 sec (=  12.079 min)  99.1 %
CIS module                      ...        3.916 sec (=   0.065 min)   0.5 %
                             ****ORCA TERMINATED NORMALLY****
TOTAL RUN TIME: 0 days 0 hours 12 minutes 12 seconds 597 msec
