
                                 *****************
                                 * O   R   C   A *
                                 *****************

           --- An Ab Initio, DFT and Semiempirical electronic structure package ---

                  #######################################################
                  #                        -***-                        #
                  #          Department of theory and spectroscopy      #
                  #               Directorship: Frank Neese             #
                  #        Max Planck Institute fuer Kohlenforschung    #
                  #                Kaiser Wilhelm Platz 1               #
                  #                 D-45470 Muelheim/Ruhr               #
                  #                      Germany                        #
                  #                                                     #
                  #                  All rights reserved                #
                  #                        -***-                        #
                  #######################################################


                         Program Version 4.2.0 -  RELEASE  -


 With contributions from (in alphabetic order):
   Daniel Aravena         : Magnetic Suceptibility
   Michael Atanasov       : Ab Initio Ligand Field Theory (pilot matlab implementation)
   Alexander A. Auer      : GIAO ZORA, VPT2
   Ute Becker             : Parallelization
   Giovanni Bistoni       : ED, misc. LED, open-shell LED, HFLED
   Martin Brehm           : Molecular dynamics
   Dmytro Bykov           : SCF Hessian
   Vijay G. Chilkuri      : MRCI spin determinant printing, contributions to CSF-ICE
   Dipayan Datta          : RHF DLPNO-CCSD density
   Achintya Kumar Dutta   : EOM-CC, STEOM-CC
   Dmitry Ganyushin       : Spin-Orbit,Spin-Spin,Magnetic field MRCI
   Miquel Garcia          : C-PCM Hessian, Gaussian charge scheme
   Yang Guo               : DLPNO-NEVPT2, CIM, IAO-localization
   Andreas Hansen         : Spin unrestricted coupled pair/coupled cluster methods
   Benjamin Helmich-Paris : CASSCF linear response (MC-RPA)
   Lee Huntington         : MR-EOM, pCC
   Robert Izsak           : Overlap fitted RIJCOSX, COSX-SCS-MP3, EOM
   Christian Kollmar      : KDIIS, OOCD, Brueckner-CCSD(T), CCSD density
   Simone Kossmann        : Meta GGA functionals, TD-DFT gradient, OOMP2, MP2 Hessian
   Martin Krupicka        : AUTO-CI
   Lucas Lang             : DCDCAS
   Dagmar Lenk            : GEPOL surface, SMD
   Dimitrios Liakos       : Extrapolation schemes; Compound Job, initial MDCI parallelization
   Dimitrios Manganas     : Further ROCIS development; embedding schemes
   Dimitrios Pantazis     : SARC Basis sets
   Taras Petrenko         : DFT Hessian,TD-DFT gradient, ASA, ECA, R-Raman, ABS, FL, XAS/XES, NRVS
   Peter Pinski           : DLPNO-MP2, DLPNO-MP2 Gradient
   Christoph Reimann      : Effective Core Potentials
   Marius Retegan         : Local ZFS, SOC
   Christoph Riplinger    : Optimizer, TS searches, QM/MM, DLPNO-CCSD(T), (RO)-DLPNO pert. Triples
   Tobias Risthaus        : Range-separated hybrids, TD-DFT gradient, RPA, STAB
   Michael Roemelt        : Original ROCIS implementation
   Masaaki Saitow         : Open-shell DLPNO-CCSD energy and density
   Barbara Sandhoefer     : DKH picture change effects
   Avijit Sen             : IP-ROCIS
   Kantharuban Sivalingam : CASSCF convergence, NEVPT2, FIC-MRCI
   Bernardo de Souza      : ESD, SOC TD-DFT
   Georgi Stoychev        : AutoAux, RI-MP2 NMR
   Willem Van den Heuvel  : Paramagnetic NMR
   Boris Wezisla          : Elementary symmetry handling
   Frank Wennmohs         : Technical directorship


 We gratefully acknowledge several colleagues who have allowed us to
 interface, adapt or use parts of their codes:
   Stefan Grimme, W. Hujo, H. Kruse,             : VdW corrections, initial TS optimization,
                  C. Bannwarth                     DFT functionals, gCP, sTDA/sTD-DF
   Ed Valeev, F. Pavosevic, A. Kumar             : LibInt (2-el integral package), F12 methods
   Garnet Chan, S. Sharma, J. Yang, R. Olivares  : DMRG
   Ulf Ekstrom                                   : XCFun DFT Library
   Mihaly Kallay                                 : mrcc  (arbitrary order and MRCC methods)
   Andreas Klamt, Michael Diedenhofen            : otool_cosmo (COSMO solvation model)
   Jiri Pittner, Ondrej Demel                    : Mk-CCSD
   Frank Weinhold                                : gennbo (NPA and NBO analysis)
   Christopher J. Cramer and Donald G. Truhlar   : smd solvation model
   Lars Goerigk                                  : TD-DFT with DH, B97 family of functionals
   V. Asgeirsson, H. Jonsson                     : NEB implementation
   FAccTs GmbH                                   : IRC, NEB, NEB-TS, Multilevel, MM, QM/MM, CI optimization
   S Lehtola, MJT Oliveira, MAL Marques          : LibXC Library


 Your calculation uses the libint2 library for the computation of 2-el integrals
 For citations please refer to: http://libint.valeyev.net

 Your ORCA version has been built with support for libXC version: 4.2.3
 For citations please refer to: https://tddft.org/programs/libxc/

 This ORCA versions uses:
   CBLAS   interface :  Fast vector & matrix operations
   LAPACKE interface :  Fast linear algebra routines
   SCALAPACK package :  Parallel linear algebra routines


XCFun DFT library Copyright 2009-2010 Ulf Ekstrom and contributors.
See http://admol.org/xcfun for more information. This is free soft-
ware; see the source code for copying conditions. There is ABSOLUTELY
NO WARRANTY; not even for MERCHANTABILITY or FITNESS FOR A PARTICULAR
PURPOSE. For details see the documentation. Scientific users of this 
library should cite U. Ekstrom, L. Visscher, R. Bast, A. J. Thorvald-
sen and K. Ruud; J.Chem.Theor.Comp. 2010, DOI: 10.1021/ct100117s
XCFun Version 0.99 
----- Orbital basis set information -----
Your calculation utilizes the basis: def2-SVP
   F. Weigend and R. Ahlrichs, Phys. Chem. Chem. Phys. 7, 3297 (2005).

----- AuxJ basis set information -----
Your calculation utilizes the auxiliary basis: def2/J
   F. Weigend, Phys. Chem. Chem. Phys. 8, 1057 (2006).

================================================================================
                                        WARNINGS
                       Please study these warnings very carefully!
================================================================================

INFO   : Checking CIS options ...

WARNING: CIS/ROCIS methods need fully converged wavefunctions
  ===> : Setting SCFConvForced true
         You can overwrite this default with %scf ConvForced false 


INFO   : the flag for use of LIBINT has been found!

================================================================================
                                       INPUT FILE
================================================================================
NAME = xtbopt.inp
|  1> # ORCA input file
|  2> # SCF done       -176.593747040651          0.000406171137
|  3> ! CAM-B3LYP def2-SVP def2/J RIJCOSX Grid4 TightSCF
|  4> %maxcore 5000
|  5> %tddft
|  6>     Mode sTDDFT
|  7>     Ethresh 5.0
|  8>     maxcore 5000
|  9> end
| 10> 
| 11> %pal
| 12>   nprocs 6
| 13>   end
| 14> * xyz 0 1
| 15>    C        5.23683         3.82198         4.29465
| 16>    C        3.98501         3.32396         3.92330
| 17>    C        4.21812         2.02288         3.39476
| 18>    C        5.62942         1.85959         3.45557
| 19>    N        6.21118         2.94422         4.01493
| 20>    O        6.31230         0.83536         3.00244
| 21>    C        7.71933         0.89864         3.16375
| 22>    C        2.96132         1.54030         2.96601
| 23>    N        1.99986         2.47860         3.18919
| 24>    C        2.58335         3.53259         3.76377
| 25>    O        1.92690         4.61366         4.12500
| 26>    C        0.53263         4.60862         3.85980
| 27>    C        2.68330         0.27192         2.39796
| 28>    C        3.38893        -0.93377         2.62058
| 29>    C        2.74313        -1.91674         1.83221
| 30>    C        1.67947        -1.22842         1.18083
| 31>    N        1.65098         0.05433         1.53295
| 32>    O        0.82372        -1.78409         0.34267
| 33>    C       -0.18323        -0.92510        -0.16792
| 34>    C        3.36996        -3.14501         2.12768
| 35>    N        4.35123        -2.95673         3.06033
| 36>    C        4.36652        -1.65874         3.37154
| 37>    O        5.16477        -1.14907         4.28047
| 38>    C        6.05961        -2.05584         4.90288
| 39>    C        3.07708        -4.42341         1.61700
| 40>    C        3.63455        -5.63012         2.02272
| 41>    C        3.10183        -6.70369         1.32388
| 42>    C        2.14162        -6.30982         0.36255
| 43>    S        1.88262        -4.62269         0.34604
| 44>    C        1.66920        -7.46385        -0.30090
| 45>    C        2.31148        -8.59646         0.25223
| 46>    C        3.23145        -8.15148         1.28664
| 47>    C        4.04179        -8.92857         2.06138
| 48>    C        4.07611       -10.33431         1.94441
| 49>    N        4.11295       -11.47742         1.86273
| 50>    C        4.90350        -8.38314         3.03652
| 51>    N        5.60827        -7.95576         3.83362
| 52>    C        1.90246        -9.78575        -0.33329
| 53>    C        0.96746        -9.57034        -1.33880
| 54>    S        0.58455        -7.87085        -1.55466
| 55>    C        0.35852       -10.54896        -2.14636
| 56>    C       -0.51298       -10.36879        -3.24050
| 57>    C       -0.83552       -11.66253        -3.71687
| 58>    C       -0.09529       -12.55161        -2.87632
| 59>    N        0.59108       -11.88122        -1.94831
| 60>    O       -0.04770       -13.85768        -2.99885
| 61>    C        0.75736       -14.54316        -2.05420
| 62>    C       -1.62959       -11.46799        -4.87132
| 63>    N       -1.78138       -10.13383        -5.11247
| 64>    C       -1.13896        -9.47200        -4.15342
| 65>    O       -1.08640        -8.15513        -4.07193
| 66>    C       -1.75106        -7.44761        -5.10643
| 67>    C       -2.20660       -12.47284        -5.68752
| 68>    C       -2.59339       -13.77164        -5.28770
| 69>    C       -3.08621       -14.41723        -6.45676
| 70>    C       -2.96306       -13.43977        -7.48780
| 71>    N       -2.45508       -12.29947        -7.01517
| 72>    O       -3.30103       -13.61295        -8.74711
| 73>    C       -3.10325       -12.49631        -9.60049
| 74>    C       -3.52186       -15.68059        -6.04792
| 75>    N       -3.35659       -15.84760        -4.72772
| 76>    C       -2.81702       -14.70767        -4.24082
| 77>    O       -2.58677       -14.51332        -2.96413
| 78>    C       -2.89896       -15.59181        -2.09859
| 79>    H        5.48369         4.76836         4.74032
| 80>    H        7.97874         0.95091         4.22262
| 81>    H        8.11902         1.78428         2.66599
| 82>    H        8.11896        -0.00792         2.71400
| 83>    H        0.15947         5.57857         4.18134
| 84>    H        0.04544         3.80457         4.41438
| 85>    H        0.34952         4.45476         2.79509
| 86>    H       -0.81593        -1.54334        -0.80106
| 87>    H        0.26743        -0.11522        -0.74429
| 88>    H       -0.75907        -0.48851         0.64989
| 89>    H        6.61356        -1.47935         5.64058
| 90>    H        6.73651        -2.48903         4.16412
| 91>    H        5.50743        -2.86615         5.38273
| 92>    H        4.38063        -5.67059         2.79462
| 93>    H        2.23853       -10.77528        -0.08437
| 94>    H        0.70865       -15.59692        -2.31993
| 95>    H        0.37796       -14.38203        -1.04343
| 96>    H        1.78663       -14.18201        -2.09863
| 97>    H       -1.57103        -6.39196        -4.91515
| 98>    H       -2.82005        -7.66712        -5.08799
| 99>    H       -1.35488        -7.73994        -6.08037
|100>    H       -3.45841       -12.79927       -10.58310
|101>    H       -2.04503       -12.23139        -9.63721
|102>    H       -3.66308       -11.63450        -9.23342
|103>    H       -3.95131       -16.47141        -6.63560
|104>    H       -2.29706       -16.46706        -2.34939
|105>    H       -3.95333       -15.85951        -2.19062
|106>    H       -2.67647       -15.24801        -1.09055
|107> *
|108> 
|109>                          ****END OF INPUT****
================================================================================

                       ****************************
                       * Single Point Calculation *
                       ****************************

---------------------------------
CARTESIAN COORDINATES (ANGSTROEM)
---------------------------------
  C      5.236830    3.821980    4.294650
  C      3.985010    3.323960    3.923300
  C      4.218120    2.022880    3.394760
  C      5.629420    1.859590    3.455570
  N      6.211180    2.944220    4.014930
  O      6.312300    0.835360    3.002440
  C      7.719330    0.898640    3.163750
  C      2.961320    1.540300    2.966010
  N      1.999860    2.478600    3.189190
  C      2.583350    3.532590    3.763770
  O      1.926900    4.613660    4.125000
  C      0.532630    4.608620    3.859800
  C      2.683300    0.271920    2.397960
  C      3.388930   -0.933770    2.620580
  C      2.743130   -1.916740    1.832210
  C      1.679470   -1.228420    1.180830
  N      1.650980    0.054330    1.532950
  O      0.823720   -1.784090    0.342670
  C     -0.183230   -0.925100   -0.167920
  C      3.369960   -3.145010    2.127680
  N      4.351230   -2.956730    3.060330
  C      4.366520   -1.658740    3.371540
  O      5.164770   -1.149070    4.280470
  C      6.059610   -2.055840    4.902880
  C      3.077080   -4.423410    1.617000
  C      3.634550   -5.630120    2.022720
  C      3.101830   -6.703690    1.323880
  C      2.141620   -6.309820    0.362550
  S      1.882620   -4.622690    0.346040
  C      1.669200   -7.463850   -0.300900
  C      2.311480   -8.596460    0.252230
  C      3.231450   -8.151480    1.286640
  C      4.041790   -8.928570    2.061380
  C      4.076110  -10.334310    1.944410
  N      4.112950  -11.477420    1.862730
  C      4.903500   -8.383140    3.036520
  N      5.608270   -7.955760    3.833620
  C      1.902460   -9.785750   -0.333290
  C      0.967460   -9.570340   -1.338800
  S      0.584550   -7.870850   -1.554660
  C      0.358520  -10.548960   -2.146360
  C     -0.512980  -10.368790   -3.240500
  C     -0.835520  -11.662530   -3.716870
  C     -0.095290  -12.551610   -2.876320
  N      0.591080  -11.881220   -1.948310
  O     -0.047700  -13.857680   -2.998850
  C      0.757360  -14.543160   -2.054200
  C     -1.629590  -11.467990   -4.871320
  N     -1.781380  -10.133830   -5.112470
  C     -1.138960   -9.472000   -4.153420
  O     -1.086400   -8.155130   -4.071930
  C     -1.751060   -7.447610   -5.106430
  C     -2.206600  -12.472840   -5.687520
  C     -2.593390  -13.771640   -5.287700
  C     -3.086210  -14.417230   -6.456760
  C     -2.963060  -13.439770   -7.487800
  N     -2.455080  -12.299470   -7.015170
  O     -3.301030  -13.612950   -8.747110
  C     -3.103250  -12.496310   -9.600490
  C     -3.521860  -15.680590   -6.047920
  N     -3.356590  -15.847600   -4.727720
  C     -2.817020  -14.707670   -4.240820
  O     -2.586770  -14.513320   -2.964130
  C     -2.898960  -15.591810   -2.098590
  H      5.483690    4.768360    4.740320
  H      7.978740    0.950910    4.222620
  H      8.119020    1.784280    2.665990
  H      8.118960   -0.007920    2.714000
  H      0.159470    5.578570    4.181340
  H      0.045440    3.804570    4.414380
  H      0.349520    4.454760    2.795090
  H     -0.815930   -1.543340   -0.801060
  H      0.267430   -0.115220   -0.744290
  H     -0.759070   -0.488510    0.649890
  H      6.613560   -1.479350    5.640580
  H      6.736510   -2.489030    4.164120
  H      5.507430   -2.866150    5.382730
  H      4.380630   -5.670590    2.794620
  H      2.238530  -10.775280   -0.084370
  H      0.708650  -15.596920   -2.319930
  H      0.377960  -14.382030   -1.043430
  H      1.786630  -14.182010   -2.098630
  H     -1.571030   -6.391960   -4.915150
  H     -2.820050   -7.667120   -5.087990
  H     -1.354880   -7.739940   -6.080370
  H     -3.458410  -12.799270  -10.583100
  H     -2.045030  -12.231390   -9.637210
  H     -3.663080  -11.634500   -9.233420
  H     -3.951310  -16.471410   -6.635600
  H     -2.297060  -16.467060   -2.349390
  H     -3.953330  -15.859510   -2.190620
  H     -2.676470  -15.248010   -1.090550

----------------------------
CARTESIAN COORDINATES (A.U.)
----------------------------
  NO LB      ZA    FRAG     MASS         X           Y           Z
   0 C     6.0000    0    12.011    9.896175    7.222495    8.115712
   1 C     6.0000    0    12.011    7.530578    6.281374    7.413963
   2 C     6.0000    0    12.011    7.971092    3.822689    6.415167
   3 C     6.0000    0    12.011   10.638062    3.514116    6.530081
   4 N     7.0000    0    14.007   11.737429    5.563769    7.587118
   5 O     8.0000    0    15.999   11.928518    1.578602    5.673789
   6 C     6.0000    0    12.011   14.587420    1.698183    5.978621
   7 C     6.0000    0    12.011    5.596084    2.910745    5.604947
   8 N     7.0000    0    14.007    3.779188    4.683875    6.026696
   9 C     6.0000    0    12.011    4.881824    6.675628    7.112495
  10 O     8.0000    0    15.999    3.641313    8.718554    7.795120
  11 C     6.0000    0    12.011    1.006525    8.709030    7.293965
  12 C     6.0000    0    12.011    5.070702    0.513854    4.531488
  13 C     6.0000    0    12.011    6.404150   -1.764570    4.952179
  14 C     6.0000    0    12.011    5.183764   -3.622114    3.462375
  15 C     6.0000    0    12.011    3.173738   -2.321377    2.231445
  16 N     7.0000    0    14.007    3.119900    0.102669    2.896856
  17 O     8.0000    0    15.999    1.556605   -3.371441    0.647552
  18 C     6.0000    0    12.011   -0.346255   -1.748186   -0.317323
  19 C     6.0000    0    12.011    6.368301   -5.943208    4.020733
  20 N     7.0000    0    14.007    8.222633   -5.587410    5.783186
  21 C     6.0000    0    12.011    8.251527   -3.134564    6.371287
  22 O     8.0000    0    15.999    9.760001   -2.171428    8.088916
  23 C     6.0000    0    12.011   11.451003   -3.884975    9.265100
  24 C     6.0000    0    12.011    5.814838   -8.359033    3.055687
  25 C     6.0000    0    12.011    6.868304  -10.639385    3.822387
  26 C     6.0000    0    12.011    5.861609  -12.668138    2.501771
  27 C     6.0000    0    12.011    4.047075  -11.923832    0.685120
  28 S    16.0000    0    32.060    3.557636   -8.735618    0.653921
  29 C     6.0000    0    12.011    3.154331  -14.104632   -0.568619
  30 C     6.0000    0    12.011    4.368064  -16.244955    0.476646
  31 C     6.0000    0    12.011    6.106556  -15.404065    2.431397
  32 C     6.0000    0    12.011    7.637876  -16.872552    3.895444
  33 C     6.0000    0    12.011    7.702732  -19.529016    3.674402
  34 N     7.0000    0    14.007    7.772349  -21.689181    3.520050
  35 C     6.0000    0    12.011    9.266272  -15.841839    5.738191
  36 N     7.0000    0    14.007   10.598094  -15.034208    7.244492
  37 C     6.0000    0    12.011    3.595128  -18.492388   -0.629827
  38 C     6.0000    0    12.011    1.828234  -18.085322   -2.529965
  39 S    16.0000    0    32.060    1.104639  -14.873751   -2.937882
  40 C     6.0000    0    12.011    0.677505  -19.934645   -4.056033
  41 C     6.0000    0    12.011   -0.969392  -19.594173   -6.123658
  42 C     6.0000    0    12.011   -1.578904  -22.038988   -7.023866
  43 C     6.0000    0    12.011   -0.180072  -23.719105   -5.435457
  44 N     7.0000    0    14.007    1.116979  -22.452252   -3.681772
  45 O     8.0000    0    15.999   -0.090140  -26.187220   -5.667005
  46 C     6.0000    0    12.011    1.431203  -27.482590   -3.881875
  47 C     6.0000    0    12.011   -3.079479  -21.671360   -9.205461
  48 N     7.0000    0    14.007   -3.366320  -19.150163   -9.661168
  49 C     6.0000    0    12.011   -2.152322  -17.899486   -7.848826
  50 O     8.0000    0    15.999   -2.052998  -15.410962   -7.694833
  51 C     6.0000    0    12.011   -3.309024  -14.073943   -9.649754
  52 C     6.0000    0    12.011   -4.169870  -23.570252  -10.747855
  53 C     6.0000    0    12.011   -4.900797  -26.024628   -9.992305
  54 C     6.0000    0    12.011   -5.832092  -27.244616  -12.201508
  55 C     6.0000    0    12.011   -5.599372  -25.397485  -14.149891
  56 N     7.0000    0    14.007   -4.639429  -23.242630  -13.256750
  57 O     8.0000    0    15.999   -6.238043  -25.724747  -16.529642
  58 C     6.0000    0    12.011   -5.864293  -23.614604  -18.142297
  59 C     6.0000    0    12.011   -6.655351  -29.632021  -11.428912
  60 N     7.0000    0    14.007   -6.343036  -29.947624   -8.934096
  61 C     6.0000    0    12.011   -5.323396  -27.793468   -8.013988
  62 O     8.0000    0    15.999   -4.888287  -27.426200   -5.601394
  63 C     6.0000    0    12.011   -5.478240  -29.464251   -3.965760
  64 H     1.0000    0     1.008   10.362672    9.010895    8.957907
  65 H     1.0000    0     1.008   15.077633    1.796959    7.979595
  66 H     1.0000    0     1.008   15.342724    3.371801    5.037991
  67 H     1.0000    0     1.008   15.342611   -0.014967    5.128717
  68 H     1.0000    0     1.008    0.301355   10.541970    7.901587
  69 H     1.0000    0     1.008    0.085869    7.189595    8.341969
  70 H     1.0000    0     1.008    0.660497    8.418276    5.281955
  71 H     1.0000    0     1.008   -1.541884   -2.916490   -1.513784
  72 H     1.0000    0     1.008    0.505369   -0.217734   -1.406504
  73 H     1.0000    0     1.008   -1.434434   -0.923150    1.228114
  74 H     1.0000    0     1.008   12.497817   -2.795566   10.659151
  75 H     1.0000    0     1.008   12.730159   -4.703585    7.869046
  76 H     1.0000    0     1.008   10.407534   -5.416239   10.171886
  77 H     1.0000    0     1.008    8.278191  -10.715862    5.281066
  78 H     1.0000    0     1.008    4.230209  -20.362328   -0.159436
  79 H     1.0000    0     1.008    1.339154  -29.473907   -4.384032
  80 H     1.0000    0     1.008    0.714241  -27.178098   -1.971797
  81 H     1.0000    0     1.008    3.376241  -26.800115   -3.965836
  82 H     1.0000    0     1.008   -2.968816  -12.079054   -9.288287
  83 H     1.0000    0     1.008   -5.329122  -14.488757   -9.614908
  84 H     1.0000    0     1.008   -2.560352  -14.626367  -11.490234
  85 H     1.0000    0     1.008   -6.535448  -24.187115  -19.999161
  86 H     1.0000    0     1.008   -3.864547  -23.113977  -18.211688
  87 H     1.0000    0     1.008   -6.922218  -21.986019  -17.448635
  88 H     1.0000    0     1.008   -7.466894  -31.126454  -12.539467
  89 H     1.0000    0     1.008   -4.340814  -31.118234   -4.439704
  90 H     1.0000    0     1.008   -7.470711  -29.970131   -4.139672
  91 H     1.0000    0     1.008   -5.057795  -28.814563   -2.060841

--------------------------------
INTERNAL COORDINATES (ANGSTROEM)
--------------------------------
 C      0   0   0     0.000000000000     0.00000000     0.00000000
 C      1   0   0     1.397489912414     0.00000000     0.00000000
 C      2   1   0     1.423553290221   106.12204216     0.00000000
 C      3   2   1     1.422015882541   104.57172164   358.21099187
 N      1   2   3     1.340919020113   111.23407622     1.09401157
 O      4   3   2     1.311754163020   126.26712226   184.13019605
 C      6   4   3     1.417659583751   116.26496855   179.41105734
 C      3   2   1     1.412889330026   106.21105816   182.44489341
 N      8   3   2     1.361844900861   110.05630062     0.83271389
 C      9   8   3     1.334727566434   107.81759328   358.94819554
 O     10   9   8     1.315342563859   123.30323578   180.76263002
 C     11  10   9     1.419276320700   115.85173519   359.61506988
 C      8   3   2     1.417308628105   126.99738712   181.59145637
 C     13   8   3     1.414624238941   127.00071593    28.12574081
 C     14  13   8     1.415914869545   106.05524251   180.31659595
 C     15  14  13     1.424588685340   105.05232839     0.00000000
 N     16  15  14     1.330506571573   111.14975719   359.47076498
 O     16  15  14     1.320450452308   124.80520572   179.88064150
 C     18  16  15     1.418631125663   115.69981266   178.37824233
 C     15  14  13     1.410271450005   106.57414995   184.60116635
 N     20  15  14     1.366812420854   110.00414040     0.51611063
 C     21  20  15     1.334864595493   107.53288396     0.27250732
 O     22  21  20     1.312676775257   123.08887907   177.39004985
 C     23  22  21     1.417873290037   116.06780868     1.87196967
 C     20  15  14     1.407437144884   128.50494762   179.00117326
 C     25  20  15     1.389795144401   126.81732177   186.40137975
 C     26  25  20     1.387342960086   111.76595715   178.93134010
 C     27  26  25     1.414670346724   112.79813337     0.82575588
 S     28  27  26     1.706974287153   112.62768793   358.99497878
 C     28  27  26     1.412491345035   108.58582489   179.47638641
 C     30  28  27     1.414666677136   108.57942848     0.96158213
 C     27  26  25     1.454057786369   138.51828567   181.29979407
 C     32  27  26     1.364090118467   127.27424998     0.14479977
 C     33  32  27     1.411015517597   122.33804627   179.43204374
 N     34  33  32     1.146616448556   179.19497829   189.68747665
 C     33  32  27     1.411005325504   122.35007032   359.48526718
 N     36  33  32     1.146613634709   179.14384453   176.28838006
 C     31  30  28     1.387278535443   112.79728081   179.59408754
 C     38  31  30     1.389847771592   111.76666794     0.76109714
 S     30  28  27     1.707052652996   138.78870937   181.65194730
 C     39  38  31     1.407358583162   126.75850427   179.12389200
 C     41  39  38     1.410360173325   128.58630745   185.35468750
 C     42  41  39     1.415882627939   106.56178728   179.51805062
 C     43  42  41     1.430009790806   104.62048176   358.71394174
 N     44  43  42     1.334814252658   111.25835222     1.48366773
 O     44  43  42     1.312667990735   125.62689370   183.23401298
 C     46  44  43     1.417874485453   116.06694517   179.74624877
 C     43  42  41     1.414619305326   106.06836227   184.15786535
 N     48  43  42     1.364249402492   109.94985338     0.69612701
 C     49  48  43     1.330601107695   107.77610757   359.02429225
 O     50  49  48     1.320435447343   124.03839576   180.44520825
 C     51  50  49     1.418642913492   115.70455838   358.86152071
 C     48  43  42     1.417337822327   126.94025816   180.82785408
 C     53  48  43     1.412920371606   126.88407940    28.01403035
 C     54  53  48     1.423502470704   106.21670131   181.41511143
 C     55  54  53     1.426056610272   104.65597377   359.71341358
 N     56  55  54     1.334805936194   111.24841538   359.64659564
 O     56  55  54     1.315323804012   125.43480487   179.77492439
 C     58  56  55     1.419246011937   115.86721286   179.41886799
 C     55  54  53     1.397504761244   106.12022975   182.50510730
 N     60  55  54     1.340945395234   111.23503157     1.06110176
 C     61  60  55     1.351905248085   107.38310729     0.16874797
 O     62  61  60     1.311763828248   123.05971508   176.58974163
 C     63  62  61     1.417661020061   116.28586365     1.84469501
 H      1   2   3     1.074800778238   129.02877672   180.54699875
 H      7   6   4     1.091435466668   110.39098000    61.35275626
 H      7   6   4     1.091730426113   110.34628401   301.48935087
 H      7   6   4     1.088039628414   106.27891623   181.45718210
 H     12  11  10     1.087859990854   106.17564995   182.13362401
 H     12  11  10     1.091517052089   110.25236558    62.17555528
 H     12  11  10     1.091242207670   110.34403905   302.36446186
 H     19  18  16     1.087840175393   106.15202278   182.17763490
 H     19  18  16     1.091422203778   110.26079289    62.15568473
 H     19  18  16     1.091336671151   110.30693312   302.37940566
 H     24  23  22     1.087843101095   106.26895015   181.82703192
 H     24  23  22     1.091610518317   110.36846718    61.75290719
 H     24  23  22     1.091678098617   110.39108797   301.86781965
 H     26  25  20     1.074291765444   121.40166188   359.31725573
 H     38  31  30     1.074278284338   126.84285724   180.35967335
 H     47  46  44     1.087839709976   106.26861862   181.81274543
 H     47  46  44     1.091587481515   110.37772183    61.72319492
 H     47  46  44     1.091695965139   110.38190433   301.83952457
 H     52  51  50     1.087839952291   106.15364112   182.62844953
 H     52  51  50     1.091450545742   110.25831293    62.62371517
 H     52  51  50     1.091317801972   110.31042587   302.84581065
 H     59  58  56     1.087862950605   106.17109441   181.69478190
 H     59  58  56     1.091494632694   110.26109436    61.71888505
 H     59  58  56     1.091268294188   110.34070295   301.90158554
 H     60  55  54     1.074798286796   129.03198288   180.54182515
 H     64  63  62     1.091442537425   110.38498019    61.58622950
 H     64  63  62     1.091709168140   110.35040525   301.71408880
 H     64  63  62     1.088046360088   106.27414514   181.67584632

---------------------------
INTERNAL COORDINATES (A.U.)
---------------------------
 C      0   0   0     0.000000000000     0.00000000     0.00000000
 C      1   0   0     2.640873209381     0.00000000     0.00000000
 C      2   1   0     2.690125855561   106.12204216     0.00000000
 C      3   2   1     2.687220576090   104.57172164   358.21099187
 N      1   2   3     2.533969715779   111.23407622     1.09401157
 O      4   3   2     2.478856123139   126.26712226   184.13019605
 C      6   4   3     2.678988364417   116.26496855   179.41105734
 C      3   2   1     2.669973891288   106.21105816   182.44489341
 N      8   3   2     2.573513899504   110.05630062     0.83271389
 C      9   8   3     2.522269563956   107.81759328   358.94819554
 O     10   9   8     2.485637217984   123.30323578   180.76263002
 C     11  10   9     2.682043554483   115.85173519   359.61506988
 C      8   3   2     2.678325154362   126.99738712   181.59145637
 C     13   8   3     2.673252394006   127.00071593    28.12574081
 C     14  13   8     2.675691332388   106.05524251   180.31659595
 C     15  14  13     2.692082468776   105.05232839     0.00000000
 N     16  15  14     2.514293039656   111.14975719   359.47076498
 O     16  15  14     2.495289728274   124.80520572   179.88064150
 C     18  16  15     2.680824312560   115.69981266   178.37824233
 C     15  14  13     2.665026814998   106.57414995   184.60116635
 N     20  15  14     2.582901151855   110.00414040     0.51611063
 C     21  20  15     2.522528511349   107.53288396     0.27250732
 O     22  21  20     2.480599607595   123.08887907   177.39004985
 C     23  22  21     2.679392210772   116.06780868     1.87196967
 C     20  15  14     2.659670754539   128.50494762   179.00117326
 C     25  20  15     2.626332205171   126.81732177   186.40137975
 C     26  25  20     2.621698248386   111.76595715   178.93134010
 C     27  26  25     2.673339525088   112.79813337     0.82575588
 S     28  27  26     3.225713920364   112.62768793   358.99497878
 C     28  27  26     2.669221808651   108.58582489   179.47638641
 C     30  28  27     2.673332590572   108.57942848     0.96158213
 C     27  26  25     2.747770999133   138.51828567   181.29979407
 C     32  27  26     2.577756745891   127.27424998     0.14479977
 C     33  32  27     2.666432898972   122.33804627   179.43204374
 N     34  33  32     2.166791068421   179.19497829   189.68747665
 C     33  32  27     2.666413638707   122.35007032   359.48526718
 N     36  33  32     2.166785751020   179.14384453   176.28838006
 C     31  30  28     2.621576503454   112.79728081   179.59408754
 C     38  31  30     2.626431656150   111.76666794     0.76109714
 S     30  28  27     3.225862010346   138.78870937   181.65194730
 C     39  38  31     2.659522294400   126.75850427   179.12389200
 C     41  39  38     2.665194477773   128.58630745   185.35468750
 C     42  41  39     2.675630404582   106.56178728   179.51805062
 C     43  42  41     2.702326873449   104.62048176   358.71394174
 N     44  43  42     2.522433377179   111.25835222     1.48366773
 O     44  43  42     2.480583007254   125.62689370   183.23401298
 C     46  44  43     2.679394469782   116.06694517   179.74624877
 C     43  42  41     2.673243070823   106.06836227   184.15786535
 N     48  43  42     2.578057749076   109.94985338     0.69612701
 C     49  48  43     2.514471687036   107.77610757   359.02429225
 O     50  49  48     2.495261373000   124.03839576   180.44520825
 C     51  50  49     2.680846588327   115.70455838   358.86152071
 C     48  43  42     2.678380323447   126.94025816   180.82785408
 C     53  48  43     2.670032551374   126.88407940    28.01403035
 C     54  53  48     2.690029820591   106.21670131   181.41511143
 C     55  54  53     2.694856444882   104.65597377   359.71341358
 N     56  55  54     2.522417661340   111.24841538   359.64659564
 O     56  55  54     2.485601767010   125.43480487   179.77492439
 C     58  56  55     2.681986279221   115.86721286   179.41886799
 C     55  54  53     2.640901269602   106.12022975   182.50510730
 N     60  55  54     2.534019557536   111.23503157     1.06110176
 C     61  60  55     2.554730677892   107.38310729     0.16874797
 O     62  61  60     2.478874387773   123.05971508   176.58974163
 C     63  62  61     2.678991078650   116.28586365     1.84469501
 H      1   2   3     2.031079119394   129.02877672   180.54699875
 H      7   6   4     2.062514124850   110.39098000    61.35275626
 H      7   6   4     2.063071517422   110.34628401   301.48935087
 H      7   6   4     2.056096920557   106.27891623   181.45718210
 H     12  11  10     2.055757454763   106.17564995   182.13362401
 H     12  11  10     2.062668298952   110.25236558    62.17555528
 H     12  11  10     2.062148918271   110.34403905   302.36446186
 H     19  18  16     2.055720008970   106.15202278   182.17763490
 H     19  18  16     2.062489061622   110.26079289    62.15568473
 H     19  18  16     2.062327428382   110.30693312   302.37940566
 H     24  23  22     2.055725537745   106.26895015   181.82703192
 H     24  23  22     2.062844924527   110.36846718    61.75290719
 H     24  23  22     2.062972632786   110.39108797   301.86781965
 H     26  25  20     2.030117224615   121.40166188   359.31725573
 H     38  31  30     2.030091749017   126.84285724   180.35967335
 H     47  46  44     2.055719129458   106.26861862   181.81274543
 H     47  46  44     2.062801391280   110.37772183    61.72319492
 H     47  46  44     2.063006395619   110.38190433   301.83952457
 H     52  51  50     2.055719587368   106.15364112   182.62844953
 H     52  51  50     2.062542620171   110.25831293    62.62371517
 H     52  51  50     2.062291770799   110.31042587   302.84581065
 H     59  58  56     2.055763047884   106.17109441   181.69478190
 H     59  58  56     2.062625932437   110.26109436    61.71888505
 H     59  58  56     2.062198214647   110.34070295   301.90158554
 H     60  55  54     2.031074411253   129.03198288   180.54182515
 H     64  63  62     2.062527486645   110.38498019    61.58622950
 H     64  63  62     2.063031345675   110.35040525   301.71408880
 H     64  63  62     2.056109641576   106.27414514   181.67584632

---------------------
BASIS SET INFORMATION
---------------------
There are 5 groups of distinct atoms

 Group   1 Type C   : 7s4p1d contracted to 3s2p1d pattern {511/31/1}
 Group   2 Type N   : 7s4p1d contracted to 3s2p1d pattern {511/31/1}
 Group   3 Type O   : 7s4p1d contracted to 3s2p1d pattern {511/31/1}
 Group   4 Type S   : 10s7p1d contracted to 4s3p1d pattern {5311/511/1}
 Group   5 Type H   : 4s1p contracted to 2s1p pattern {31/1}

Atom   0C    basis set group =>   1
Atom   1C    basis set group =>   1
Atom   2C    basis set group =>   1
Atom   3C    basis set group =>   1
Atom   4N    basis set group =>   2
Atom   5O    basis set group =>   3
Atom   6C    basis set group =>   1
Atom   7C    basis set group =>   1
Atom   8N    basis set group =>   2
Atom   9C    basis set group =>   1
Atom  10O    basis set group =>   3
Atom  11C    basis set group =>   1
Atom  12C    basis set group =>   1
Atom  13C    basis set group =>   1
Atom  14C    basis set group =>   1
Atom  15C    basis set group =>   1
Atom  16N    basis set group =>   2
Atom  17O    basis set group =>   3
Atom  18C    basis set group =>   1
Atom  19C    basis set group =>   1
Atom  20N    basis set group =>   2
Atom  21C    basis set group =>   1
Atom  22O    basis set group =>   3
Atom  23C    basis set group =>   1
Atom  24C    basis set group =>   1
Atom  25C    basis set group =>   1
Atom  26C    basis set group =>   1
Atom  27C    basis set group =>   1
Atom  28S    basis set group =>   4
Atom  29C    basis set group =>   1
Atom  30C    basis set group =>   1
Atom  31C    basis set group =>   1
Atom  32C    basis set group =>   1
Atom  33C    basis set group =>   1
Atom  34N    basis set group =>   2
Atom  35C    basis set group =>   1
Atom  36N    basis set group =>   2
Atom  37C    basis set group =>   1
Atom  38C    basis set group =>   1
Atom  39S    basis set group =>   4
Atom  40C    basis set group =>   1
Atom  41C    basis set group =>   1
Atom  42C    basis set group =>   1
Atom  43C    basis set group =>   1
Atom  44N    basis set group =>   2
Atom  45O    basis set group =>   3
Atom  46C    basis set group =>   1
Atom  47C    basis set group =>   1
Atom  48N    basis set group =>   2
Atom  49C    basis set group =>   1
Atom  50O    basis set group =>   3
Atom  51C    basis set group =>   1
Atom  52C    basis set group =>   1
Atom  53C    basis set group =>   1
Atom  54C    basis set group =>   1
Atom  55C    basis set group =>   1
Atom  56N    basis set group =>   2
Atom  57O    basis set group =>   3
Atom  58C    basis set group =>   1
Atom  59C    basis set group =>   1
Atom  60N    basis set group =>   2
Atom  61C    basis set group =>   1
Atom  62O    basis set group =>   3
Atom  63C    basis set group =>   1
Atom  64H    basis set group =>   5
Atom  65H    basis set group =>   5
Atom  66H    basis set group =>   5
Atom  67H    basis set group =>   5
Atom  68H    basis set group =>   5
Atom  69H    basis set group =>   5
Atom  70H    basis set group =>   5
Atom  71H    basis set group =>   5
Atom  72H    basis set group =>   5
Atom  73H    basis set group =>   5
Atom  74H    basis set group =>   5
Atom  75H    basis set group =>   5
Atom  76H    basis set group =>   5
Atom  77H    basis set group =>   5
Atom  78H    basis set group =>   5
Atom  79H    basis set group =>   5
Atom  80H    basis set group =>   5
Atom  81H    basis set group =>   5
Atom  82H    basis set group =>   5
Atom  83H    basis set group =>   5
Atom  84H    basis set group =>   5
Atom  85H    basis set group =>   5
Atom  86H    basis set group =>   5
Atom  87H    basis set group =>   5
Atom  88H    basis set group =>   5
Atom  89H    basis set group =>   5
Atom  90H    basis set group =>   5
Atom  91H    basis set group =>   5
---------------------------------
AUXILIARY/J BASIS SET INFORMATION
---------------------------------
There are 5 groups of distinct atoms

 Group   1 Type C   : 12s5p4d2f1g contracted to 6s4p3d1f1g pattern {711111/2111/211/2/1}
 Group   2 Type N   : 12s5p4d2f1g contracted to 6s4p3d1f1g pattern {711111/2111/211/2/1}
 Group   3 Type O   : 12s5p4d2f1g contracted to 6s4p3d1f1g pattern {711111/2111/211/2/1}
 Group   4 Type S   : 14s5p5d2f1g contracted to 8s4p3d1f1g pattern {71111111/2111/311/2/1}
 Group   5 Type H   : 5s2p1d contracted to 3s1p1d pattern {311/2/1}

Atom   0C    basis set group =>   1
Atom   1C    basis set group =>   1
Atom   2C    basis set group =>   1
Atom   3C    basis set group =>   1
Atom   4N    basis set group =>   2
Atom   5O    basis set group =>   3
Atom   6C    basis set group =>   1
Atom   7C    basis set group =>   1
Atom   8N    basis set group =>   2
Atom   9C    basis set group =>   1
Atom  10O    basis set group =>   3
Atom  11C    basis set group =>   1
Atom  12C    basis set group =>   1
Atom  13C    basis set group =>   1
Atom  14C    basis set group =>   1
Atom  15C    basis set group =>   1
Atom  16N    basis set group =>   2
Atom  17O    basis set group =>   3
Atom  18C    basis set group =>   1
Atom  19C    basis set group =>   1
Atom  20N    basis set group =>   2
Atom  21C    basis set group =>   1
Atom  22O    basis set group =>   3
Atom  23C    basis set group =>   1
Atom  24C    basis set group =>   1
Atom  25C    basis set group =>   1
Atom  26C    basis set group =>   1
Atom  27C    basis set group =>   1
Atom  28S    basis set group =>   4
Atom  29C    basis set group =>   1
Atom  30C    basis set group =>   1
Atom  31C    basis set group =>   1
Atom  32C    basis set group =>   1
Atom  33C    basis set group =>   1
Atom  34N    basis set group =>   2
Atom  35C    basis set group =>   1
Atom  36N    basis set group =>   2
Atom  37C    basis set group =>   1
Atom  38C    basis set group =>   1
Atom  39S    basis set group =>   4
Atom  40C    basis set group =>   1
Atom  41C    basis set group =>   1
Atom  42C    basis set group =>   1
Atom  43C    basis set group =>   1
Atom  44N    basis set group =>   2
Atom  45O    basis set group =>   3
Atom  46C    basis set group =>   1
Atom  47C    basis set group =>   1
Atom  48N    basis set group =>   2
Atom  49C    basis set group =>   1
Atom  50O    basis set group =>   3
Atom  51C    basis set group =>   1
Atom  52C    basis set group =>   1
Atom  53C    basis set group =>   1
Atom  54C    basis set group =>   1
Atom  55C    basis set group =>   1
Atom  56N    basis set group =>   2
Atom  57O    basis set group =>   3
Atom  58C    basis set group =>   1
Atom  59C    basis set group =>   1
Atom  60N    basis set group =>   2
Atom  61C    basis set group =>   1
Atom  62O    basis set group =>   3
Atom  63C    basis set group =>   1
Atom  64H    basis set group =>   5
Atom  65H    basis set group =>   5
Atom  66H    basis set group =>   5
Atom  67H    basis set group =>   5
Atom  68H    basis set group =>   5
Atom  69H    basis set group =>   5
Atom  70H    basis set group =>   5
Atom  71H    basis set group =>   5
Atom  72H    basis set group =>   5
Atom  73H    basis set group =>   5
Atom  74H    basis set group =>   5
Atom  75H    basis set group =>   5
Atom  76H    basis set group =>   5
Atom  77H    basis set group =>   5
Atom  78H    basis set group =>   5
Atom  79H    basis set group =>   5
Atom  80H    basis set group =>   5
Atom  81H    basis set group =>   5
Atom  82H    basis set group =>   5
Atom  83H    basis set group =>   5
Atom  84H    basis set group =>   5
Atom  85H    basis set group =>   5
Atom  86H    basis set group =>   5
Atom  87H    basis set group =>   5
Atom  88H    basis set group =>   5
Atom  89H    basis set group =>   5
Atom  90H    basis set group =>   5
Atom  91H    basis set group =>   5


           ************************************************************
           *        Program running with 6 parallel MPI-processes     *
           *              working on a common directory               *
           ************************************************************
------------------------------------------------------------------------------
                           ORCA GTO INTEGRAL CALCULATION
                           -- RI-GTO INTEGRALS CHOSEN --
------------------------------------------------------------------------------

                         BASIS SET STATISTICS AND STARTUP INFO

Gaussian basis set:
 # of primitive gaussian shells          ...  920
 # of primitive gaussian functions       ... 1756
 # of contracted shells                  ...  472
 # of contracted basis functions         ... 1044
 Highest angular momentum                ...    2
 Maximum contraction depth               ...    5
Auxiliary gaussian basis set:
 # of primitive gaussian shells          ... 1766
 # of primitive gaussian functions       ... 4942
 # of contracted shells                  ... 1104
 # of contracted aux-basis functions     ... 3448
 Highest angular momentum                ...    4
 Maximum contraction depth               ...    7
Ratio of auxiliary to basis functions    ...  3.30
Integral package used                  ... LIBINT
 One Electron integrals                  ... done
 Ordering auxiliary basis shells         ... done
 Integral threshhold             Thresh  ...  2.500e-11
 Primitive cut-off               TCut    ...  2.500e-12
 Pre-screening matrix                    ... done
 Shell pair data                         ... 
 Ordering of the shell pairs             ... done (   0.008 sec) 38745 of 111628 pairs
 Determination of significant pairs      ... done (   0.000 sec)
 Creation of shell pair data             ... done (   0.004 sec)
 Storage of shell pair data              ... done (   0.005 sec)
 Shell pair data done in (   0.017 sec)
 Computing two index integrals           ... done
 Cholesky decomposition of the V-matrix  ... done


Timings:
 Total evaluation time                   ...   1.718 sec (  0.029 min)
 One electron matrix time                ...   0.385 sec (  0.006 min) = 22.4%
 Schwartz matrix evaluation time         ...   0.455 sec (  0.008 min) = 26.5%
 Two index repulsion integral time       ...   0.195 sec (  0.003 min) = 11.3%
 Cholesky decomposition of V             ...   0.651 sec (  0.011 min) = 37.9%
 Three index repulsion integral time     ...   0.000 sec (  0.000 min) =  0.0%



           ************************************************************
           *        Program running with 6 parallel MPI-processes     *
           *              working on a common directory               *
           ************************************************************
-------------------------------------------------------------------------------
                                 ORCA SCF
-------------------------------------------------------------------------------

------------
SCF SETTINGS
------------
Hamiltonian:
 Density Functional     Method          .... DFT(GTOs)
 Exchange Functional    Exchange        .... WB88
 Correlation Functional Correlation     .... LYP
 LDA part of GGA corr.  LDAOpt          .... VWN-5
 Gradients option       PostSCFGGA      .... off
 Hybrid DFT is turned on
   Fraction HF Exchange ScalHFX         ....  0.190000
   Scaling of DF-GGA-X  ScalDFX         ....  0.350000
   Scaling of DF-GGA-C  ScalDFC         ....  0.810000
   Scaling of DF-LDA-C  ScalLDAC        ....  1.000000
   Perturbative correction              ....  0.000000
   Density functional embedding theory  .... OFF
 Long-range corrected/Screened/Range-Separated Hybrid DFT is turned on
   Amount of maximum screened exact exchange              ....  0.460000
   Range separation parameter mu (erf(mu*r12)/r12)        ....  0.330000
 RI-approximation to the Coulomb term is turned on
   Number of auxiliary basis functions  .... 3448
   RIJ-COSX (HFX calculated with COS-X)).... on


General Settings:
 Integral files         IntName         .... xtbopt
 Hartree-Fock type      HFTyp           .... RHF
 Total Charge           Charge          ....    0
 Multiplicity           Mult            ....    1
 Number of Electrons    NEL             ....  458
 Basis Dimension        Dim             .... 1044
 Nuclear Repulsion      ENuc            ....   8830.5648097180 Eh

Convergence Acceleration:
 DIIS                   CNVDIIS         .... on
   Start iteration      DIISMaxIt       ....    12
   Startup error        DIISStart       ....  0.200000
   # of expansion vecs  DIISMaxEq       ....     5
   Bias factor          DIISBfac        ....   1.050
   Max. coefficient     DIISMaxC        ....  10.000
 Newton-Raphson         CNVNR           .... off
 SOSCF                  CNVSOSCF        .... on
   Start iteration      SOSCFMaxIt      ....   150
   Startup grad/error   SOSCFStart      ....  0.003300
 Level Shifting         CNVShift        .... on
   Level shift para.    LevelShift      ....    0.2500
   Turn off err/grad.   ShiftErr        ....    0.0010
 Zerner damping         CNVZerner       .... off
 Static damping         CNVDamp         .... on
   Fraction old density DampFac         ....    0.7000
   Max. Damping (<1)    DampMax         ....    0.9800
   Min. Damping (>=0)   DampMin         ....    0.0000
   Turn off err/grad.   DampErr         ....    0.1000
 Fernandez-Rico         CNVRico         .... off

SCF Procedure:
 Maximum # iterations   MaxIter         ....   125
 SCF integral mode      SCFMode         .... Direct
   Integral package                     .... LIBINT
 Reset frequency        DirectResetFreq ....    20
 Integral Threshold     Thresh          ....  2.500e-11 Eh
 Primitive CutOff       TCut            ....  2.500e-12 Eh

Convergence Tolerance:
 Convergence Check Mode ConvCheckMode   .... Total+1el-Energy
 Convergence forced     ConvForced      .... 1
 Energy Change          TolE            ....  1.000e-08 Eh
 1-El. energy change                    ....  1.000e-05 Eh
 Orbital Gradient       TolG            ....  1.000e-05
 Orbital Rotation angle TolX            ....  1.000e-05
 DIIS Error             TolErr          ....  5.000e-07


Diagonalization of the overlap matrix:
Smallest eigenvalue                        ... 1.928e-04
Time for diagonalization                   ...    0.235 sec
Threshold for overlap eigenvalues          ... 1.000e-08
Number of eigenvalues below threshold      ... 0
Time for construction of square roots      ...    0.173 sec
Total time needed                          ...    0.408 sec

-------------------
DFT GRID GENERATION
-------------------

General Integration Accuracy     IntAcc      ...  4.670
Radial Grid Type                 RadialGrid  ... Gauss-Chebyshev
Angular Grid (max. acc.)         AngularGrid ... Lebedev-302
Angular grid pruning method      GridPruning ... 3 (G Style)
Weight generation scheme         WeightScheme... Becke
Basis function cutoff            BFCut       ...    1.0000e-11
Integration weight cutoff        WCut        ...    1.0000e-14
Grids for H and He will be reduced by one unit

# of grid points (after initial pruning)     ... 493868 (   0.0 sec)
# of grid points (after weights+screening)   ... 425683 (   4.4 sec)
nearest neighbour list constructed           ...    0.0 sec
Grid point re-assignment to atoms done       ...    0.0 sec
Grid point division into batches done        ...    1.6 sec
Reduced shell lists constructed in    2.3 sec

Total number of grid points                  ...   425683
Total number of batches                      ...     6696
Average number of points per batch           ...       63
Average number of grid points per atom       ...     4627
Average number of shells per batch           ...   100.12 (21.21%)
Average number of basis functions per batch  ...   209.27 (20.05%)
Average number of large shells per batch     ...    63.61 (63.53%)
Average number of large basis fcns per batch ...   136.42 (65.19%)
Maximum spatial batch extension              ...  18.34, 14.70, 20.16 au
Average spatial batch extension              ...   0.26,  0.25,  0.30 au

Time for grid setup =    6.980 sec

------------------------------
INITIAL GUESS: MODEL POTENTIAL
------------------------------
Loading Hartree-Fock densities                     ... done
Calculating cut-offs                               ... done
Setting up the integral package                    ... done
Initializing the effective Hamiltonian             ... done
Starting the Coulomb interaction                   ... done (   1.0 sec)
Reading the grid                                   ... done
Mapping shells                                     ... done
Starting the XC term evaluation                    ... done (   1.0 sec)
  promolecular density results
     # of electrons  =    457.984713953
     EX              =   -414.125300754
     EC              =    -15.782808718
     EX+EC           =   -429.908109472
Transforming the Hamiltonian                       ... done (   0.1 sec)
Diagonalizing the Hamiltonian                      ... done (   0.2 sec)
Back transforming the eigenvectors                 ... done (   0.1 sec)
Now organizing SCF variables                       ... done
                      ------------------
                      INITIAL GUESS DONE (   9.5 sec)
                      ------------------
--------------------
COSX GRID GENERATION
--------------------

General Integration Accuracy     IntAcc      ...  3.340
Radial Grid Type                 RadialGrid  ... Gauss-Chebyshev
Angular Grid (max. acc.)         AngularGrid ... Lebedev-50
Angular grid pruning method      GridPruning ... 3 (G Style)
Weight generation scheme         WeightScheme... Becke
Basis function cutoff            BFCut       ...    1.0000e-11
Integration weight cutoff        WCut        ...    1.0000e-14
Grids for H and He will be reduced by one unit

# of grid points (after initial pruning)     ...  46192 (   0.0 sec)
# of grid points (after weights+screening)   ...  41554 (   0.4 sec)
nearest neighbour list constructed           ...    0.0 sec
Grid point re-assignment to atoms done       ...    0.0 sec
Grid point division into batches done        ...    0.0 sec
Reduced shell lists constructed in    0.1 sec

Total number of grid points                  ...    41554
Total number of batches                      ...      695
Average number of points per batch           ...       59
Average number of grid points per atom       ...      452
Average number of shells per batch           ...   113.85 (24.12%)
Average number of basis functions per batch  ...   240.30 (23.02%)
Average number of large shells per batch     ...    73.27 (64.36%)
Average number of large basis fcns per batch ...   157.97 (65.74%)
Maximum spatial batch extension              ...  12.66, 13.96, 21.09 au
Average spatial batch extension              ...   0.50,  0.52,  0.72 au

Overlap Fitting                  UseSFitting ... on
Constructing numerical overlap ... done (      0.1 sec)
Inverting numerical overlap    ... done (      0.1 sec)
Obtaining analytic overlap     ... done (      0.0 sec)
Final contraction and storage  ... done (      0.2 sec)


General Integration Accuracy     IntAcc      ...  3.670
Radial Grid Type                 RadialGrid  ... Gauss-Chebyshev
Angular Grid (max. acc.)         AngularGrid ... Lebedev-50
Angular grid pruning method      GridPruning ... 3 (G Style)
Weight generation scheme         WeightScheme... Becke
Basis function cutoff            BFCut       ...    1.0000e-11
Integration weight cutoff        WCut        ...    1.0000e-14
Grids for H and He will be reduced by one unit

# of grid points (after initial pruning)     ...  57912 (   0.0 sec)
# of grid points (after weights+screening)   ...  51908 (   0.5 sec)
nearest neighbour list constructed           ...    0.0 sec
Grid point re-assignment to atoms done       ...    0.0 sec
Grid point division into batches done        ...    0.0 sec
Reduced shell lists constructed in    0.1 sec

Total number of grid points                  ...    51908
Total number of batches                      ...      855
Average number of points per batch           ...       60
Average number of grid points per atom       ...      564
Average number of shells per batch           ...   112.58 (23.85%)
Average number of basis functions per batch  ...   237.06 (22.71%)
Average number of large shells per batch     ...    72.10 (64.04%)
Average number of large basis fcns per batch ...   155.89 (65.76%)
Maximum spatial batch extension              ...  14.82, 14.93, 20.05 au
Average spatial batch extension              ...   0.49,  0.48,  0.70 au

Overlap Fitting                  UseSFitting ... on
Constructing numerical overlap ... done (      0.1 sec)
Inverting numerical overlap    ... done (      0.1 sec)
Obtaining analytic overlap     ... done (      0.0 sec)
Final contraction and storage  ... done (      0.2 sec)


General Integration Accuracy     IntAcc      ...  4.010
Radial Grid Type                 RadialGrid  ... Gauss-Chebyshev
Angular Grid (max. acc.)         AngularGrid ... Lebedev-110
Angular grid pruning method      GridPruning ... 3 (G Style)
Weight generation scheme         WeightScheme... Becke
Basis function cutoff            BFCut       ...    1.0000e-11
Integration weight cutoff        WCut        ...    1.0000e-14
Grids for H and He will be reduced by one unit

# of grid points (after initial pruning)     ... 112616 (   0.0 sec)
# of grid points (after weights+screening)   ...  99841 (   1.0 sec)
nearest neighbour list constructed           ...    0.0 sec
Grid point re-assignment to atoms done       ...    0.0 sec
Grid point division into batches done        ...    0.1 sec
Reduced shell lists constructed in    0.3 sec

Total number of grid points                  ...    99841
Total number of batches                      ...     1609
Average number of points per batch           ...       62
Average number of grid points per atom       ...     1085
Average number of shells per batch           ...   108.06 (22.89%)
Average number of basis functions per batch  ...   227.64 (21.80%)
Average number of large shells per batch     ...    69.60 (64.41%)
Average number of large basis fcns per batch ...   149.98 (65.89%)
Maximum spatial batch extension              ...  13.44, 15.74, 17.77 au
Average spatial batch extension              ...   0.41,  0.40,  0.51 au

Overlap Fitting                  UseSFitting ... on
Constructing numerical overlap ... done (      0.3 sec)
Inverting numerical overlap    ... done (      0.1 sec)
Obtaining analytic overlap     ... done (      0.0 sec)
Final contraction and storage  ... done (      0.2 sec)

Time for X-Grid setup             =    4.128 sec
--------------
SCF ITERATIONS
--------------
ITER       Energy         Delta-E        Max-DP      RMS-DP      [F,P]     Damp
               ***  Starting incremental Fock matrix formation  ***
  0  -3634.0496127942   0.000000000000 0.07810159  0.00092394  0.2278821 0.7000
  1  -3634.5672098120  -0.517597017802 0.04498321  0.00064310  0.0969780 0.7000
                               ***Turning on DIIS***
  2  -3634.7961187868  -0.228908974852 0.07788847  0.00119259  0.0388166 0.0000
  3  -3635.1611164853  -0.364997698476 0.06020957  0.00050838  0.0534888 0.0000
  4  -3635.2323791059  -0.071262620646 0.01709269  0.00015888  0.0204080 0.0000
  5  -3635.2363313287  -0.003952222733 0.00556467  0.00005765  0.0111477 0.0000
                      *** Initiating the SOSCF procedure ***
                           *** Shutting down DIIS ***
                      *** Re-Reading the Fockian *** 
                      *** Removing any level shift *** 
ITER      Energy       Delta-E        Grad      Rot      Max-DP    RMS-DP
  6  -3635.23716508  -0.0008337533  0.002747  0.002747  0.002209  0.000032
               *** Restarting incremental Fock matrix formation ***
  7  -3635.23741731  -0.0002522240  0.001943  0.013391  0.001750  0.000039
  8  -3635.23767536  -0.0002580529  0.000888  0.017076  0.002654  0.000055
  9  -3635.23769784  -0.0000224767  0.001594  0.007193  0.001931  0.000022
 10  -3635.23777902  -0.0000811801  0.000286  0.001324  0.000691  0.000010
 11  -3635.23777674   0.0000022797  0.000214  0.000815  0.000423  0.000006
 12  -3635.23778401  -0.0000072705  0.000036  0.000236  0.000113  0.000001
 13  -3635.23778414  -0.0000001331  0.000038  0.000130  0.000051  0.000001
 14  -3635.23778433  -0.0000001941  0.000010  0.000107  0.000040  0.000001
 15  -3635.23778438  -0.0000000442  0.000012  0.000034  0.000031  0.000000
                  ***Gradient check signals convergence***
              ***Rediagonalizing the Fockian in SOSCF/NRSCF***

               *****************************************************
               *                     SUCCESS                       *
               *           SCF CONVERGED AFTER  16 CYCLES          *
               *****************************************************

Setting up the final grid:

General Integration Accuracy     IntAcc      ...  5.010
Radial Grid Type                 RadialGrid  ... Gauss-Chebyshev
Angular Grid (max. acc.)         AngularGrid ... Lebedev-434
Angular grid pruning method      GridPruning ... 3 (G Style)
Weight generation scheme         WeightScheme... Becke
Basis function cutoff            BFCut       ...    1.0000e-11
Integration weight cutoff        WCut        ...    1.0000e-14
Grids for H and He will be reduced by one unit

# of grid points (after initial pruning)     ... 874204 (   0.0 sec)
# of grid points (after weights+screening)   ... 751491 (   7.6 sec)
nearest neighbour list constructed           ...    0.0 sec
Grid point re-assignment to atoms done       ...    0.1 sec
Grid point division into batches done        ...    5.2 sec
Reduced shell lists constructed in    6.4 sec

Total number of grid points                  ...   751491
Total number of batches                      ...    11786
Average number of points per batch           ...       63
Average number of grid points per atom       ...     8168
Average number of shells per batch           ...    97.44 (20.64%)
Average number of basis functions per batch  ...   203.26 (19.47%)
Average number of large shells per batch     ...    61.58 (63.20%)
Average number of large basis fcns per batch ...   131.83 (64.85%)
Maximum spatial batch extension              ...  16.77, 13.79, 20.40 au
Average spatial batch extension              ...   0.21,  0.21,  0.23 au

Final grid set up in   14.4 sec
Final integration                            ... done (   2.5 sec)
Change in XC energy                          ...    -0.000084365
Integrated number of electrons               ...   458.000058718
Previous integrated no of electrons          ...   457.999240288
Old exchange energy                            =   -115.764854467 Eh
New exchange energy                            =   -115.762599202 Eh
Exchange energy change after final integration =      0.002255265 Eh
Total energy after final integration           =  -3635.235613506 Eh
Final COS-X integration done in                =    45.403 sec

----------------
TOTAL SCF ENERGY
----------------

Total Energy       :        -3635.23561351 Eh          -98919.79003 eV

Components:
Nuclear Repulsion  :         8830.56480972 Eh          240291.88468 eV
Electronic Energy  :       -12465.80042322 Eh         -339211.67470 eV
One Electron Energy:       -22552.85929030 Eh         -613694.50091 eV
Two Electron Energy:        10087.05886708 Eh          274482.82621 eV

Virial components:
Potential Energy   :        -7243.17772399 Eh         -197096.88608 eV
Kinetic Energy     :         3607.94211048 Eh           98177.09605 eV
Virial Ratio       :            2.00756484


DFT components:
N(Alpha)           :      229.000029359046 electrons
N(Beta)            :      229.000029359046 electrons
N(Total)           :      458.000058718092 electrons
E(XC)              :     -321.349792957613 Eh       
DFET-embed. en.    :        0.000000000000 Eh       

---------------
SCF CONVERGENCE
---------------

  Last Energy change         ...   -2.7663e-08  Tolerance :   1.0000e-08
  Last MAX-Density change    ...    7.5495e-15  Tolerance :   1.0000e-07
  Last RMS-Density change    ...    4.0923e-17  Tolerance :   5.0000e-09
  Last Orbital Gradient      ...    2.2472e-06  Tolerance :   1.0000e-05
  Last Orbital Rotation      ...    1.2432e-05  Tolerance :   1.0000e-05

             **** THE GBW FILE WAS UPDATED (xtbopt.gbw) ****
             **** DENSITY FILE WAS UPDATED (xtbopt.scfp) ****
             **** ENERGY FILE WAS UPDATED (xtbopt.en.tmp) ****
             **** THE GBW FILE WAS UPDATED (xtbopt.gbw) ****
             **** DENSITY FILE WAS UPDATED (xtbopt.scfp) ****
----------------
ORBITAL ENERGIES
----------------

  NO   OCC          E(Eh)            E(eV) 
   0   2.0000     -88.991235     -2421.5746 
   1   2.0000     -88.991155     -2421.5724 
   2   2.0000     -19.271993      -524.4176 
   3   2.0000     -19.271951      -524.4164 
   4   2.0000     -19.269705      -524.3553 
   5   2.0000     -19.269629      -524.3533 
   6   2.0000     -19.268625      -524.3260 
   7   2.0000     -19.268527      -524.3233 
   8   2.0000     -19.260950      -524.1171 
   9   2.0000     -19.260914      -524.1161 
  10   2.0000     -14.429325      -392.6419 
  11   2.0000     -14.429229      -392.6393 
  12   2.0000     -14.385239      -391.4423 
  13   2.0000     -14.385233      -391.4421 
  14   2.0000     -14.377282      -391.2257 
  15   2.0000     -14.377279      -391.2256 
  16   2.0000     -14.373881      -391.1332 
  17   2.0000     -14.373853      -391.1324 
  18   2.0000     -14.372156      -391.0863 
  19   2.0000     -14.372104      -391.0848 
  20   2.0000     -10.376993      -282.3723 
  21   2.0000     -10.376826      -282.3678 
  22   2.0000     -10.369104      -282.1577 
  23   2.0000     -10.369073      -282.1568 
  24   2.0000     -10.367178      -282.1053 
  25   2.0000     -10.367099      -282.1031 
  26   2.0000     -10.364772      -282.0398 
  27   2.0000     -10.364718      -282.0383 
  28   2.0000     -10.364695      -282.0377 
  29   2.0000     -10.352399      -281.7031 
  30   2.0000     -10.337305      -281.2924 
  31   2.0000     -10.337079      -281.2862 
  32   2.0000     -10.335776      -281.2508 
  33   2.0000     -10.335762      -281.2504 
  34   2.0000     -10.329301      -281.0746 
  35   2.0000     -10.329254      -281.0733 
  36   2.0000     -10.322615      -280.8926 
  37   2.0000     -10.322518      -280.8900 
  38   2.0000     -10.321179      -280.8536 
  39   2.0000     -10.321171      -280.8533 
  40   2.0000     -10.321007      -280.8489 
  41   2.0000     -10.320981      -280.8482 
  42   2.0000     -10.320332      -280.8305 
  43   2.0000     -10.320279      -280.8291 
  44   2.0000     -10.317003      -280.7399 
  45   2.0000     -10.316994      -280.7397 
  46   2.0000     -10.315392      -280.6961 
  47   2.0000     -10.315311      -280.6939 
  48   2.0000     -10.313855      -280.6543 
  49   2.0000     -10.313844      -280.6540 
  50   2.0000     -10.310921      -280.5744 
  51   2.0000     -10.310900      -280.5739 
  52   2.0000     -10.307074      -280.4698 
  53   2.0000     -10.307032      -280.4686 
  54   2.0000     -10.304623      -280.4030 
  55   2.0000     -10.304520      -280.4002 
  56   2.0000     -10.253930      -279.0236 
  57   2.0000     -10.253770      -279.0193 
  58   2.0000     -10.252268      -278.9784 
  59   2.0000     -10.252215      -278.9770 
  60   2.0000     -10.244539      -278.7681 
  61   2.0000     -10.244465      -278.7661 
  62   2.0000     -10.239470      -278.6301 
  63   2.0000     -10.239413      -278.6286 
  64   2.0000      -8.085344      -220.0134 
  65   2.0000      -8.085276      -220.0116 
  66   2.0000      -6.054441      -164.7497 
  67   2.0000      -6.054417      -164.7491 
  68   2.0000      -6.050222      -164.6349 
  69   2.0000      -6.050184      -164.6339 
  70   2.0000      -6.047935      -164.5727 
  71   2.0000      -6.047920      -164.5723 
  72   2.0000      -1.186689       -32.2915 
  73   2.0000      -1.186653       -32.2905 
  74   2.0000      -1.180031       -32.1103 
  75   2.0000      -1.179990       -32.1091 
  76   2.0000      -1.179477       -32.0952 
  77   2.0000      -1.179413       -32.0935 
  78   2.0000      -1.173758       -31.9396 
  79   2.0000      -1.173749       -31.9393 
  80   2.0000      -1.055279       -28.7156 
  81   2.0000      -1.054307       -28.6891 
  82   2.0000      -1.045921       -28.4609 
  83   2.0000      -1.042412       -28.3655 
  84   2.0000      -1.041150       -28.3311 
  85   2.0000      -1.024649       -27.8821 
  86   2.0000      -1.024142       -27.8683 
  87   2.0000      -1.020300       -27.7638 
  88   2.0000      -1.009631       -27.4735 
  89   2.0000      -1.009253       -27.4632 
  90   2.0000      -1.006459       -27.3871 
  91   2.0000      -0.993678       -27.0394 
  92   2.0000      -0.957824       -26.0637 
  93   2.0000      -0.914411       -24.8824 
  94   2.0000      -0.873415       -23.7668 
  95   2.0000      -0.866887       -23.5892 
  96   2.0000      -0.859972       -23.4010 
  97   2.0000      -0.858286       -23.3551 
  98   2.0000      -0.850746       -23.1500 
  99   2.0000      -0.849007       -23.1026 
 100   2.0000      -0.846886       -23.0449 
 101   2.0000      -0.839099       -22.8330 
 102   2.0000      -0.838467       -22.8158 
 103   2.0000      -0.836455       -22.7611 
 104   2.0000      -0.827339       -22.5130 
 105   2.0000      -0.824289       -22.4301 
 106   2.0000      -0.815877       -22.2011 
 107   2.0000      -0.813251       -22.1297 
 108   2.0000      -0.812278       -22.1032 
 109   2.0000      -0.795790       -21.6546 
 110   2.0000      -0.793658       -21.5965 
 111   2.0000      -0.792061       -21.5531 
 112   2.0000      -0.775807       -21.1108 
 113   2.0000      -0.756081       -20.5740 
 114   2.0000      -0.755648       -20.5622 
 115   2.0000      -0.740944       -20.1621 
 116   2.0000      -0.714564       -19.4443 
 117   2.0000      -0.707479       -19.2515 
 118   2.0000      -0.699211       -19.0265 
 119   2.0000      -0.689977       -18.7752 
 120   2.0000      -0.683345       -18.5948 
 121   2.0000      -0.679378       -18.4868 
 122   2.0000      -0.675533       -18.3822 
 123   2.0000      -0.668973       -18.2037 
 124   2.0000      -0.667663       -18.1680 
 125   2.0000      -0.661657       -18.0046 
 126   2.0000      -0.657656       -17.8957 
 127   2.0000      -0.654398       -17.8071 
 128   2.0000      -0.648858       -17.6563 
 129   2.0000      -0.645504       -17.5651 
 130   2.0000      -0.636969       -17.3328 
 131   2.0000      -0.636477       -17.3194 
 132   2.0000      -0.630398       -17.1540 
 133   2.0000      -0.629700       -17.1350 
 134   2.0000      -0.622068       -16.9273 
 135   2.0000      -0.619086       -16.8462 
 136   2.0000      -0.615090       -16.7375 
 137   2.0000      -0.607878       -16.5412 
 138   2.0000      -0.594153       -16.1677 
 139   2.0000      -0.592295       -16.1172 
 140   2.0000      -0.586251       -15.9527 
 141   2.0000      -0.583749       -15.8846 
 142   2.0000      -0.574943       -15.6450 
 143   2.0000      -0.574100       -15.6221 
 144   2.0000      -0.569451       -15.4955 
 145   2.0000      -0.568816       -15.4783 
 146   2.0000      -0.567622       -15.4458 
 147   2.0000      -0.567028       -15.4296 
 148   2.0000      -0.560816       -15.2606 
 149   2.0000      -0.560523       -15.2526 
 150   2.0000      -0.557771       -15.1777 
 151   2.0000      -0.556691       -15.1483 
 152   2.0000      -0.556118       -15.1327 
 153   2.0000      -0.552938       -15.0462 
 154   2.0000      -0.548558       -14.9270 
 155   2.0000      -0.542538       -14.7632 
 156   2.0000      -0.542443       -14.7606 
 157   2.0000      -0.532230       -14.4827 
 158   2.0000      -0.532110       -14.4795 
 159   2.0000      -0.520529       -14.1643 
 160   2.0000      -0.516402       -14.0520 
 161   2.0000      -0.514464       -13.9993 
 162   2.0000      -0.512021       -13.9328 
 163   2.0000      -0.510989       -13.9047 
 164   2.0000      -0.510021       -13.8784 
 165   2.0000      -0.506959       -13.7951 
 166   2.0000      -0.505257       -13.7487 
 167   2.0000      -0.501118       -13.6361 
 168   2.0000      -0.498203       -13.5568 
 169   2.0000      -0.495529       -13.4840 
 170   2.0000      -0.492749       -13.4084 
 171   2.0000      -0.491387       -13.3713 
 172   2.0000      -0.490050       -13.3349 
 173   2.0000      -0.483022       -13.1437 
 174   2.0000      -0.481574       -13.1043 
 175   2.0000      -0.477700       -12.9989 
 176   2.0000      -0.473576       -12.8867 
 177   2.0000      -0.460446       -12.5294 
 178   2.0000      -0.458186       -12.4679 
 179   2.0000      -0.457269       -12.4429 
 180   2.0000      -0.456501       -12.4220 
 181   2.0000      -0.454594       -12.3701 
 182   2.0000      -0.451421       -12.2838 
 183   2.0000      -0.449799       -12.2397 
 184   2.0000      -0.449441       -12.2299 
 185   2.0000      -0.443823       -12.0770 
 186   2.0000      -0.442418       -12.0388 
 187   2.0000      -0.439160       -11.9502 
 188   2.0000      -0.438352       -11.9282 
 189   2.0000      -0.438179       -11.9235 
 190   2.0000      -0.436729       -11.8840 
 191   2.0000      -0.431720       -11.7477 
 192   2.0000      -0.431463       -11.7407 
 193   2.0000      -0.428760       -11.6672 
 194   2.0000      -0.427872       -11.6430 
 195   2.0000      -0.427789       -11.6407 
 196   2.0000      -0.425190       -11.5700 
 197   2.0000      -0.423167       -11.5150 
 198   2.0000      -0.421258       -11.4630 
 199   2.0000      -0.411634       -11.2011 
 200   2.0000      -0.411353       -11.1935 
 201   2.0000      -0.408979       -11.1289 
 202   2.0000      -0.408260       -11.1093 
 203   2.0000      -0.406882       -11.0718 
 204   2.0000      -0.403791       -10.9877 
 205   2.0000      -0.395264       -10.7557 
 206   2.0000      -0.392893       -10.6912 
 207   2.0000      -0.378337       -10.2951 
 208   2.0000      -0.376099       -10.2342 
 209   2.0000      -0.369866       -10.0646 
 210   2.0000      -0.369741       -10.0612 
 211   2.0000      -0.358555        -9.7568 
 212   2.0000      -0.358148        -9.7457 
 213   2.0000      -0.356954        -9.7132 
 214   2.0000      -0.349952        -9.5227 
 215   2.0000      -0.325280        -8.8513 
 216   2.0000      -0.325228        -8.8499 
 217   2.0000      -0.322517        -8.7761 
 218   2.0000      -0.315127        -8.5750 
 219   2.0000      -0.315068        -8.5734 
 220   2.0000      -0.306133        -8.3303 
 221   2.0000      -0.289025        -7.8648 
 222   2.0000      -0.288849        -7.8600 
 223   2.0000      -0.283036        -7.7018 
 224   2.0000      -0.278717        -7.5843 
 225   2.0000      -0.278448        -7.5770 
 226   2.0000      -0.276347        -7.5198 
 227   2.0000      -0.255081        -6.9411 
 228   2.0000      -0.237628        -6.4662 
 229   0.0000      -0.118285        -3.2187 
 230   0.0000      -0.094232        -2.5642 
 231   0.0000      -0.091041        -2.4774 
 232   0.0000      -0.048160        -1.3105 
 233   0.0000      -0.038314        -1.0426 
 234   0.0000       0.009240         0.2514 
 235   0.0000       0.031650         0.8612 
 236   0.0000       0.033658         0.9159 
 237   0.0000       0.049845         1.3563 
 238   0.0000       0.071426         1.9436 
 239   0.0000       0.075398         2.0517 
 240   0.0000       0.077769         2.1162 
 241   0.0000       0.083696         2.2775 
 242   0.0000       0.093146         2.5346 
 243   0.0000       0.093346         2.5401 
 244   0.0000       0.097686         2.6582 
 245   0.0000       0.098102         2.6695 
 246   0.0000       0.099897         2.7183 
 247   0.0000       0.108048         2.9401 
 248   0.0000       0.118028         3.2117 
 249   0.0000       0.118322         3.2197 
 250   0.0000       0.120423         3.2769 
 251   0.0000       0.120571         3.2809 
 252   0.0000       0.127334         3.4649 
 253   0.0000       0.127389         3.4664 
 254   0.0000       0.132617         3.6087 
 255   0.0000       0.133303         3.6274 
 256   0.0000       0.136565         3.7161 
 257   0.0000       0.140188         3.8147 
 258   0.0000       0.140684         3.8282 
 259   0.0000       0.145029         3.9464 
 260   0.0000       0.149335         4.0636 
 261   0.0000       0.150270         4.0891 
 262   0.0000       0.157117         4.2754 
 263   0.0000       0.158099         4.3021 
 264   0.0000       0.159144         4.3305 
 265   0.0000       0.159660         4.3446 
 266   0.0000       0.164413         4.4739 
 267   0.0000       0.164695         4.4816 
 268   0.0000       0.166491         4.5305 
 269   0.0000       0.167985         4.5711 
 270   0.0000       0.170543         4.6407 
 271   0.0000       0.170727         4.6457 
 272   0.0000       0.172947         4.7061 
 273   0.0000       0.173132         4.7112 
 274   0.0000       0.173543         4.7223 
 275   0.0000       0.174288         4.7426 
 276   0.0000       0.175772         4.7830 
 277   0.0000       0.175884         4.7860 
 278   0.0000       0.178175         4.8484 
 279   0.0000       0.178196         4.8490 
 280   0.0000       0.183840         5.0025 
 281   0.0000       0.185026         5.0348 
 282   0.0000       0.186465         5.0740 
 283   0.0000       0.196003         5.3335 
 284   0.0000       0.196121         5.3367 
 285   0.0000       0.199845         5.4380 
 286   0.0000       0.199898         5.4395 
 287   0.0000       0.200375         5.4525 
 288   0.0000       0.203375         5.5341 
 289   0.0000       0.205075         5.5804 
 290   0.0000       0.206645         5.6231 
 291   0.0000       0.208958         5.6860 
 292   0.0000       0.210254         5.7213 
 293   0.0000       0.217638         5.9222 
 294   0.0000       0.217850         5.9280 
 295   0.0000       0.225698         6.1416 
 296   0.0000       0.226878         6.1737 
 297   0.0000       0.229243         6.2380 
 298   0.0000       0.237334         6.4582 
 299   0.0000       0.244776         6.6607 
 300   0.0000       0.245500         6.6804 
 301   0.0000       0.252256         6.8642 
 302   0.0000       0.252617         6.8740 
 303   0.0000       0.253247         6.8912 
 304   0.0000       0.254941         6.9373 
 305   0.0000       0.256717         6.9856 
 306   0.0000       0.261115         7.1053 
 307   0.0000       0.268242         7.2992 
 308   0.0000       0.269831         7.3425 
 309   0.0000       0.279164         7.5964 
 310   0.0000       0.280377         7.6294 
 311   0.0000       0.280453         7.6315 
 312   0.0000       0.295213         8.0332 
 313   0.0000       0.300545         8.1782 
 314   0.0000       0.301301         8.1988 
 315   0.0000       0.309645         8.4259 
 316   0.0000       0.314994         8.5714 
 317   0.0000       0.315249         8.5784 
 318   0.0000       0.328004         8.9255 
 319   0.0000       0.330383         8.9902 
 320   0.0000       0.331778         9.0281 
 321   0.0000       0.336308         9.1514 
 322   0.0000       0.340531         9.2663 
 323   0.0000       0.342940         9.3319 
 324   0.0000       0.343688         9.3522 
 325   0.0000       0.348935         9.4950 
 326   0.0000       0.360686         9.8148 
 327   0.0000       0.361603         9.8397 
 328   0.0000       0.364755         9.9255 
 329   0.0000       0.366094         9.9619 
 330   0.0000       0.368906        10.0384 
 331   0.0000       0.370272        10.0756 
 332   0.0000       0.378729        10.3057 
 333   0.0000       0.381202        10.3730 
 334   0.0000       0.384607        10.4657 
 335   0.0000       0.389690        10.6040 
 336   0.0000       0.390664        10.6305 
 337   0.0000       0.392630        10.6840 
 338   0.0000       0.397607        10.8194 
 339   0.0000       0.398263        10.8373 
 340   0.0000       0.400061        10.8862 
 341   0.0000       0.410623        11.1736 
[...]
  40   4.118     301.1   0.022250   0.017569  110.222610  98.228056     0.29 (  82->  93)    0.25 (  79->  92)    0.08 (  85->  92)
  41   4.159     298.1   0.001403   0.001216   0.482735   0.745819     0.26 (  86->  93)    0.15 (  87->  92)    0.11 (  87->  93)
  42   4.161     298.0   0.002049   0.001802   1.635357   1.935654     0.27 (  87->  93)    0.14 (  86->  92)    0.11 (  86->  93)
  43   4.222     293.7   0.008593   0.008827  27.027581  25.906289     0.15 (  71->  91)    0.15 (  81->  91)    0.08 (  80->  91)
  44   4.223     293.6   0.002036   0.003903  -1.811299  -1.486470     0.18 (  72->  91)    0.14 (  80->  91)    0.08 (  71->  93)
  45   4.247     291.9   0.026568   0.023088  -126.787827  -117.714174     0.29 (  71->  91)    0.17 (  72->  93)    0.07 (  71->  92)
  46   4.250     291.7   0.002928   0.004330   2.383005   2.368104     0.32 (  72->  91)    0.18 (  71->  93)    0.09 (  80->  91)
  47   4.264     290.8   0.127229   0.115425  -313.943638  -298.441497     0.20 (  89->  94)    0.17 (  79->  92)    0.10 (  82->  93)
  48   4.300     288.3   0.074951   0.067433  105.754018  100.374715     0.28 (  79->  92)    0.26 (  89->  94)    0.19 (  90->  95)
  49   4.352     284.9   0.100416   0.093881  655.014816  638.128164     0.41 (  89->  95)    0.19 (  88->  94)    0.10 (  90->  94)
  50   4.408     281.3   0.007712   0.004456  66.189776  50.549890     0.44 (  75->  91)    0.16 (  73->  91)    0.09 (  79->  92)
  51   4.433     279.7   0.031882   0.030158  51.167233  49.588117     0.68 (  79->  93)    0.12 (  76->  92)    0.05 (  88->  94)
  52   4.520     274.3   0.032392   0.026267  -300.618352  -270.593408     0.33 (  85->  94)    0.17 (  88->  95)    0.11 (  83->  94)
  53   4.561     271.9   0.539782   0.436425  121.162117  113.947703     0.21 (  85->  95)    0.19 (  89->  95)    0.13 (  88->  94)
  54   4.733     262.0   0.005157   0.004038  -12.556153  -11.142468     0.31 (  81->  92)    0.20 (  81->  94)    0.09 (  80->  95)
  55   4.735     261.8   0.023494   0.018264  -10.297658  -6.919454     0.30 (  80->  92)    0.20 (  80->  94)    0.09 (  81->  95)
  56   4.816     257.4   0.277251   0.231568  14.348416   9.858921     0.58 (  76->  92)    0.12 (  76->  91)    0.11 (  79->  93)
  57   4.833     256.5   0.002065   0.001618  -1.082900  -1.147055     0.21 (  78->  94)    0.17 (  78->  95)    0.09 (  78->  92)
  58   4.835     256.4   0.007045   0.005846  -3.461029  -3.500195     0.21 (  77->  94)    0.16 (  77->  95)    0.10 (  77->  93)
  59   4.897     253.2   0.135975   0.121744  56.701833  53.649110     0.68 (  90->  96)    0.08 (  76->  92)    0.06 (  89->  97)

-----------------------------------------------------------------------------
         ABSORPTION SPECTRUM VIA TRANSITION ELECTRIC DIPOLE MOMENTS
-----------------------------------------------------------------------------
State   Energy  Wavelength   fosc         T2         TX        TY        TZ  
        (cm-1)    (nm)                  (au**2)     (au)      (au)      (au) 
-----------------------------------------------------------------------------
   0   11040.0    905.8   0.740081129  22.06908  -1.68072  -3.85107  -2.10084
   1   15174.1    659.0   0.370914387   8.04724   1.15514   2.33927   1.11387
   2   15308.4    653.2   0.020387958   0.43845   0.40873  -0.36937   0.36737
   3   15800.6    632.9   0.262152036   5.46205   0.90002   1.91062   1.00077
   4   16114.7    620.6   0.029876070   0.61035  -0.45698   0.47907  -0.41473
   5   16476.4    606.9   0.200122528   3.99861  -0.85501  -1.63225  -0.77674
   6   16717.1    598.2   0.047565949   0.93672  -0.56799   0.59496  -0.51003
   7   18505.9    540.4   0.060443925   1.07527  -0.63032   0.59534  -0.56881
   8   20659.0    484.1   0.044451264   0.70835  -0.45713   0.15356   0.68979
   9   21019.8    475.7   0.122884629   1.92462  -0.84556   0.78770  -0.76758
  10   23251.8    430.1   0.004972976   0.07041   0.06742   0.17829   0.18460
  11   23266.2    429.8   0.006270478   0.08873  -0.01886  -0.25331  -0.15557
  12   23521.9    425.1   0.018458423   0.25834   0.30860  -0.28149   0.28961
  13   23799.3    420.2   0.031903520   0.44132  -0.48544  -0.07623   0.44705
  14   23999.2    416.7   0.145435512   1.99503   0.34884   1.12852   0.77446
  15   24405.7    409.7   0.000052919   0.00071  -0.01726  -0.01577   0.01294
  16   24412.9    409.6   0.000268433   0.00362   0.04896   0.02787  -0.02112
  17   24794.6    403.3   0.000015409   0.00020  -0.01041   0.00735  -0.00649
  18   25022.8    399.6   0.016944487   0.22293   0.17983  -0.19275  -0.39171
  19   25819.8    387.3   0.001301771   0.01660   0.04445   0.07579   0.09423
  20   25841.9    387.0   0.001884707   0.02401   0.08495  -0.11115   0.06663
  21   26901.9    371.7   0.016545760   0.20248  -0.23925  -0.36064  -0.12317
  22   27038.6    369.8   0.013187907   0.16057   0.23629  -0.23907   0.21813
  23   28218.3    354.4   0.098514180   1.14932  -0.49479   0.32365   0.89429
  24   28596.2    349.7   0.393511569   4.53028   1.28758  -1.20547   1.19133
  25   29535.7    338.6   0.674190887   7.51468   1.64224  -1.55500   1.54909
  26   29723.8    336.4   0.271710012   3.00938  -0.97658  -1.38899  -0.35549
  27   30524.5    327.6   0.000705294   0.00761  -0.01825  -0.02546   0.08140
  28   30536.7    327.5   0.000840899   0.00907   0.07439  -0.05540   0.02152
  29   31111.5    321.4   0.011733378   0.12416   0.21050  -0.19096   0.20829
  30   31646.5    316.0   0.053499752   0.55655  -0.09516   0.46356   0.57671
  31   32212.3    310.4   0.089654715   0.91628   0.57735  -0.54677   0.53290
  32   32409.7    308.5   0.150390646   1.52764   0.16102   0.95355   0.76971
  33   32471.7    308.0   0.005332284   0.05406   0.12872  -0.00552   0.19355
  34   32496.1    307.7   0.026093569   0.26435   0.01904   0.37897   0.34694
  35   32626.0    306.5   0.000693680   0.00700   0.04746   0.01337   0.06759
  36   32677.0    306.0   0.010602477   0.10682   0.07174   0.26243   0.18110
  37   32953.4    303.5   0.007981171   0.07973  -0.14180  -0.21115   0.12266
  38   32971.8    303.3   0.015298632   0.15275  -0.28363   0.17670  -0.20269
  39   33076.3    302.3   0.009884289   0.09838   0.16636  -0.10140  -0.24581
  40   33211.4    301.1   0.022249796   0.22055   0.26443  -0.26788   0.28084
  41   33548.6    298.1   0.001403417   0.01377  -0.01168  -0.05124   0.10493
  42   33562.2    298.0   0.002049059   0.02010  -0.12282   0.01512   0.06918
  43   34052.2    293.7   0.008592924   0.08308  -0.18998   0.15713  -0.14932
  44   34056.9    293.6   0.002036202   0.01968   0.06325   0.06065  -0.10956
  45   34255.3    291.9   0.026568483   0.25534  -0.29971   0.28780  -0.28754
  46   34281.4    291.7   0.002928250   0.02812   0.14611  -0.02189  -0.07934
  47   34389.0    290.8   0.127228845   1.21798   0.66359  -0.62492   0.62219
  48   34680.8    288.3   0.074951168   0.71148  -0.49811   0.48396  -0.47870
  49   35104.3    284.9   0.100416205   0.94171   0.73616   0.20070  -0.59959
  50   35552.5    281.3   0.007711889   0.07141   0.14031  -0.16255   0.15907
  51   35754.7    279.7   0.031881820   0.29355   0.41989   0.32155  -0.11769
  52   36453.7    274.3   0.032391850   0.29253   0.34959  -0.26306   0.31799
  53   36784.0    271.9   0.539781866   4.83097  -0.47586  -1.74849  -1.24392
  54   38172.2    262.0   0.005156527   0.04447  -0.06668   0.19974  -0.01144
  55   38191.4    261.8   0.023494430   0.20252   0.13703   0.32985   0.27376
  56   38842.8    257.4   0.277251444   2.34985  -0.59730  -1.26022  -0.63634
  57   38984.3    256.5   0.002064954   0.01744  -0.07587  -0.05043  -0.09560
  58   38996.7    256.4   0.007045107   0.05948  -0.04896  -0.21855  -0.09651
  59   39495.9    253.2   0.135974929   1.13340  -0.51323  -0.87320  -0.32789

-----------------------------------------------------------------------------
         ABSORPTION SPECTRUM VIA TRANSITION VELOCITY DIPOLE MOMENTS
-----------------------------------------------------------------------------
State   Energy  Wavelength   fosc         P2         PX        PY        PZ  
        (cm-1)    (nm)                  (au**2)     (au)      (au)      (au) 
-----------------------------------------------------------------------------
   0   11040.0    905.8   1.197273817   0.09034  -0.10892  -0.24654  -0.13302
   1   15174.1    659.0   0.477255960   0.04949   0.09274   0.18346   0.08506
   2   15308.4    653.2   0.026993992   0.00282   0.03283  -0.02965   0.02945
   3   15800.6    632.9   0.319055607   0.03445   0.07210   0.15171   0.07900
   4   16114.7    620.6   0.042011814   0.00463  -0.03989   0.04146  -0.03628
   5   16476.4    606.9   0.241411913   0.02718  -0.07089  -0.13450  -0.06380
   6   16717.1    598.2   0.066153883   0.00756  -0.05113   0.05315  -0.04604
   7   18505.9    540.4   0.072981610   0.00923  -0.05844   0.05508  -0.05274
   8   20659.0    484.1   0.052516222   0.00741  -0.04832   0.01340   0.07000
   9   21019.8    475.7   0.152155186   0.02186  -0.09016   0.08387  -0.08183
  10   23251.8    430.1   0.004852003   0.00077   0.00721   0.01867   0.01924
  11   23266.2    429.8   0.006128018   0.00097  -0.00210  -0.02662  -0.01617
  12   23521.9    425.1   0.019641921   0.00316   0.03409  -0.03121   0.03196
  13   23799.3    420.2   0.036645633   0.00596  -0.05890  -0.01620   0.04721
  14   23999.2    416.7   0.135720446   0.02226   0.03544   0.11882   0.08299
  15   24405.7    409.7   0.000046394   0.00001  -0.00199  -0.00188   0.00050
  16   24412.9    409.6   0.000248150   0.00004   0.00483   0.00409  -0.00112
  17   24794.6    403.3   0.000013280   0.00000  -0.00111   0.00076  -0.00066
  18   25022.8    399.6   0.015994274   0.00274   0.02365  -0.01729  -0.04332
  19   25819.8    387.3   0.001658472   0.00029   0.00602   0.01012   0.01241
  20   25841.9    387.0   0.002389200   0.00042   0.01121  -0.01480   0.00879
  21   26901.9    371.7   0.010557602   0.00194  -0.02534  -0.03469  -0.00978
  22   27038.6    369.8   0.013579613   0.00251   0.02971  -0.02947   0.02754
  23   28218.3    354.4   0.109124677   0.02105  -0.06086   0.05082   0.12148
  24   28596.2    349.7   0.412220077   0.08056   0.17173  -0.16077   0.15883
  25   29535.7    338.6   0.643340097   0.12987   0.21593  -0.20437   0.20365
  26   29723.8    336.4   0.256875692   0.05218  -0.13039  -0.18228  -0.04422
  27   30524.5    327.6   0.000802439   0.00017  -0.00212  -0.00318   0.01236
  28   30536.7    327.5   0.001025490   0.00021   0.01115  -0.00886   0.00335
  29   31111.5    321.4   0.010496600   0.00223   0.02815  -0.02559   0.02801
  30   31646.5    316.0   0.045799473   0.00991  -0.01686   0.05884   0.07848
  31   32212.3    310.4   0.088381163   0.01946   0.08410  -0.07972   0.07766
  32   32409.7    308.5   0.136487897   0.03023   0.02091   0.13322   0.10976
  33   32471.7    308.0   0.004278360   0.00095   0.01642   0.00056   0.02607
  34   32496.1    307.7   0.023890286   0.00531   0.00135   0.05279   0.05018
  35   32626.0    306.5   0.000318076   0.00007   0.00299   0.00550   0.00563
  36   32677.0    306.0   0.008640316   0.00193   0.01229   0.03541   0.02291
  37   32953.4    303.5   0.008621453   0.00194  -0.02292  -0.03332   0.01749
  38   32971.8    303.3   0.014422628   0.00325  -0.04179   0.02503  -0.02962
  39   33076.3    302.3   0.008996410   0.00203   0.02584  -0.01183  -0.03501
  40   33211.4    301.1   0.017569468   0.00399   0.03529  -0.03611   0.03792
  41   33548.6    298.1   0.001216392   0.00028  -0.00245  -0.00866   0.01407
  42   33562.2    298.0   0.001802393   0.00041  -0.01843  -0.00033   0.00858
  43   34052.2    293.7   0.008827148   0.00205  -0.03127   0.02419  -0.02216
  44   34056.9    293.6   0.003902757   0.00091   0.01658   0.01175  -0.02226
  45   34255.3    291.9   0.023087634   0.00541  -0.04329   0.04186  -0.04217
  46   34281.4    291.7   0.004329535   0.00101   0.02716  -0.00197  -0.01651
  47   34389.0    290.8   0.115424532   0.02713   0.09889  -0.09316   0.09311
  48   34680.8    288.3   0.067433009   0.01598  -0.07462   0.07259  -0.07174
  49   35104.3    284.9   0.093881258   0.02252   0.11572   0.03815  -0.08762
  50   35552.5    281.3   0.004455732   0.00108   0.01655  -0.02040   0.01981
  51   35754.7    279.7   0.030158137   0.00737   0.06651   0.05087  -0.01893
  52   36453.7    274.3   0.026266986   0.00654   0.05236  -0.03903   0.04774
  53   36784.0    271.9   0.436425075   0.10972  -0.07071  -0.26318  -0.18829
  54   38172.2    262.0   0.004038017   0.00105  -0.01079   0.03057  -0.00156
  55   38191.4    261.8   0.018264254   0.00477   0.01964   0.05022   0.04312
  56   38842.8    257.4   0.231568223   0.06147  -0.09776  -0.20389  -0.10172
  57   38984.3    256.5   0.001618248   0.00043  -0.01186  -0.00890  -0.01453
  58   38996.7    256.4   0.005845938   0.00156  -0.00893  -0.03519  -0.01550
  59   39495.9    253.2   0.121743906   0.03286  -0.08744  -0.14868  -0.05579

-------------------------------------------------------------------
                             CD SPECTRUM
-------------------------------------------------------------------
State   Energy Wavelength       R         MX        MY        MZ   
        (cm-1)   (nm)       (1e40*cgs)   (au)      (au)      (au)  
-------------------------------------------------------------------
   0   11040.0    905.8    -119.88207  -1.80126  -0.58465   2.27070
   1   15174.1    659.0    -89.85548   0.72377   0.42407  -1.29896
   2   15308.4    653.2    264.66435  -0.64572   1.07997  -1.25202
   3   15800.6    632.9    -123.87377   2.75491   0.58139  -3.06241
   4   16114.7    620.6     48.26815  -0.28702  -0.27203   0.49576
   5   16476.4    606.9     -5.21286  -0.65030  -0.25090   1.21462
   6   16717.1    598.2    101.59268  -0.32327  -0.41693   0.71867
   7   18505.9    540.4    231.53241  -0.10897  -0.72932   1.08424
   8   20659.0    484.1    410.16618   2.36812   0.21005  -0.99996
   9   21019.8    475.7    -429.86032  -1.83013   0.46004   0.11239
  10   23251.8    430.1      6.50497   0.24543   0.02352  -0.26184
  11   23266.2    429.8      7.99091  -0.24338   0.03256   0.19438
  12   23521.9    425.1      1.27797   0.41056   0.11735  -0.34214
  13   23799.3    420.2    378.48584   2.32596   0.12846  -1.04405
  14   23999.2    416.7      0.11632   0.67922   0.17427  -0.56053
  15   24405.7    409.7      0.26810   0.03919   0.08858   0.07236
  16   24412.9    409.6      1.51801  -0.10129  -0.17604  -0.16221
  17   24794.6    403.3     -1.13374  -0.21251   0.19536  -0.17884
  18   25022.8    399.6     97.86972  -1.25382  -0.11174   0.53933
  19   25819.8    387.3      4.30487   0.78494   0.01215  -0.57383
  20   25841.9    387.0    -19.44922   0.30852  -0.29793   0.34797
  21   26901.9    371.7     34.84998   0.75733   0.05521  -0.43243
  22   27038.6    369.8    -75.88617   0.87548  -0.35754   0.13562
  23   28218.3    354.4    974.29130   4.39266   0.45699  -2.35682
  24   28596.2    349.7    -1602.86842   3.96385  -1.26400   0.14467
  25   29535.7    338.6    -734.16447   3.31648   0.07364  -1.43144
  26   29723.8    336.4    258.86623   1.15431  -0.14002   0.46525
  27   30524.5    327.6      9.80600   0.79783  -0.07349  -0.35521
  28   30536.7    327.5     -6.37146   0.06104  -0.25227   0.39559
  29   31111.5    321.4    -26.43674   0.57014  -0.08108  -0.11208
  30   31646.5    316.0    170.70846   2.05023   0.25264  -1.12052
  31   32212.3    310.4    -162.05027   1.43041  -0.13545  -0.39864
  32   32409.7    308.5    158.23964   2.36418   0.35728  -1.80932
  33   32471.7    308.0      0.01630   0.46735   0.06763  -0.30923
  34   32496.1    307.7     33.23998   1.06025   0.17265  -0.65321
  35   32626.0    306.5     -5.54446   0.40676  -0.20090   0.10215
  36   32677.0    306.0      4.84172   0.84423   0.23958  -0.79503
  37   32953.4    303.5      7.09767   0.56795  -0.13200   0.18386
  38   32971.8    303.3    -64.33745  -0.76175   0.28456  -0.03258
  39   33076.3    302.3     28.72551  -0.68521   0.00653   0.02932
  40   33211.4    301.1    110.22261  -0.10378   0.70155  -0.89810
  41   33548.6    298.1      0.48274   0.20854   0.01341   0.01024
  42   33562.2    298.0      1.63536   0.13691  -0.01895   0.14692
  43   34052.2    293.7     27.02758  -0.07600  -0.30784   0.54063
  44   34056.9    293.6     -1.81130  -0.16814  -0.07821  -0.21051
  45   34255.3    291.9    -126.78783  -1.18181   0.45722  -0.18111
  46   34281.4    291.7      2.38300  -0.18891  -0.03029  -0.21213
  47   34389.0    290.8    -313.94364   1.92833  -0.35709  -0.27472
  48   34680.8    288.3    105.75402  -0.60844  -0.55920   1.00496
  49   35104.3    284.9    655.01482  -3.14928  -0.14449   0.71949
  50   35552.5    281.3     66.18978  -0.36732   0.67416  -0.75234
  51   35754.7    279.7     51.16723  -0.70020   0.08938  -0.40957
  52   36453.7    274.3    -300.61835   2.03021  -1.18311   0.79984
  53   36784.0    271.9    121.16212  -1.98700  -0.41040   1.75021
  54   38172.2    262.0    -12.55615  -0.17057   0.20038  -0.16347
  55   38191.4    261.8    -10.29766   0.74526   0.18856  -0.44067
  56   38842.8    257.4     14.34842  -0.68743  -0.31195   1.35871
  57   38984.3    256.5     -1.08290  -0.24402  -0.07016   0.18263
  58   38996.7    256.4     -3.46103  -0.25154  -0.12346   0.25505
  59   39495.9    253.2     56.70183   0.41047  -0.14671   0.48183

sTD-DFT done

Total run time:        2.522 sec

           *** ORCA-CIS/TD-DFT FINISHED WITHOUT ERROR ***

-------------------------   --------------------
FINAL SINGLE POINT ENERGY     -3635.235613505627
-------------------------   --------------------


                            ***************************************
                            *     ORCA property calculations      *
                            ***************************************

                                    ---------------------
                                    Active property flags
                                    ---------------------
   (+) Dipole Moment


------------------------------------------------------------------------------
                       ORCA ELECTRIC PROPERTIES CALCULATION
------------------------------------------------------------------------------

Dipole Moment Calculation                       ... on
Quadrupole Moment Calculation                   ... off
Polarizability Calculation                      ... off
GBWName                                         ... xtbopt.gbw
Electron density file                           ... xtbopt.scfp
The origin for moment calculation is the CENTER OF MASS  = ( 2.614768, -12.109573 -0.814401)

-------------
DIPOLE MOMENT
-------------
                                X             Y             Z
Electronic contribution:      8.00122      -7.47617       7.28900
Nuclear contribution   :     -8.69677       8.15452      -7.96574
                        -----------------------------------------
Total Dipole Moment    :     -0.69555       0.67836      -0.67674
                        -----------------------------------------
Magnitude (a.u.)       :      1.18404
Magnitude (Debye)      :      3.00958



--------------------
Rotational spectrum 
--------------------
 
Rotational constants in cm-1:     0.002677     0.000350     0.000319 
Rotational constants in MHz :    80.253274    10.483903     9.576412 

 Dipole components along the rotational axes: 
x,y,z [a.u.] :    -0.004195     1.183806     0.022964 
x,y,z [Debye]:    -0.010664     3.008997     0.058370 

 

Timings for individual modules:

Sum of individual times         ...      456.694 sec (=   7.612 min)
GTO integral calculation        ...        2.695 sec (=   0.045 min)   0.6 %
SCF iterations                  ...      450.779 sec (=   7.513 min)  98.7 %
CIS module                      ...        3.220 sec (=   0.054 min)   0.7 %
                             ****ORCA TERMINATED NORMALLY****
TOTAL RUN TIME: 0 days 0 hours 7 minutes 37 seconds 609 msec
