
                                 *****************
                                 * O   R   C   A *
                                 *****************

           --- An Ab Initio, DFT and Semiempirical electronic structure package ---

                  #######################################################
                  #                        -***-                        #
                  #          Department of theory and spectroscopy      #
                  #               Directorship: Frank Neese             #
                  #        Max Planck Institute fuer Kohlenforschung    #
                  #                Kaiser Wilhelm Platz 1               #
                  #                 D-45470 Muelheim/Ruhr               #
                  #                      Germany                        #
                  #                                                     #
                  #                  All rights reserved                #
                  #                        -***-                        #
                  #######################################################


                         Program Version 4.2.0 -  RELEASE  -


 With contributions from (in alphabetic order):
   Daniel Aravena         : Magnetic Suceptibility
   Michael Atanasov       : Ab Initio Ligand Field Theory (pilot matlab implementation)
   Alexander A. Auer      : GIAO ZORA, VPT2
   Ute Becker             : Parallelization
   Giovanni Bistoni       : ED, misc. LED, open-shell LED, HFLED
   Martin Brehm           : Molecular dynamics
   Dmytro Bykov           : SCF Hessian
   Vijay G. Chilkuri      : MRCI spin determinant printing, contributions to CSF-ICE
   Dipayan Datta          : RHF DLPNO-CCSD density
   Achintya Kumar Dutta   : EOM-CC, STEOM-CC
   Dmitry Ganyushin       : Spin-Orbit,Spin-Spin,Magnetic field MRCI
   Miquel Garcia          : C-PCM Hessian, Gaussian charge scheme
   Yang Guo               : DLPNO-NEVPT2, CIM, IAO-localization
   Andreas Hansen         : Spin unrestricted coupled pair/coupled cluster methods
   Benjamin Helmich-Paris : CASSCF linear response (MC-RPA)
   Lee Huntington         : MR-EOM, pCC
   Robert Izsak           : Overlap fitted RIJCOSX, COSX-SCS-MP3, EOM
   Christian Kollmar      : KDIIS, OOCD, Brueckner-CCSD(T), CCSD density
   Simone Kossmann        : Meta GGA functionals, TD-DFT gradient, OOMP2, MP2 Hessian
   Martin Krupicka        : AUTO-CI
   Lucas Lang             : DCDCAS
   Dagmar Lenk            : GEPOL surface, SMD
   Dimitrios Liakos       : Extrapolation schemes; Compound Job, initial MDCI parallelization
   Dimitrios Manganas     : Further ROCIS development; embedding schemes
   Dimitrios Pantazis     : SARC Basis sets
   Taras Petrenko         : DFT Hessian,TD-DFT gradient, ASA, ECA, R-Raman, ABS, FL, XAS/XES, NRVS
   Peter Pinski           : DLPNO-MP2, DLPNO-MP2 Gradient
   Christoph Reimann      : Effective Core Potentials
   Marius Retegan         : Local ZFS, SOC
   Christoph Riplinger    : Optimizer, TS searches, QM/MM, DLPNO-CCSD(T), (RO)-DLPNO pert. Triples
   Tobias Risthaus        : Range-separated hybrids, TD-DFT gradient, RPA, STAB
   Michael Roemelt        : Original ROCIS implementation
   Masaaki Saitow         : Open-shell DLPNO-CCSD energy and density
   Barbara Sandhoefer     : DKH picture change effects
   Avijit Sen             : IP-ROCIS
   Kantharuban Sivalingam : CASSCF convergence, NEVPT2, FIC-MRCI
   Bernardo de Souza      : ESD, SOC TD-DFT
   Georgi Stoychev        : AutoAux, RI-MP2 NMR
   Willem Van den Heuvel  : Paramagnetic NMR
   Boris Wezisla          : Elementary symmetry handling
   Frank Wennmohs         : Technical directorship


 We gratefully acknowledge several colleagues who have allowed us to
 interface, adapt or use parts of their codes:
   Stefan Grimme, W. Hujo, H. Kruse,             : VdW corrections, initial TS optimization,
                  C. Bannwarth                     DFT functionals, gCP, sTDA/sTD-DF
   Ed Valeev, F. Pavosevic, A. Kumar             : LibInt (2-el integral package), F12 methods
   Garnet Chan, S. Sharma, J. Yang, R. Olivares  : DMRG
   Ulf Ekstrom                                   : XCFun DFT Library
   Mihaly Kallay                                 : mrcc  (arbitrary order and MRCC methods)
   Andreas Klamt, Michael Diedenhofen            : otool_cosmo (COSMO solvation model)
   Jiri Pittner, Ondrej Demel                    : Mk-CCSD
   Frank Weinhold                                : gennbo (NPA and NBO analysis)
   Christopher J. Cramer and Donald G. Truhlar   : smd solvation model
   Lars Goerigk                                  : TD-DFT with DH, B97 family of functionals
   V. Asgeirsson, H. Jonsson                     : NEB implementation
   FAccTs GmbH                                   : IRC, NEB, NEB-TS, Multilevel, MM, QM/MM, CI optimization
   S Lehtola, MJT Oliveira, MAL Marques          : LibXC Library


 Your calculation uses the libint2 library for the computation of 2-el integrals
 For citations please refer to: http://libint.valeyev.net

 Your ORCA version has been built with support for libXC version: 4.2.3
 For citations please refer to: https://tddft.org/programs/libxc/

 This ORCA versions uses:
   CBLAS   interface :  Fast vector & matrix operations
   LAPACKE interface :  Fast linear algebra routines
   SCALAPACK package :  Parallel linear algebra routines


XCFun DFT library Copyright 2009-2010 Ulf Ekstrom and contributors.
See http://admol.org/xcfun for more information. This is free soft-
ware; see the source code for copying conditions. There is ABSOLUTELY
NO WARRANTY; not even for MERCHANTABILITY or FITNESS FOR A PARTICULAR
PURPOSE. For details see the documentation. Scientific users of this 
library should cite U. Ekstrom, L. Visscher, R. Bast, A. J. Thorvald-
sen and K. Ruud; J.Chem.Theor.Comp. 2010, DOI: 10.1021/ct100117s
XCFun Version 0.99 
----- Orbital basis set information -----
Your calculation utilizes the basis: def2-SVP
   F. Weigend and R. Ahlrichs, Phys. Chem. Chem. Phys. 7, 3297 (2005).

----- AuxJ basis set information -----
Your calculation utilizes the auxiliary basis: def2/J
   F. Weigend, Phys. Chem. Chem. Phys. 8, 1057 (2006).

================================================================================
                                        WARNINGS
                       Please study these warnings very carefully!
================================================================================

INFO   : Checking CIS options ...

WARNING: CIS/ROCIS methods need fully converged wavefunctions
  ===> : Setting SCFConvForced true
         You can overwrite this default with %scf ConvForced false 


INFO   : the flag for use of LIBINT has been found!

================================================================================
                                       INPUT FILE
================================================================================
NAME = xtbopt.inp
|  1> # ORCA input file
|  2> # SCF done       -187.413832445059          0.000582679806
|  3> ! CAM-B3LYP def2-SVP def2/J RIJCOSX Grid4 TightSCF
|  4> %maxcore 5000
|  5> %tddft
|  6>     Mode sTDDFT
|  7>     Ethresh 5.0
|  8>     maxcore 5000
|  9> end
| 10> 
| 11> %pal
| 12>   nprocs 6
| 13>   end
| 14> * xyz 0 1
| 15>    C       -5.38557        -2.54815        -0.94069
| 16>    C       -4.20007        -2.64490        -1.62148
| 17>    C       -3.52933        -3.86157        -1.86826
| 18>    N       -2.93684        -4.81675        -2.10083
| 19>    C       -3.46180        -1.56165        -2.14370
| 20>    N       -2.79802        -0.73559        -2.58588
| 21>    C       -6.11287        -3.66877        -0.35209
| 22>    C       -7.22377        -3.16224         0.36697
| 23>    C       -8.10775        -3.97158         1.03806
| 24>    C       -7.89040        -5.35244         0.99057
| 25>    C       -6.78269        -5.85162         0.26446
| 26>    C       -5.88522        -5.03084        -0.40840
| 27>    S       -6.70776        -7.58584         0.32601
| 28>    C       -8.14489        -7.61713         1.31288
| 29>    C       -8.65600        -6.39259         1.58437
| 30>   Br       -8.83636        -9.26201         1.88937
| 31>    C       -7.24903        -1.69610         0.24228
| 32>    O       -8.05748        -0.94228         0.75769
| 33>    C       -6.12513        -1.33814        -0.62873
| 34>    C       -5.87370        -0.08769        -1.13325
| 35>    C       -6.54599         1.12604        -0.92602
| 36>    C       -6.19936         2.28888        -1.62688
| 37>    C       -7.00017         3.36407        -1.29694
| 38>    C       -7.96033         3.03382        -0.30992
| 39>    S       -7.89075         1.40569         0.18096
| 40>    C       -8.74493         4.18541        -0.05901
| 41>    C       -8.29502         5.23320        -0.88559
| 42>    C       -7.17059         4.75978        -1.67493
| 43>    C       -6.42529         5.47021        -2.56842
| 44>    C       -5.35396         4.89026        -3.28120
| 45>    N       -4.48300         4.42753        -3.86541
| 46>    C       -6.66182         6.83570        -2.83647
| 47>    N       -6.83470         7.94816        -3.05231
| 48>    C       -9.04589         6.39768        -0.73977
| 49>    C      -10.04952         6.24751         0.20252
| 50>    S      -10.05433         4.65170         0.93182
| 51>    C      -11.04580         7.19314         0.60751
| 52>    C      -11.36170         8.35886        -0.08122
| 53>    F      -10.70100         8.68120        -1.20294
| 54>    C      -12.37490         9.24144         0.31734
| 55>    F      -12.55116        10.32626        -0.45701
| 56>    C      -13.15524         9.06162         1.45347
| 57>    C      -12.82972         7.90423         2.20849
| 58>    C      -11.82080         6.97771         1.77710
| 59>    N      -11.71210         5.94267         2.60466
| 60>    S      -12.76667         6.11376         3.80681
| 61>    N      -13.41493         7.50603         3.33469
| 62>    C      -14.22052         9.95177         1.85454
| 63>    C      -14.98591        10.64927         0.95355
| 64>    C      -16.01867        11.52038         1.29721
| 65>    C      -16.33451        11.80794         2.69671
| 66>    C      -15.71896        11.21213         3.74394
| 67>    S      -14.48191        10.03925         3.58809
| 68>    C      -17.38917        12.75716         2.65508
| 69>    C      -17.73605        13.03244         1.32735
| 70>    C      -18.78922        13.97391         1.25498
| 71>    C      -19.19860        14.37098         2.48782
| 72>    S      -18.33617        13.62904         3.79086
| 73>    C      -16.89177        12.24948         0.46122
| 74>    C      -16.91906        12.14286        -0.94846
| 75>    C      -17.77988        12.77449        -1.78936
| 76>    C      -17.76986        12.54099        -3.15388
| 77>    C      -17.76832        12.29584        -4.34534
| 78>    C      -17.77212        11.99098        -5.69283
| 79>    C      -16.98910        11.04909        -6.33812
| 80>    C      -17.24062        10.95805        -7.71453
| 81>    C      -18.22006        11.82932        -8.14750
| 82>    S      -18.83619        12.77646        -6.82540
| 83>    C      -18.70668        11.98401        -9.44555
| 84>    N      -19.11098        12.11110       -10.51199
| 85>    F      -16.60310        10.11313        -8.52315
| 86>    F      -16.08749        10.29509        -5.70050
| 87>    H       -8.94253        -3.55362         1.57844
| 88>    H       -5.05960        -5.46147        -0.94945
| 89>    H       -9.53708        -6.22818         2.17729
| 90>    H       -5.04957         0.00170        -1.83102
| 91>    H       -5.39854         2.30622        -2.34494
| 92>    H       -8.87016         7.30681        -1.28404
| 93>    H      -14.78492        10.49487        -0.09602
| 94>    H      -15.98825        11.42336         4.76701
| 95>    H      -19.23357        14.35641         0.35484
| 96>    H      -19.97449        15.07279         2.72399
| 97>    H      -16.19745        11.47023        -1.39352
| 98>    H      -18.52122        13.46981        -1.42642
| 99> *
|100> 
|101>                          ****END OF INPUT****
================================================================================

                       ****************************
                       * Single Point Calculation *
                       ****************************

---------------------------------
CARTESIAN COORDINATES (ANGSTROEM)
---------------------------------
  C     -5.385570   -2.548150   -0.940690
  C     -4.200070   -2.644900   -1.621480
  C     -3.529330   -3.861570   -1.868260
  N     -2.936840   -4.816750   -2.100830
  C     -3.461800   -1.561650   -2.143700
  N     -2.798020   -0.735590   -2.585880
  C     -6.112870   -3.668770   -0.352090
  C     -7.223770   -3.162240    0.366970
  C     -8.107750   -3.971580    1.038060
  C     -7.890400   -5.352440    0.990570
  C     -6.782690   -5.851620    0.264460
  C     -5.885220   -5.030840   -0.408400
  S     -6.707760   -7.585840    0.326010
  C     -8.144890   -7.617130    1.312880
  C     -8.656000   -6.392590    1.584370
  Br    -8.836360   -9.262010    1.889370
  C     -7.249030   -1.696100    0.242280
  O     -8.057480   -0.942280    0.757690
  C     -6.125130   -1.338140   -0.628730
  C     -5.873700   -0.087690   -1.133250
  C     -6.545990    1.126040   -0.926020
  C     -6.199360    2.288880   -1.626880
  C     -7.000170    3.364070   -1.296940
  C     -7.960330    3.033820   -0.309920
  S     -7.890750    1.405690    0.180960
  C     -8.744930    4.185410   -0.059010
  C     -8.295020    5.233200   -0.885590
  C     -7.170590    4.759780   -1.674930
  C     -6.425290    5.470210   -2.568420
  C     -5.353960    4.890260   -3.281200
  N     -4.483000    4.427530   -3.865410
  C     -6.661820    6.835700   -2.836470
  N     -6.834700    7.948160   -3.052310
  C     -9.045890    6.397680   -0.739770
  C    -10.049520    6.247510    0.202520
  S    -10.054330    4.651700    0.931820
  C    -11.045800    7.193140    0.607510
  C    -11.361700    8.358860   -0.081220
  F    -10.701000    8.681200   -1.202940
  C    -12.374900    9.241440    0.317340
  F    -12.551160   10.326260   -0.457010
  C    -13.155240    9.061620    1.453470
  C    -12.829720    7.904230    2.208490
  C    -11.820800    6.977710    1.777100
  N    -11.712100    5.942670    2.604660
  S    -12.766670    6.113760    3.806810
  N    -13.414930    7.506030    3.334690
  C    -14.220520    9.951770    1.854540
  C    -14.985910   10.649270    0.953550
  C    -16.018670   11.520380    1.297210
  C    -16.334510   11.807940    2.696710
  C    -15.718960   11.212130    3.743940
  S    -14.481910   10.039250    3.588090
  C    -17.389170   12.757160    2.655080
  C    -17.736050   13.032440    1.327350
  C    -18.789220   13.973910    1.254980
  C    -19.198600   14.370980    2.487820
  S    -18.336170   13.629040    3.790860
  C    -16.891770   12.249480    0.461220
  C    -16.919060   12.142860   -0.948460
  C    -17.779880   12.774490   -1.789360
  C    -17.769860   12.540990   -3.153880
  C    -17.768320   12.295840   -4.345340
  C    -17.772120   11.990980   -5.692830
  C    -16.989100   11.049090   -6.338120
  C    -17.240620   10.958050   -7.714530
  C    -18.220060   11.829320   -8.147500
  S    -18.836190   12.776460   -6.825400
  C    -18.706680   11.984010   -9.445550
  N    -19.110980   12.111100  -10.511990
  F    -16.603100   10.113130   -8.523150
  F    -16.087490   10.295090   -5.700500
  H     -8.942530   -3.553620    1.578440
  H     -5.059600   -5.461470   -0.949450
  H     -9.537080   -6.228180    2.177290
  H     -5.049570    0.001700   -1.831020
  H     -5.398540    2.306220   -2.344940
  H     -8.870160    7.306810   -1.284040
  H    -14.784920   10.494870   -0.096020
  H    -15.988250   11.423360    4.767010
  H    -19.233570   14.356410    0.354840
  H    -19.974490   15.072790    2.723990
  H    -16.197450   11.470230   -1.393520
  H    -18.521220   13.469810   -1.426420

----------------------------
CARTESIAN COORDINATES (A.U.)
----------------------------
  NO LB      ZA    FRAG     MASS         X           Y           Z
   0 C     6.0000    0    12.011  -10.177252   -4.815306   -1.777646
   1 C     6.0000    0    12.011   -7.936982   -4.998137   -3.064153
   2 C     6.0000    0    12.011   -6.669467   -7.297310   -3.530500
   3 N     7.0000    0    14.007   -5.549823   -9.102338   -3.969993
   4 C     6.0000    0    12.011   -6.541854   -2.951091   -4.051006
   5 N     7.0000    0    14.007   -5.287492   -1.390064   -4.886605
   6 C     6.0000    0    12.011  -11.551650   -6.932971   -0.665354
   7 C     6.0000    0    12.011  -13.650947   -5.975768    0.693473
   8 C     6.0000    0    12.011  -15.321427   -7.505199    1.961649
   9 C     6.0000    0    12.011  -14.910695  -10.114646    1.871906
  10 C     6.0000    0    12.011  -12.817427  -11.057959    0.499757
  11 C     6.0000    0    12.011  -11.121454   -9.506910   -0.771764
  12 S    16.0000    0    32.060  -12.675829  -14.335160    0.616070
  13 C     6.0000    0    12.011  -15.391611  -14.394290    2.480984
  14 C     6.0000    0    12.011  -16.357469  -12.080244    2.994025
  15 Br   35.0000    0    79.900  -16.698300  -17.502662    3.570392
  16 C     6.0000    0    12.011  -13.698681   -3.205164    0.457843
  17 O     8.0000    0    15.999  -15.226431   -1.780651    1.431827
  18 C     6.0000    0    12.011  -11.574818   -2.528718   -1.188128
  19 C     6.0000    0    12.011  -11.099684   -0.165710   -2.141532
  20 C     6.0000    0    12.011  -12.370128    2.127907   -1.749924
  21 C     6.0000    0    12.011  -11.715093    4.325356   -3.074358
  22 C     6.0000    0    12.011  -13.228404    6.357171   -2.450861
  23 C     6.0000    0    12.011  -15.042844    5.733089   -0.585664
  24 S    16.0000    0    32.060  -14.911356    2.656369    0.341965
  25 C     6.0000    0    12.011  -16.525523    7.909279   -0.111513
  26 C     6.0000    0    12.011  -15.675316    9.889315   -1.673523
  27 C     6.0000    0    12.011  -13.550451    8.994681   -3.165159
  28 C     6.0000    0    12.011  -12.142038   10.337199   -4.853610
  29 C     6.0000    0    12.011  -10.117518    9.241252   -6.200569
  30 N     7.0000    0    14.007   -8.471642    8.366819   -7.304566
  31 C     6.0000    0    12.011  -12.589015   12.917601   -5.360151
  32 N     7.0000    0    14.007  -12.915711   15.019846   -5.768030
  33 C     6.0000    0    12.011  -17.094255   12.089863   -1.397963
  34 C     6.0000    0    12.011  -18.990841   11.806083    0.382707
  35 S    16.0000    0    32.060  -18.999930    8.790439    1.760885
  36 C     6.0000    0    12.011  -20.873537   13.593065    1.148028
  37 C     6.0000    0    12.011  -21.470501   15.795956   -0.153484
  38 F     9.0000    0    18.998  -20.221959   16.405091   -2.273227
  39 C     6.0000    0    12.011  -23.385172   17.463791    0.599686
  40 F     9.0000    0    18.998  -23.718255   19.513803   -0.863624
  41 C     6.0000    0    12.011  -24.859801   17.123980    2.746660
  42 C     6.0000    0    12.011  -24.244657   14.936830    4.173441
  43 C     6.0000    0    12.011  -22.338075   13.185961    3.358232
  44 N     7.0000    0    14.007  -22.132661   11.230019    4.922094
  45 S    16.0000    0    32.060  -24.125510   11.553332    7.193828
  46 N     7.0000    0    14.007  -25.350544   14.184341    6.301651
  47 C     6.0000    0    12.011  -26.872888   18.806120    3.504573
  48 C     6.0000    0    12.011  -28.319266   20.124204    1.801948
  49 C     6.0000    0    12.011  -30.270899   21.770363    2.451372
  50 C     6.0000    0    12.011  -30.867750   22.313773    5.096043
  51 C     6.0000    0    12.011  -29.704530   21.187855    7.075021
  52 S    16.0000    0    32.060  -27.366844   18.971433    6.780507
  53 C     6.0000    0    12.011  -32.860769   24.107539    5.017374
  54 C     6.0000    0    12.011  -33.516277   24.627742    2.508328
  55 C     6.0000    0    12.011  -35.506480   26.406863    2.371569
  56 C     6.0000    0    12.011  -36.280096   27.157216    4.701298
  57 S    16.0000    0    32.060  -34.650340   25.755153    7.163687
  58 C     6.0000    0    12.011  -31.920819   23.148162    0.871579
  59 C     6.0000    0    12.011  -31.972390   22.946680   -1.792330
  60 C     6.0000    0    12.011  -33.599104   24.140288   -3.381400
  61 C     6.0000    0    12.011  -33.580169   23.699037   -5.959969
  62 C     6.0000    0    12.011  -33.577259   23.235770   -8.211503
  63 C     6.0000    0    12.011  -33.584440   22.659668  -10.757890
  64 C     6.0000    0    12.011  -32.104746   20.879754  -11.977311
  65 C     6.0000    0    12.011  -32.580050   20.707713  -14.578349
  66 C     6.0000    0    12.011  -34.430924   22.354175  -15.396544
  67 S    16.0000    0    32.060  -35.595241   24.144010  -12.898137
  68 C     6.0000    0    12.011  -35.350502   22.646497  -17.849503
  69 N     7.0000    0    14.007  -36.114518   22.886662  -19.864782
  70 F     9.0000    0    18.998  -31.375312   19.111046  -16.106419
  71 F     9.0000    0    18.998  -30.400950   19.454901  -10.772384
  72 H     1.0000    0     1.008  -16.898933   -6.715369    2.982819
  73 H     1.0000    0     1.008   -9.561258  -10.320683   -1.794200
  74 H     1.0000    0     1.008  -18.022469  -11.769555    4.114482
  75 H     1.0000    0     1.008   -9.542304    0.003213   -3.460126
  76 H     1.0000    0     1.008  -10.201762    4.358124   -4.431294
  77 H     1.0000    0     1.008  -16.762173   13.807870   -2.426484
  78 H     1.0000    0     1.008  -27.939450   19.832430   -0.181452
  79 H     1.0000    0     1.008  -30.213414   21.587022    9.008343
  80 H     1.0000    0     1.008  -36.346180   27.129683    0.670550
  81 H     1.0000    0     1.008  -37.746316   28.483445    5.147595
  82 H     1.0000    0     1.008  -30.608745   21.675593   -2.633371
  83 H     1.0000    0     1.008  -35.000033   25.454252   -2.695543

--------------------------------
INTERNAL COORDINATES (ANGSTROEM)
--------------------------------
 C      0   0   0     0.000000000000     0.00000000     0.00000000
 C      1   0   0     1.370491093222     0.00000000     0.00000000
 C      2   1   0     1.411055776679   123.98181834     0.00000000
 N      3   2   1     1.147824915830   176.68767567   179.74784576
 C      2   1   3     1.411094215069   125.60633360   181.62818896
 N      5   2   1     1.148260495010   175.72402126   171.52136019
 C      1   2   3     1.459864526043   125.24280083     1.25443634
 C      7   1   2     1.416939919157   108.71075387   174.82667431
 C      8   7   1     1.373613360484   122.80948167   180.02187616
 C      9   8   7     1.398667459477   117.71732837   359.56671017
 C     10   9   8     1.415428503528   119.15753543     0.08601681
 C      7   1   2     1.382110713185   131.14774760   354.32557198
 S     11  10   9     1.736928874710   111.57400624   180.44409835
 C     13  11  10     1.743626708301    90.13851095     0.00000000
 C     14  13  11     1.354414435762   114.09549672   359.96353088
 Br    14  13  11     1.875127114465   119.58322486   179.87147694
 C      8   7   1     1.471649470254   109.06273111     0.78055713
 O     17   8   7     1.219624312237   126.25169836   181.40761090
 C      1   2   3     1.452030383739   127.31022158   178.96876742
 C     19   1   2     1.371635038121   125.96635037    10.52481511
 C     20  19   1     1.402875129832   130.28239805   177.99654430
 C     21  20  19     1.401268697324   121.70424422   185.48117427
 C     22  21  20     1.380648614167   112.53479141   178.70862716
 C     23  22  21     1.416044055988   112.22470658     1.16143643
 S     24  23  22     1.701943550092   113.35475835   358.92387182
 C     24  23  22     1.415878708153   108.03364316   181.11312328
 C     26  24  23     1.408374022978   108.90936848     0.46175994
 C     27  26  24     1.453109409817   108.88213446   358.79662973
 C     28  27  26     1.363270792983   127.53749056   182.00043106
 C     29  28  27     1.411433774500   122.12850672   180.25701471
 N     30  29  28     1.146294769507   179.50610943   173.11967978
 C     29  28  27     1.411509894935   122.47845334     0.83188748
 N     32  29  28     1.146316558198   179.01945251   132.65840969
 C     27  26  24     1.393227511823   112.84426478   177.80040015
 C     34  27  26     1.384822966989   111.78794834     0.79596478
 S     26  24  23     1.706956007928   138.60139301   180.11330605
 C     35  34  27     1.432063837753   128.68357382   181.87006969
 C     37  35  34     1.390339865393   124.86357865    14.32135605
 F     38  37  35     1.341150000559   120.25857123   358.88038229
 C     38  37  35     1.401560476754   123.46056490   177.72332841
 F     40  38  37     1.344440382650   116.04645927   179.82886780
 C     40  38  37     1.389984577217   123.83557808     1.22471551
 C     42  40  38     1.419707745594   114.29476303     0.95632722
 C     37  35  34     1.419498451214   120.83889509   193.25512828
 N     44  37  35     1.329653731315   125.89620007     0.99382842
 S     45  44  37     1.608276809352   109.19628926   179.12852240
 N     43  42  40     1.330173080505   126.40122875   179.66925959
 C     42  40  38     1.445007143858   124.12814826   181.40347217
 C     48  42  40     1.372629258831   122.81437138    31.48776921
 C     49  48  42     1.394104746890   124.66585214   180.22530093
 C     50  49  48     1.463231324569   121.22999663     2.75477172
 C     51  50  49     1.352990033777   123.74891337   356.20832884
 S     52  51  50     1.711791289673   124.05844021     0.09700669
 C     51  50  49     1.419527872534   105.29171359   177.88125016
 C     54  51  50     1.399632725289   110.08851523     1.09679489
 C     55  54  51     1.414485852421   111.34438850   179.82094029
 C     56  55  54     1.358363366298   111.87114763   359.91353129
 S     54  51  50     1.716677005962   136.89226702   180.61050928
 C     50  49  48     1.411654950794   129.41455745   182.30898834
 C     59  50  49     1.413969685283   124.29130051     4.52311392
 C     60  59  50     1.359073338455   126.44376140   176.70998864
 C     61  60  59     1.384390653248   121.79471926   183.76408600
 C     62  61  60     1.216420086031   178.05356166    58.68569762
 C     63  62  61     1.381551070247   178.85517389     1.46880587
 C     64  63  62     1.384440781182   127.09811106   303.07254313
 C     65  64  63     1.402160860993   113.59443008   179.04898338
 C     66  65  64     1.380535094592   113.21309108     0.04140901
 S     67  66  65     1.739148862662   110.89323455     0.05796520
 C     67  66  65     1.394869822958   127.54265094   180.31603342
 N     69  67  66     1.147564652514   179.78910372   131.98127686
 F     66  65  64     1.331986434315   123.45347168   180.27524243
 F     65  64  63     1.337152144111   122.86996391   359.49663240
 H      9   8   7     1.078683806498   120.96263669   179.84232580
 H     12   7   1     1.076952034122   122.73830710     0.00000000
 H     15  14  13     1.074656568816   123.93853411   179.98394719
 H     20  19   1     1.083542247400   116.83984588     0.24385082
 H     22  21  20     1.075743236837   122.09902930   359.33569367
 H     34  27  26     1.074070864841   124.48900695   180.45629596
 H     49  48  42     1.079737711206   117.49015711     1.54137010
 H     52  51  50     1.078799073924   122.29220542   181.61755521
 H     56  55  54     1.074246336787   126.00410790   179.58296599
 H     57  56  55     1.072529177738   127.52808113   179.94633767
 H     60  59  50     1.082234037813   116.35879079   358.43219561
 H     61  60  59     1.079249897660   121.76419968     2.49221301

---------------------------
INTERNAL COORDINATES (A.U.)
---------------------------
 C      0   0   0     0.000000000000     0.00000000     0.00000000
 C      1   0   0     2.589852835167     0.00000000     0.00000000
 C      2   1   0     2.666508977611   123.98181834     0.00000000
 N      3   2   1     2.169074740610   176.68767567   179.74784576
 C      2   1   3     2.666581615640   125.60633360   181.62818896
 N      5   2   1     2.169897865969   175.72402126   171.52136019
 C      1   2   3     2.758744146849   125.24280083     1.25443634
 C      7   1   2     2.677628395427   108.71075387   174.82667431
 C      8   7   1     2.595753065210   122.80948167   180.02187616
 C      9   8   7     2.643098450839   117.71732837   359.56671017
 C     10   9   8     2.674772233814   119.15753543     0.08601681
 C      7   1   2     2.611810734678   131.14774760   354.32557198
 S     11  10   9     3.282319887301   111.57400624   180.44409835
 C     13  11  10     3.294976958479    90.13851095     0.00000000
 C     14  13  11     2.559472355419   114.09549672   359.96353088
 Br    14  13  11     3.543476712628   119.58322486   179.87147694
 C      8   7   1     2.781014463911   109.06273111     0.78055713
 O     17   8   7     2.304755936400   126.25169836   181.40761090
 C      1   2   3     2.743939763398   127.31022158   178.96876742
 C     19   1   2     2.592014577739   125.96635037    10.52481511
 C     20  19   1     2.651049795471   130.28239805   177.99654430
 C     21  20  19     2.648014077979   121.70424422   185.48117427
 C     22  21  20     2.609047767953   112.53479141   178.70862716
 C     23  22  21     2.675935459385   112.22470658     1.16143643
 S     24  23  22     3.216207205068   113.35475835   358.92387182
 C     24  23  22     2.675622997259   108.03364316   181.11312328
 C     26  24  23     2.661441197558   108.90936848     0.46175994
 C     27  26  24     2.745978827179   108.88213446   358.79662973
 C     28  27  26     2.576208445111   127.53749056   182.00043106
 C     29  28  27     2.667223289972   122.12850672   180.25701471
 N     30  29  28     2.166183183115   179.50610943   173.11967978
 C     29  28  27     2.667367136748   122.47845334     0.83188748
 N     32  29  28     2.166224357774   179.01945251   132.65840969
 C     27  26  24     2.632818439590   112.84426478   177.80040015
 C     34  27  26     2.616936151573   111.78794834     0.79596478
 S     26  24  23     3.225679377635   138.60139301   180.11330605
 C     35  34  27     2.706208459646   128.68357382   181.87006969
 C     37  35  34     2.627361578665   124.86357865    14.32135605
 F     38  37  35     2.534406205565   120.25857123   358.88038229
 C     38  37  35     2.648565461194   123.46056490   177.72332841
 F     40  38  37     2.540624126593   116.04645927   179.82886780
 C     40  38  37     2.626690181314   123.83557808     1.22471551
 C     42  40  38     2.682858829380   114.29476303     0.95632722
 C     37  35  34     2.682463320321   120.83889509   193.25512828
 N     44  37  35     2.512681405132   125.89620007     0.99382842
 S     45  44  37     3.039202717212   109.19628926   179.12852240
 N     43  42  40     2.513662832869   126.40122875   179.66925959
 C     42  40  38     2.730667763451   124.12814826   181.40347217
 C     48  42  40     2.593893382599   122.81437138    31.48776921
 C     49  48  42     2.634476173621   124.66585214   180.22530093
 C     50  49  48     2.765106474010   121.22999663     2.75477172
 C     51  50  49     2.556780625763   123.74891337   356.20832884
 S     52  51  50     3.234816735914   124.05844021     0.09700669
 C     51  50  49     2.682518918557   105.29171359   177.88125016
 C     54  51  50     2.644922538870   110.08851523     1.09679489
 C     55  54  51     2.672990881382   111.34438850   179.82094029
 C     56  55  54     2.566934752654   111.87114763   359.91353129
 S     54  51  50     3.244049401669   136.89226702   180.61050928
 C     50  49  48     2.667641252594   129.41455745   182.30898834
 C     59  50  49     2.672015466852   124.29130051     4.52311392
 C     60  59  50     2.568276405595   126.44376140   176.70998864
 C     61  60  59     2.616119196999   121.79471926   183.76408600
 C     62  61  60     2.298700826400   178.05356166    58.68569762
 C     63  62  61     2.610753162792   178.85517389     1.46880587
 C     64  63  62     2.616213925066   127.09811106   303.07254313
 C     65  64  63     2.649700022980   113.59443008   179.04898338
 C     66  65  64     2.608833247046   113.21309108     0.04140901
 S     67  66  65     3.286515056553   110.89323455     0.05796520
 C     67  66  65     2.635921957863   127.54265094   180.31603342
 N     69  67  66     2.168582914220   179.78910372   131.98127686
 F     66  65  64     2.517089574954   123.45347168   180.27524243
 F     65  64  63     2.526851351755   122.86996391   359.49663240
 H      9   8   7     2.038416979376   120.96263669   179.84232580
 H     12   7   1     2.035144403860   122.73830710     0.00000000
 H     15  14  13     2.030806603082   123.93853411   179.98394719
 H     20  19   1     2.047598102119   116.83984588     0.24385082
 H     22  21  20     2.032860108039   122.09902930   359.33569367
 H     34  27  26     2.029699782973   124.48900695   180.45629596
 H     49  48  42     2.040408570646   117.49015711     1.54137010
 H     52  51  50     2.038634803245   122.29220542   181.61755521
 H     56  55  54     2.030031376895   126.00410790   179.58296599
 H     57  56  55     2.026786416565   127.52808113   179.94633767
 H     60  59  50     2.045125944273   116.35879079   358.43219561
 H     61  60  59     2.039486736641   121.76419968     2.49221301

---------------------
BASIS SET INFORMATION
---------------------
There are 7 groups of distinct atoms

 Group   1 Type C   : 7s4p1d contracted to 3s2p1d pattern {511/31/1}
 Group   2 Type N   : 7s4p1d contracted to 3s2p1d pattern {511/31/1}
 Group   3 Type S   : 10s7p1d contracted to 4s3p1d pattern {5311/511/1}
 Group   4 Type Br  : 14s10p6d contracted to 5s4p3d pattern {63311/5311/411}
 Group   5 Type O   : 7s4p1d contracted to 3s2p1d pattern {511/31/1}
 Group   6 Type F   : 7s4p1d contracted to 3s2p1d pattern {511/31/1}
 Group   7 Type H   : 4s1p contracted to 2s1p pattern {31/1}

Atom   0C    basis set group =>   1
Atom   1C    basis set group =>   1
Atom   2C    basis set group =>   1
Atom   3N    basis set group =>   2
Atom   4C    basis set group =>   1
Atom   5N    basis set group =>   2
Atom   6C    basis set group =>   1
Atom   7C    basis set group =>   1
Atom   8C    basis set group =>   1
Atom   9C    basis set group =>   1
Atom  10C    basis set group =>   1
Atom  11C    basis set group =>   1
Atom  12S    basis set group =>   3
Atom  13C    basis set group =>   1
Atom  14C    basis set group =>   1
Atom  15Br   basis set group =>   4
Atom  16C    basis set group =>   1
Atom  17O    basis set group =>   5
Atom  18C    basis set group =>   1
Atom  19C    basis set group =>   1
Atom  20C    basis set group =>   1
Atom  21C    basis set group =>   1
Atom  22C    basis set group =>   1
Atom  23C    basis set group =>   1
Atom  24S    basis set group =>   3
Atom  25C    basis set group =>   1
Atom  26C    basis set group =>   1
Atom  27C    basis set group =>   1
Atom  28C    basis set group =>   1
Atom  29C    basis set group =>   1
Atom  30N    basis set group =>   2
Atom  31C    basis set group =>   1
Atom  32N    basis set group =>   2
Atom  33C    basis set group =>   1
Atom  34C    basis set group =>   1
Atom  35S    basis set group =>   3
Atom  36C    basis set group =>   1
Atom  37C    basis set group =>   1
Atom  38F    basis set group =>   6
Atom  39C    basis set group =>   1
Atom  40F    basis set group =>   6
Atom  41C    basis set group =>   1
Atom  42C    basis set group =>   1
Atom  43C    basis set group =>   1
Atom  44N    basis set group =>   2
Atom  45S    basis set group =>   3
Atom  46N    basis set group =>   2
Atom  47C    basis set group =>   1
Atom  48C    basis set group =>   1
Atom  49C    basis set group =>   1
Atom  50C    basis set group =>   1
Atom  51C    basis set group =>   1
Atom  52S    basis set group =>   3
Atom  53C    basis set group =>   1
Atom  54C    basis set group =>   1
Atom  55C    basis set group =>   1
Atom  56C    basis set group =>   1
Atom  57S    basis set group =>   3
Atom  58C    basis set group =>   1
Atom  59C    basis set group =>   1
Atom  60C    basis set group =>   1
Atom  61C    basis set group =>   1
Atom  62C    basis set group =>   1
Atom  63C    basis set group =>   1
Atom  64C    basis set group =>   1
Atom  65C    basis set group =>   1
Atom  66C    basis set group =>   1
Atom  67S    basis set group =>   3
Atom  68C    basis set group =>   1
Atom  69N    basis set group =>   2
Atom  70F    basis set group =>   6
Atom  71F    basis set group =>   6
Atom  72H    basis set group =>   7
Atom  73H    basis set group =>   7
Atom  74H    basis set group =>   7
Atom  75H    basis set group =>   7
Atom  76H    basis set group =>   7
Atom  77H    basis set group =>   7
Atom  78H    basis set group =>   7
Atom  79H    basis set group =>   7
Atom  80H    basis set group =>   7
Atom  81H    basis set group =>   7
Atom  82H    basis set group =>   7
Atom  83H    basis set group =>   7
---------------------------------
AUXILIARY/J BASIS SET INFORMATION
---------------------------------
There are 7 groups of distinct atoms

 Group   1 Type C   : 12s5p4d2f1g contracted to 6s4p3d1f1g pattern {711111/2111/211/2/1}
 Group   2 Type N   : 12s5p4d2f1g contracted to 6s4p3d1f1g pattern {711111/2111/211/2/1}
 Group   3 Type S   : 14s5p5d2f1g contracted to 8s4p3d1f1g pattern {71111111/2111/311/2/1}
 Group   4 Type Br  : 19s5p5d3f1g contracted to 8s4p3d2f1g pattern {121111111/2111/311/21/1}
 Group   5 Type O   : 12s5p4d2f1g contracted to 6s4p3d1f1g pattern {711111/2111/211/2/1}
 Group   6 Type F   : 12s5p4d2f1g contracted to 6s4p3d1f1g pattern {711111/2111/211/2/1}
 Group   7 Type H   : 5s2p1d contracted to 3s1p1d pattern {311/2/1}

Atom   0C    basis set group =>   1
Atom   1C    basis set group =>   1
Atom   2C    basis set group =>   1
Atom   3N    basis set group =>   2
Atom   4C    basis set group =>   1
Atom   5N    basis set group =>   2
Atom   6C    basis set group =>   1
Atom   7C    basis set group =>   1
Atom   8C    basis set group =>   1
Atom   9C    basis set group =>   1
Atom  10C    basis set group =>   1
Atom  11C    basis set group =>   1
Atom  12S    basis set group =>   3
Atom  13C    basis set group =>   1
Atom  14C    basis set group =>   1
Atom  15Br   basis set group =>   4
Atom  16C    basis set group =>   1
Atom  17O    basis set group =>   5
Atom  18C    basis set group =>   1
Atom  19C    basis set group =>   1
Atom  20C    basis set group =>   1
Atom  21C    basis set group =>   1
Atom  22C    basis set group =>   1
Atom  23C    basis set group =>   1
Atom  24S    basis set group =>   3
Atom  25C    basis set group =>   1
Atom  26C    basis set group =>   1
Atom  27C    basis set group =>   1
Atom  28C    basis set group =>   1
Atom  29C    basis set group =>   1
Atom  30N    basis set group =>   2
Atom  31C    basis set group =>   1
Atom  32N    basis set group =>   2
Atom  33C    basis set group =>   1
Atom  34C    basis set group =>   1
Atom  35S    basis set group =>   3
Atom  36C    basis set group =>   1
Atom  37C    basis set group =>   1
Atom  38F    basis set group =>   6
Atom  39C    basis set group =>   1
Atom  40F    basis set group =>   6
Atom  41C    basis set group =>   1
Atom  42C    basis set group =>   1
Atom  43C    basis set group =>   1
Atom  44N    basis set group =>   2
Atom  45S    basis set group =>   3
Atom  46N    basis set group =>   2
Atom  47C    basis set group =>   1
Atom  48C    basis set group =>   1
Atom  49C    basis set group =>   1
Atom  50C    basis set group =>   1
Atom  51C    basis set group =>   1
Atom  52S    basis set group =>   3
Atom  53C    basis set group =>   1
Atom  54C    basis set group =>   1
Atom  55C    basis set group =>   1
Atom  56C    basis set group =>   1
Atom  57S    basis set group =>   3
Atom  58C    basis set group =>   1
Atom  59C    basis set group =>   1
Atom  60C    basis set group =>   1
Atom  61C    basis set group =>   1
Atom  62C    basis set group =>   1
Atom  63C    basis set group =>   1
Atom  64C    basis set group =>   1
Atom  65C    basis set group =>   1
Atom  66C    basis set group =>   1
Atom  67S    basis set group =>   3
Atom  68C    basis set group =>   1
Atom  69N    basis set group =>   2
Atom  70F    basis set group =>   6
Atom  71F    basis set group =>   6
Atom  72H    basis set group =>   7
Atom  73H    basis set group =>   7
Atom  74H    basis set group =>   7
Atom  75H    basis set group =>   7
Atom  76H    basis set group =>   7
Atom  77H    basis set group =>   7
Atom  78H    basis set group =>   7
Atom  79H    basis set group =>   7
Atom  80H    basis set group =>   7
Atom  81H    basis set group =>   7
Atom  82H    basis set group =>   7
Atom  83H    basis set group =>   7


           ************************************************************
           *        Program running with 6 parallel MPI-processes     *
           *              working on a common directory               *
           ************************************************************
------------------------------------------------------------------------------
                           ORCA GTO INTEGRAL CALCULATION
                           -- RI-GTO INTEGRALS CHOSEN --
------------------------------------------------------------------------------

                         BASIS SET STATISTICS AND STARTUP INFO

Gaussian basis set:
 # of primitive gaussian shells          ...  984
 # of primitive gaussian functions       ... 1946
 # of contracted shells                  ...  488
 # of contracted basis functions         ... 1114
 Highest angular momentum                ...    2
 Maximum contraction depth               ...    6
Auxiliary gaussian basis set:
 # of primitive gaussian shells          ... 1854
 # of primitive gaussian functions       ... 5300
 # of contracted shells                  ... 1157
 # of contracted aux-basis functions     ... 3683
 Highest angular momentum                ...    4
 Maximum contraction depth               ...   12
Ratio of auxiliary to basis functions    ...  3.31
Integral package used                  ... LIBINT
 One Electron integrals                  ... done
 Ordering auxiliary basis shells         ... done
 Integral threshhold             Thresh  ...  2.500e-11
 Primitive cut-off               TCut    ...  2.500e-12
 Pre-screening matrix                    ... done
 Shell pair data                         ... 
 Ordering of the shell pairs             ... done (   0.007 sec) 34566 of 119316 pairs
 Determination of significant pairs      ... done (   0.000 sec)
 Creation of shell pair data             ... done (   0.006 sec)
 Storage of shell pair data              ... done (   0.047 sec)
 Shell pair data done in (   0.060 sec)
 Computing two index integrals           ... done
 Cholesky decomposition of the V-matrix  ... done


Timings:
 Total evaluation time                   ...   2.348 sec (  0.039 min)
 One electron matrix time                ...   0.433 sec (  0.007 min) = 18.5%
 Schwartz matrix evaluation time         ...   0.720 sec (  0.012 min) = 30.7%
 Two index repulsion integral time       ...   0.374 sec (  0.006 min) = 15.9%
 Cholesky decomposition of V             ...   0.743 sec (  0.012 min) = 31.7%
 Three index repulsion integral time     ...   0.000 sec (  0.000 min) =  0.0%



           ************************************************************
           *        Program running with 6 parallel MPI-processes     *
           *              working on a common directory               *
           ************************************************************
-------------------------------------------------------------------------------
                                 ORCA SCF
-------------------------------------------------------------------------------

------------
SCF SETTINGS
------------
Hamiltonian:
 Density Functional     Method          .... DFT(GTOs)
 Exchange Functional    Exchange        .... WB88
 Correlation Functional Correlation     .... LYP
 LDA part of GGA corr.  LDAOpt          .... VWN-5
 Gradients option       PostSCFGGA      .... off
 Hybrid DFT is turned on
   Fraction HF Exchange ScalHFX         ....  0.190000
   Scaling of DF-GGA-X  ScalDFX         ....  0.350000
   Scaling of DF-GGA-C  ScalDFC         ....  0.810000
   Scaling of DF-LDA-C  ScalLDAC        ....  1.000000
   Perturbative correction              ....  0.000000
   Density functional embedding theory  .... OFF
 Long-range corrected/Screened/Range-Separated Hybrid DFT is turned on
   Amount of maximum screened exact exchange              ....  0.460000
   Range separation parameter mu (erf(mu*r12)/r12)        ....  0.330000
 RI-approximation to the Coulomb term is turned on
   Number of auxiliary basis functions  .... 3683
   RIJ-COSX (HFX calculated with COS-X)).... on


General Settings:
 Integral files         IntName         .... xtbopt
 Hartree-Fock type      HFTyp           .... RHF
 Total Charge           Charge          ....    0
 Multiplicity           Mult            ....    1
 Number of Electrons    NEL             ....  564
 Basis Dimension        Dim             .... 1114
 Nuclear Repulsion      ENuc            ....  11281.0538612573 Eh

Convergence Acceleration:
 DIIS                   CNVDIIS         .... on
   Start iteration      DIISMaxIt       ....    12
   Startup error        DIISStart       ....  0.200000
   # of expansion vecs  DIISMaxEq       ....     5
   Bias factor          DIISBfac        ....   1.050
   Max. coefficient     DIISMaxC        ....  10.000
 Newton-Raphson         CNVNR           .... off
 SOSCF                  CNVSOSCF        .... on
   Start iteration      SOSCFMaxIt      ....   150
   Startup grad/error   SOSCFStart      ....  0.003300
 Level Shifting         CNVShift        .... on
   Level shift para.    LevelShift      ....    0.2500
   Turn off err/grad.   ShiftErr        ....    0.0010
 Zerner damping         CNVZerner       .... off
 Static damping         CNVDamp         .... on
   Fraction old density DampFac         ....    0.7000
   Max. Damping (<1)    DampMax         ....    0.9800
   Min. Damping (>=0)   DampMin         ....    0.0000
   Turn off err/grad.   DampErr         ....    0.1000
 Fernandez-Rico         CNVRico         .... off

SCF Procedure:
 Maximum # iterations   MaxIter         ....   125
 SCF integral mode      SCFMode         .... Direct
   Integral package                     .... LIBINT
 Reset frequency        DirectResetFreq ....    20
 Integral Threshold     Thresh          ....  2.500e-11 Eh
 Primitive CutOff       TCut            ....  2.500e-12 Eh

Convergence Tolerance:
 Convergence Check Mode ConvCheckMode   .... Total+1el-Energy
 Convergence forced     ConvForced      .... 1
 Energy Change          TolE            ....  1.000e-08 Eh
 1-El. energy change                    ....  1.000e-05 Eh
 Orbital Gradient       TolG            ....  1.000e-05
 Orbital Rotation angle TolX            ....  1.000e-05
 DIIS Error             TolErr          ....  5.000e-07


Diagonalization of the overlap matrix:
Smallest eigenvalue                        ... 1.333e-04
Time for diagonalization                   ...    0.255 sec
Threshold for overlap eigenvalues          ... 1.000e-08
Number of eigenvalues below threshold      ... 0
Time for construction of square roots      ...    0.152 sec
Total time needed                          ...    0.413 sec

-------------------
DFT GRID GENERATION
-------------------

General Integration Accuracy     IntAcc      ...  4.670
Radial Grid Type                 RadialGrid  ... Gauss-Chebyshev
Angular Grid (max. acc.)         AngularGrid ... Lebedev-302
Angular grid pruning method      GridPruning ... 3 (G Style)
Weight generation scheme         WeightScheme... Becke
Basis function cutoff            BFCut       ...    1.0000e-11
Integration weight cutoff        WCut        ...    1.0000e-14
Grids for H and He will be reduced by one unit

# of grid points (after initial pruning)     ... 496074 (   0.0 sec)
# of grid points (after weights+screening)   ... 433552 (   4.3 sec)
nearest neighbour list constructed           ...    0.0 sec
Grid point re-assignment to atoms done       ...    0.1 sec
Grid point division into batches done        ...    1.7 sec
Reduced shell lists constructed in    2.5 sec

Total number of grid points                  ...   433552
Total number of batches                      ...     6816
Average number of points per batch           ...       63
Average number of grid points per atom       ...     5161
Average number of shells per batch           ...    76.78 (15.73%)
Average number of basis functions per batch  ...   168.11 (15.09%)
Average number of large shells per batch     ...    50.35 (65.57%)
Average number of large basis fcns per batch ...   111.11 (66.09%)
Maximum spatial batch extension              ...  18.12, 15.69, 20.01 au
Average spatial batch extension              ...   0.37,  0.33,  0.39 au

Time for grid setup =    7.253 sec

------------------------------
INITIAL GUESS: MODEL POTENTIAL
------------------------------
Loading Hartree-Fock densities                     ... done
Calculating cut-offs                               ... done
Setting up the integral package                    ... done
Initializing the effective Hamiltonian             ... done
Starting the Coulomb interaction                   ... done (   1.0 sec)
Reading the grid                                   ... done
Mapping shells                                     ... done
Starting the XC term evaluation                    ... done (   1.3 sec)
  promolecular density results
     # of electrons  =    563.994567753
     EX              =   -627.188911525
     EC              =    -20.359415716
     EX+EC           =   -647.548327241
Transforming the Hamiltonian                       ... done (   0.1 sec)
Diagonalizing the Hamiltonian                      ... done (   0.2 sec)
Back transforming the eigenvectors                 ... done (   0.1 sec)
Now organizing SCF variables                       ... done
                      ------------------
                      INITIAL GUESS DONE (  10.0 sec)
                      ------------------
--------------------
COSX GRID GENERATION
--------------------

General Integration Accuracy     IntAcc      ...  3.340
Radial Grid Type                 RadialGrid  ... Gauss-Chebyshev
Angular Grid (max. acc.)         AngularGrid ... Lebedev-50
Angular grid pruning method      GridPruning ... 3 (G Style)
Weight generation scheme         WeightScheme... Becke
Basis function cutoff            BFCut       ...    1.0000e-11
Integration weight cutoff        WCut        ...    1.0000e-14
Grids for H and He will be reduced by one unit

# of grid points (after initial pruning)     ...  46846 (   0.0 sec)
# of grid points (after weights+screening)   ...  42684 (   0.4 sec)
nearest neighbour list constructed           ...    0.0 sec
Grid point re-assignment to atoms done       ...    0.0 sec
Grid point division into batches done        ...    0.0 sec
Reduced shell lists constructed in    0.1 sec

Total number of grid points                  ...    42684
Total number of batches                      ...      707
Average number of points per batch           ...       60
Average number of grid points per atom       ...      508
Average number of shells per batch           ...    92.34 (18.92%)
Average number of basis functions per batch  ...   204.31 (18.34%)
Average number of large shells per batch     ...    60.72 (65.76%)
Average number of large basis fcns per batch ...   135.71 (66.43%)
Maximum spatial batch extension              ...  16.79, 17.53, 19.76 au
Average spatial batch extension              ...   0.83,  0.60,  0.99 au

Overlap Fitting                  UseSFitting ... on
Constructing numerical overlap ... done (      0.1 sec)
Inverting numerical overlap    ... done (      0.1 sec)
Obtaining analytic overlap     ... done (      0.0 sec)
Final contraction and storage  ... done (      0.1 sec)


General Integration Accuracy     IntAcc      ...  3.670
Radial Grid Type                 RadialGrid  ... Gauss-Chebyshev
Angular Grid (max. acc.)         AngularGrid ... Lebedev-50
Angular grid pruning method      GridPruning ... 3 (G Style)
Weight generation scheme         WeightScheme... Becke
Basis function cutoff            BFCut       ...    1.0000e-11
Integration weight cutoff        WCut        ...    1.0000e-14
Grids for H and He will be reduced by one unit

# of grid points (after initial pruning)     ...  57736 (   0.0 sec)
# of grid points (after weights+screening)   ...  52392 (   0.5 sec)
nearest neighbour list constructed           ...    0.0 sec
Grid point re-assignment to atoms done       ...    0.0 sec
Grid point division into batches done        ...    0.0 sec
Reduced shell lists constructed in    0.1 sec

Total number of grid points                  ...    52392
Total number of batches                      ...      868
Average number of points per batch           ...       60
Average number of grid points per atom       ...      624
Average number of shells per batch           ...    91.18 (18.68%)
Average number of basis functions per batch  ...   201.37 (18.08%)
Average number of large shells per batch     ...    59.64 (65.41%)
Average number of large basis fcns per batch ...   133.21 (66.15%)
Maximum spatial batch extension              ...  18.20, 18.05, 25.15 au
Average spatial batch extension              ...   0.75,  0.58,  0.88 au

Overlap Fitting                  UseSFitting ... on
Constructing numerical overlap ... done (      0.1 sec)
Inverting numerical overlap    ... done (      0.1 sec)
Obtaining analytic overlap     ... done (      0.0 sec)
Final contraction and storage  ... done (      0.1 sec)


General Integration Accuracy     IntAcc      ...  4.010
Radial Grid Type                 RadialGrid  ... Gauss-Chebyshev
Angular Grid (max. acc.)         AngularGrid ... Lebedev-110
Angular grid pruning method      GridPruning ... 3 (G Style)
Weight generation scheme         WeightScheme... Becke
Basis function cutoff            BFCut       ...    1.0000e-11
Integration weight cutoff        WCut        ...    1.0000e-14
Grids for H and He will be reduced by one unit

# of grid points (after initial pruning)     ... 115840 (   0.0 sec)
# of grid points (after weights+screening)   ... 104032 (   1.0 sec)
nearest neighbour list constructed           ...    0.0 sec
Grid point re-assignment to atoms done       ...    0.0 sec
Grid point division into batches done        ...    0.1 sec
Reduced shell lists constructed in    0.3 sec

Total number of grid points                  ...   104032
Total number of batches                      ...     1675
Average number of points per batch           ...       62
Average number of grid points per atom       ...     1238
Average number of shells per batch           ...    86.05 (17.63%)
Average number of basis functions per batch  ...   189.91 (17.05%)
Average number of large shells per batch     ...    56.74 (65.94%)
Average number of large basis fcns per batch ...   126.35 (66.53%)
Maximum spatial batch extension              ...  19.87, 16.53, 19.96 au
Average spatial batch extension              ...   0.61,  0.49,  0.70 au

Overlap Fitting                  UseSFitting ... on
Constructing numerical overlap ... done (      0.1 sec)
Inverting numerical overlap    ... done (      0.0 sec)
Obtaining analytic overlap     ... done (      0.0 sec)
Final contraction and storage  ... done (      0.1 sec)

Time for X-Grid setup             =    3.473 sec
--------------
SCF ITERATIONS
--------------
ITER       Energy         Delta-E        Max-DP      RMS-DP      [F,P]     Damp
               ***  Starting incremental Fock matrix formation  ***
  0  -8201.8958646362   0.000000000000 0.08120055  0.00101372  0.2184210 0.7000
  1  -8202.5359394027  -0.640074766512 0.04685665  0.00070926  0.0983348 0.7000
                               ***Turning on DIIS***
  2  -8202.8003949447  -0.264455541988 0.08331049  0.00128867  0.0372801 0.0000
  3  -8203.2086616775  -0.408266732806 0.06431888  0.00056678  0.0558370 0.0000
  4  -8203.3085796831  -0.099918005597 0.01685255  0.00019405  0.0160194 0.0000
  5  -8203.3157155155  -0.007135832453 0.00806439  0.00007852  0.0093977 0.0000
                      *** Initiating the SOSCF procedure ***
                           *** Shutting down DIIS ***
                      *** Re-Reading the Fockian *** 
                      *** Removing any level shift *** 
ITER      Energy       Delta-E        Grad      Rot      Max-DP    RMS-DP
  6  -8203.31720285  -0.0014873321  0.002489  0.002489  0.003268  0.000041
               *** Restarting incremental Fock matrix formation ***
  7  -8203.31768667  -0.0004838242  0.001682  0.009449  0.001988  0.000041
  8  -8203.31799601  -0.0003093398  0.000685  0.010781  0.002123  0.000049
  9  -8203.31800219  -0.0000061827  0.001276  0.003516  0.001598  0.000020
 10  -8203.31809267  -0.0000904710  0.000212  0.000755  0.000875  0.000008
 11  -8203.31809205   0.0000006135  0.000165  0.000521  0.000360  0.000004
 12  -8203.31809700  -0.0000049437  0.000043  0.000178  0.000290  0.000002
 13  -8203.31809691   0.0000000865  0.000053  0.000105  0.000118  0.000001
 14  -8203.31809724  -0.0000003343  0.000009  0.000038  0.000059  0.000000
 15  -8203.31809725  -0.0000000088  0.000009  0.000013  0.000028  0.000000
                  ***Gradient check signals convergence***
              ***Rediagonalizing the Fockian in SOSCF/NRSCF***

               *****************************************************
               *                     SUCCESS                       *
               *           SCF CONVERGED AFTER  16 CYCLES          *
               *****************************************************

Setting up the final grid:

General Integration Accuracy     IntAcc      ...  5.010
Radial Grid Type                 RadialGrid  ... Gauss-Chebyshev
Angular Grid (max. acc.)         AngularGrid ... Lebedev-434
Angular grid pruning method      GridPruning ... 3 (G Style)
Weight generation scheme         WeightScheme... Becke
Basis function cutoff            BFCut       ...    1.0000e-11
Integration weight cutoff        WCut        ...    1.0000e-14
Grids for H and He will be reduced by one unit

# of grid points (after initial pruning)     ... 862998 (   0.1 sec)
# of grid points (after weights+screening)   ... 751713 (  14.0 sec)
nearest neighbour list constructed           ...    0.0 sec
Grid point re-assignment to atoms done       ...    0.1 sec
Grid point division into batches done        ...    5.3 sec
Reduced shell lists constructed in    6.6 sec

Total number of grid points                  ...   751713
Total number of batches                      ...    11788
Average number of points per batch           ...       63
Average number of grid points per atom       ...     8949
Average number of shells per batch           ...    74.39 (15.24%)
Average number of basis functions per batch  ...   162.60 (14.60%)
Average number of large shells per batch     ...    48.85 (65.66%)
Average number of large basis fcns per batch ...   107.62 (66.19%)
Maximum spatial batch extension              ...  18.53, 18.06, 21.93 au
Average spatial batch extension              ...   0.30,  0.28,  0.32 au

Final grid set up in   30.5 sec
Final integration                            ... done (   6.4 sec)
Change in XC energy                          ...    -0.000127277
Integrated number of electrons               ...   563.999824378
Previous integrated no of electrons          ...   564.000219077
Old exchange energy                            =   -164.850391697 Eh
New exchange energy                            =   -164.848095588 Eh
Exchange energy change after final integration =      0.002296109 Eh
Total energy after final integration           =  -8203.315928414 Eh
Final COS-X integration done in                =   109.272 sec

----------------
TOTAL SCF ENERGY
----------------

Total Energy       :        -8203.31592841 Eh         -223223.57488 eV

Components:
Nuclear Repulsion  :        11281.05386126 Eh          306973.08177 eV
Electronic Energy  :       -19484.36978967 Eh         -530196.65665 eV
One Electron Energy:       -33778.01965058 Eh         -919146.64320 eV
Two Electron Energy:        14293.64986091 Eh          388949.98655 eV

Virial components:
Potential Energy   :       -16372.42020703 Eh         -445516.20344 eV
Kinetic Energy     :         8169.10427861 Eh          222292.62856 eV
Virial Ratio       :            2.00418793


DFT components:
N(Alpha)           :      281.999912188976 electrons
N(Beta)            :      281.999912188976 electrons
N(Total)           :      563.999824377953 electrons
E(XC)              :     -490.424922210230 Eh       
DFET-embed. en.    :        0.000000000000 Eh       

---------------
SCF CONVERGENCE
---------------

  Last Energy change         ...    5.9990e-09  Tolerance :   1.0000e-08
  Last MAX-Density change    ...    7.5495e-15  Tolerance :   1.0000e-07
  Last RMS-Density change    ...    4.0661e-17  Tolerance :   5.0000e-09
  Last Orbital Gradient      ...    1.7987e-06  Tolerance :   1.0000e-05
  Last Orbital Rotation      ...    9.9824e-06  Tolerance :   1.0000e-05

             **** THE GBW FILE WAS UPDATED (xtbopt.gbw) ****
             **** DENSITY FILE WAS UPDATED (xtbopt.scfp) ****
             **** ENERGY FILE WAS UPDATED (xtbopt.en.tmp) ****
             **** THE GBW FILE WAS UPDATED (xtbopt.gbw) ****
             **** DENSITY FILE WAS UPDATED (xtbopt.scfp) ****
----------------
ORBITAL ENERGIES
----------------

  NO   OCC          E(Eh)            E(eV) 
   0   2.0000    -482.889629    -13140.0948 
   1   2.0000     -89.052494     -2423.2416 
   2   2.0000     -88.994689     -2421.6686 
   3   2.0000     -88.993208     -2421.6283 
   4   2.0000     -88.987163     -2421.4638 
   5   2.0000     -88.984597     -2421.3940 
   6   2.0000     -88.980119     -2421.2721 
   7   2.0000     -88.963719     -2420.8259 
   8   2.0000     -62.567316     -1702.5432 
   9   2.0000     -56.401270     -1534.7566 
  10   2.0000     -56.398548     -1534.6825 
  11   2.0000     -56.398516     -1534.6817 
  12   2.0000     -24.821445      -675.4259 
  13   2.0000     -24.819666      -675.3774 
  14   2.0000     -24.808402      -675.0709 
  15   2.0000     -24.801585      -674.8854 
  16   2.0000     -19.229720      -523.2673 
  17   2.0000     -14.467588      -393.6831 
  18   2.0000     -14.466881      -393.6639 
  19   2.0000     -14.431812      -392.7096 
  20   2.0000     -14.431244      -392.6941 
  21   2.0000     -14.419778      -392.3821 
  22   2.0000     -14.417809      -392.3285 
  23   2.0000     -14.409478      -392.1018 
  24   2.0000     -10.404457      -283.1197 
  25   2.0000     -10.403398      -283.0908 
  26   2.0000     -10.390524      -282.7405 
  27   2.0000     -10.379296      -282.4350 
  28   2.0000     -10.377376      -282.3828 
  29   2.0000     -10.367294      -282.1084 
  30   2.0000     -10.363392      -282.0022 
  31   2.0000     -10.357564      -281.8436 
  32   2.0000     -10.357283      -281.8360 
  33   2.0000     -10.355574      -281.7895 
  34   2.0000     -10.346480      -281.5420 
  35   2.0000     -10.345899      -281.5262 
  36   2.0000     -10.341980      -281.4196 
  37   2.0000     -10.339781      -281.3598 
  38   2.0000     -10.339509      -281.3524 
  39   2.0000     -10.339364      -281.3484 
  40   2.0000     -10.337197      -281.2894 
  41   2.0000     -10.337098      -281.2867 
  42   2.0000     -10.336438      -281.2688 
  43   2.0000     -10.335520      -281.2438 
  44   2.0000     -10.333753      -281.1957 
  45   2.0000     -10.331810      -281.1429 
  46   2.0000     -10.331282      -281.1285 
  47   2.0000     -10.331029      -281.1216 
  48   2.0000     -10.330433      -281.1054 
  49   2.0000     -10.330375      -281.1038 
  50   2.0000     -10.322139      -280.8797 
  51   2.0000     -10.320729      -280.8413 
  52   2.0000     -10.316218      -280.7186 
  53   2.0000     -10.313388      -280.6416 
  54   2.0000     -10.313245      -280.6377 
  55   2.0000     -10.312548      -280.6187 
  56   2.0000     -10.311042      -280.5777 
  57   2.0000     -10.310246      -280.5561 
  58   2.0000     -10.309164      -280.5266 
  59   2.0000     -10.308859      -280.5183 
  60   2.0000     -10.308699      -280.5140 
  61   2.0000     -10.307215      -280.4736 
  62   2.0000     -10.304846      -280.4091 
  63   2.0000     -10.303695      -280.3778 
  64   2.0000     -10.303083      -280.3612 
  65   2.0000     -10.301197      -280.3098 
  66   2.0000     -10.298251      -280.2297 
  67   2.0000     -10.296157      -280.1727 
  68   2.0000     -10.295188      -280.1463 
  69   2.0000     -10.294333      -280.1230 
  70   2.0000     -10.290687      -280.0238 
  71   2.0000     -10.289506      -279.9917 
  72   2.0000     -10.284590      -279.8579 
  73   2.0000     -10.282949      -279.8133 
  74   2.0000     -10.282902      -279.8120 
  75   2.0000     -10.282132      -279.7910 
  76   2.0000      -8.796738      -239.3714 
  77   2.0000      -8.143881      -221.6063 
  78   2.0000      -8.088238      -220.0921 
  79   2.0000      -8.085588      -220.0200 
  80   2.0000      -8.082268      -219.9297 
  81   2.0000      -8.079393      -219.8515 
  82   2.0000      -8.076103      -219.7619 
  83   2.0000      -8.059171      -219.3012 
  84   2.0000      -6.633033      -180.4940 
  85   2.0000      -6.618476      -180.0979 
  86   2.0000      -6.618267      -180.0922 
  87   2.0000      -6.115152      -166.4017 
  88   2.0000      -6.107468      -166.1927 
  89   2.0000      -6.106135      -166.1564 
  90   2.0000      -6.057574      -164.8350 
  91   2.0000      -6.054976      -164.7643 
  92   2.0000      -6.053062      -164.7122 
  93   2.0000      -6.051837      -164.6789 
  94   2.0000      -6.050713      -164.6483 
  95   2.0000      -6.050247      -164.6356 
  96   2.0000      -6.048895      -164.5988 
  97   2.0000      -6.048167      -164.5790 
  98   2.0000      -6.047801      -164.5690 
  99   2.0000      -6.045791      -164.5143 
 100   2.0000      -6.044201      -164.4711 
 101   2.0000      -6.043592      -164.4545 
 102   2.0000      -6.041499      -164.3976 
 103   2.0000      -6.041479      -164.3970 
 104   2.0000      -6.037345      -164.2845 
 105   2.0000      -6.028617      -164.0470 
 106   2.0000      -6.024333      -163.9304 
 107   2.0000      -6.021230      -163.8460 
 108   2.0000      -2.748940       -74.8025 
 109   2.0000      -2.744794       -74.6896 
 110   2.0000      -2.744659       -74.6860 
 111   2.0000      -2.733082       -74.3709 
 112   2.0000      -2.733066       -74.3705 
 113   2.0000      -1.344603       -36.5885 
 114   2.0000      -1.326187       -36.0874 
 115   2.0000      -1.325785       -36.0765 
 116   2.0000      -1.311958       -35.7002 
 117   2.0000      -1.155213       -31.4350 
 118   2.0000      -1.145111       -31.1601 
 119   2.0000      -1.049671       -28.5630 
 120   2.0000      -1.027893       -27.9704 
 121   2.0000      -1.024438       -27.8764 
 122   2.0000      -1.019621       -27.7453 
 123   2.0000      -1.018795       -27.7228 
 124   2.0000      -1.017579       -27.6897 
 125   2.0000      -1.015106       -27.6224 
 126   2.0000      -1.009042       -27.4574 
 127   2.0000      -1.007179       -27.4067 
 128   2.0000      -0.997622       -27.1467 
 129   2.0000      -0.996589       -27.1186 
 130   2.0000      -0.993413       -27.0321 
 131   2.0000      -0.987871       -26.8813 
 132   2.0000      -0.975838       -26.5539 
 133   2.0000      -0.962581       -26.1932 
 134   2.0000      -0.947333       -25.7782 
 135   2.0000      -0.938335       -25.5334 
 136   2.0000      -0.926424       -25.2093 
 137   2.0000      -0.916154       -24.9298 
 138   2.0000      -0.913364       -24.8539 
 139   2.0000      -0.906060       -24.6551 
 140   2.0000      -0.898036       -24.4368 
 141   2.0000      -0.890808       -24.2401 
 142   2.0000      -0.889057       -24.1925 
 143   2.0000      -0.885626       -24.0991 
 144   2.0000      -0.879595       -23.9350 
 145   2.0000      -0.875708       -23.8292 
 146   2.0000      -0.861324       -23.4378 
 147   2.0000      -0.858236       -23.3538 
 148   2.0000      -0.856149       -23.2970 
 149   2.0000      -0.851088       -23.1593 
 150   2.0000      -0.834467       -22.7070 
 151   2.0000      -0.828108       -22.5340 
 152   2.0000      -0.823791       -22.4165 
 153   2.0000      -0.807361       -21.9694 
 154   2.0000      -0.797157       -21.6917 
 155   2.0000      -0.784349       -21.3432 
 156   2.0000      -0.781774       -21.2731 
 157   2.0000      -0.768413       -20.9096 
 158   2.0000      -0.763050       -20.7636 
 159   2.0000      -0.755113       -20.5477 
 160   2.0000      -0.745763       -20.2932 
 161   2.0000      -0.740877       -20.1603 
 162   2.0000      -0.730776       -19.8854 
 163   2.0000      -0.722462       -19.6592 
 164   2.0000      -0.709139       -19.2967 
 165   2.0000      -0.702963       -19.1286 
 166   2.0000      -0.699411       -19.0319 
 167   2.0000      -0.697218       -18.9723 
 168   2.0000      -0.690977       -18.8024 
 169   2.0000      -0.689604       -18.7651 
 170   2.0000      -0.679198       -18.4819 
 171   2.0000      -0.674974       -18.3670 
 172   2.0000      -0.670162       -18.2360 
 173   2.0000      -0.668421       -18.1887 
 174   2.0000      -0.662534       -18.0285 
 175   2.0000      -0.657375       -17.8881 
 176   2.0000      -0.656297       -17.8587 
 177   2.0000      -0.651273       -17.7220 
 178   2.0000      -0.642584       -17.4856 
 179   2.0000      -0.635041       -17.2804 
 180   2.0000      -0.629854       -17.1392 
 181   2.0000      -0.626574       -17.0499 
 182   2.0000      -0.624995       -17.0070 
 183   2.0000      -0.621546       -16.9131 
 184   2.0000      -0.613891       -16.7048 
 185   2.0000      -0.611494       -16.6396 
 186   2.0000      -0.608336       -16.5537 
 187   2.0000      -0.603323       -16.4172 
 188   2.0000      -0.600770       -16.3478 
 189   2.0000      -0.591771       -16.1029 
 190   2.0000      -0.589851       -16.0507 
 191   2.0000      -0.583788       -15.8857 
 192   2.0000      -0.579258       -15.7624 
 193   2.0000      -0.575870       -15.6702 
 194   2.0000      -0.574198       -15.6247 
 195   2.0000      -0.570302       -15.5187 
 196   2.0000      -0.568858       -15.4794 
 197   2.0000      -0.564590       -15.3633 
 198   2.0000      -0.560202       -15.2439 
 199   2.0000      -0.558889       -15.2081 
 200   2.0000      -0.553044       -15.0491 
 201   2.0000      -0.552907       -15.0454 
 202   2.0000      -0.548989       -14.9387 
 203   2.0000      -0.547269       -14.8919 
 204   2.0000      -0.546618       -14.8742 
 205   2.0000      -0.539684       -14.6855 
 206   2.0000      -0.533065       -14.5054 
 207   2.0000      -0.527809       -14.3624 
 208   2.0000      -0.524729       -14.2786 
 209   2.0000      -0.524138       -14.2625 
 210   2.0000      -0.521685       -14.1958 
 211   2.0000      -0.518628       -14.1126 
 212   2.0000      -0.514892       -14.0109 
 213   2.0000      -0.513398       -13.9703 
 214   2.0000      -0.512417       -13.9436 
 215   2.0000      -0.508470       -13.8362 
 216   2.0000      -0.507828       -13.8187 
 217   2.0000      -0.502444       -13.6722 
 218   2.0000      -0.501683       -13.6515 
 219   2.0000      -0.499439       -13.5904 
 220   2.0000      -0.498669       -13.5695 
 221   2.0000      -0.496482       -13.5100 
 222   2.0000      -0.492220       -13.3940 
 223   2.0000      -0.491319       -13.3695 
 224   2.0000      -0.490621       -13.3505 
 225   2.0000      -0.490229       -13.3398 
 226   2.0000      -0.480353       -13.0711 
 227   2.0000      -0.478147       -13.0110 
 228   2.0000      -0.475551       -12.9404 
 229   2.0000      -0.464674       -12.6444 
 230   2.0000      -0.464349       -12.6356 
 231   2.0000      -0.461919       -12.5695 
 232   2.0000      -0.460925       -12.5424 
 233   2.0000      -0.459876       -12.5139 
 234   2.0000      -0.457487       -12.4489 
 235   2.0000      -0.456131       -12.4120 
 236   2.0000      -0.454703       -12.3731 
 237   2.0000      -0.453031       -12.3276 
 238   2.0000      -0.452858       -12.3229 
 239   2.0000      -0.451746       -12.2926 
 240   2.0000      -0.448258       -12.1977 
 241   2.0000      -0.446698       -12.1553 
 242   2.0000      -0.444826       -12.1043 
 243   2.0000      -0.444061       -12.0835 
 244   2.0000      -0.441476       -12.0132 
 245   2.0000      -0.440544       -11.9878 
 246   2.0000      -0.438400       -11.9295 
 247   2.0000      -0.437873       -11.9151 
 248   2.0000      -0.432108       -11.7583 
 249   2.0000      -0.430856       -11.7242 
 250   2.0000      -0.429943       -11.6993 
 251   2.0000      -0.428994       -11.6735 
 252   2.0000      -0.426754       -11.6126 
 253   2.0000      -0.425157       -11.5691 
 254   2.0000      -0.421775       -11.4771 
 255   2.0000      -0.416272       -11.3273 
 256   2.0000      -0.413173       -11.2430 
 257   2.0000      -0.411078       -11.1860 
 258   2.0000      -0.410747       -11.1770 
 259   2.0000      -0.404760       -11.0141 
 260   2.0000      -0.398251       -10.8370 
 261   2.0000      -0.394582       -10.7371 
 262   2.0000      -0.391795       -10.6613 
 263   2.0000      -0.385345       -10.4858 
 264   2.0000      -0.378859       -10.3093 
 265   2.0000      -0.372781       -10.1439 
 266   2.0000      -0.361410        -9.8345 
 267   2.0000      -0.355791        -9.6816 
 268   2.0000      -0.354683        -9.6514 
 269   2.0000      -0.351788        -9.5726 
 270   2.0000      -0.348212        -9.4753 
 271   2.0000      -0.345583        -9.4038 
 272   2.0000      -0.337244        -9.1769 
 273   2.0000      -0.332849        -9.0573 
 274   2.0000      -0.326297        -8.8790 
 275   2.0000      -0.321842        -8.7578 
 276   2.0000      -0.317381        -8.6364 
 277   2.0000      -0.298587        -8.1250 
 278   2.0000      -0.298465        -8.1216 
 279   2.0000      -0.286185        -7.7875 
 280   2.0000      -0.267365        -7.2754 
 281   2.0000      -0.235631        -6.4118 
 282   0.0000      -0.117647        -3.2013 
 283   0.0000      -0.095506        -2.5989 
 284   0.0000      -0.089054        -2.4233 
 285   0.0000      -0.067737        -1.8432 
 286   0.0000      -0.066051        -1.7973 
 287   0.0000      -0.039522        -1.0754 
 288   0.0000      -0.029985        -0.8159 
 289   0.0000      -0.020135        -0.5479 
 290   0.0000      -0.004673        -0.1272 
 291   0.0000       0.015977         0.4348 
 292   0.0000       0.018533         0.5043 
 293   0.0000       0.029154         0.7933 
 294   0.0000       0.031376         0.8538 
 295   0.0000       0.031757         0.8641 
 296   0.0000       0.033080         0.9002 
 297   0.0000       0.036378         0.9899 
 298   0.0000       0.037779         1.0280 
 299   0.0000       0.047129         1.2824 
 300   0.0000       0.047836         1.3017 
 301   0.0000       0.051857         1.4111 
 302   0.0000       0.053724         1.4619 
 303   0.0000       0.054809         1.4914 
 304   0.0000       0.063281         1.7220 
 305   0.0000       0.072166         1.9637 
 306   0.0000       0.074771         2.0346 
 307   0.0000       0.076545         2.0829 
 308   0.0000       0.078670         2.1407 
 309   0.0000       0.081173         2.2088 
 310   0.0000       0.083052         2.2600 
 311   0.0000       0.083730         2.2784 
 312   0.0000       0.090440         2.4610 
 313   0.0000       0.093109         2.5336 
 314   0.0000       0.098006         2.6669 
 315   0.0000       0.104975         2.8565 
 316   0.0000       0.108722         2.9585 
 317   0.0000       0.109606         2.9825 
 318   0.0000       0.110954         3.0192 
 319   0.0000       0.111411         3.0316 
 320   0.0000       0.115715         3.1488 
 321   0.0000       0.116743         3.1767 
 322   0.0000       0.117648         3.2014 
 323   0.0000       0.123453         3.3593 
 324   0.0000       0.131038         3.5657 
 325   0.0000       0.133698         3.6381 
 326   0.0000       0.140843         3.8325 
 327   0.0000       0.142018         3.8645 
 328   0.0000       0.143093         3.8938 
 329   0.0000       0.146154         3.9770 
 330   0.0000       0.150397         4.0925 
 331   0.0000       0.155935         4.2432 
 332   0.0000       0.156952         4.2709 
 333   0.0000       0.161051         4.3824 
 334   0.0000       0.168820         4.5938 
 335   0.0000       0.169806         4.6207 
 336   0.0000       0.173851         4.7307 
 337   0.0000       0.182994         4.9795 
 338   0.0000       0.188683         5.1343 
 339   0.0000       0.191645         5.2149 
 340   0.0000       0.197874         5.3844 
 341   0.0000       0.199771         5.4360 
 342   0.0000       0.202476         5.5097 
 343   0.0000       0.204091         5.5536 
 344   0.0000       0.209580         5.7030 
 345   0.0000       0.216280         5.8853 
 346   0.0000       0.217634         5.9221 
 347   0.0000       0.219439         5.9712 
 348   0.0000       0.222672         6.0592 
 349   0.0000       0.223033         6.0690 
 350   0.0000       0.223724         6.0879 
 351   0.0000       0.228042         6.2053 
 352   0.0000       0.232105         6.3159 
 353   0.0000       0.233243         6.3469 
 354   0.0000       0.234743         6.3877 
 355   0.0000       0.237806         6.4710 
 356   0.0000       0.246726         6.7137 
 357   0.0000       0.247920         6.7463 
 358   0.0000       0.249650         6.7933 
 359   0.0000       0.253852         6.9077 
 360   0.0000       0.254684         6.9303 
 361   0.0000       0.261826         7.1247 
 362   0.0000       0.265539         7.2257 
 363   0.0000       0.269695         7.3388 
 364   0.0000       0.271894         7.3986 
 365   0.0000       0.274246         7.4626 
 366   0.0000       0.279188         7.5971 
 367   0.0000       0.286192         7.7877 
 368   0.0000       0.291179         7.9234 
 369   0.0000       0.293734         7.9929 
 370   0.0000       0.296441         8.0666 
 371   0.0000       0.299113         8.1393 
 372   0.0000       0.302122         8.2212 
 373   0.0000       0.304259         8.2793 
 374   0.0000       0.306506         8.3405 
 375   0.0000       0.311547         8.4776 
 376   0.0000       0.313261         8.5243 
 377   0.0000       0.317661         8.6440 
 378   0.0000       0.320220         8.7136 
 379   0.0000       0.324338         8.8257 
 380   0.0000       0.326838         8.8937 
 381   0.0000       0.328375         8.9355 
 382   0.0000       0.332598         9.0505 
 383   0.0000       0.333873         9.0851 
 384   0.0000       0.335207         9.1215 
 385   0.0000       0.339894         9.2490 
 386   0.0000       0.341153         9.2832 
 387   0.0000       0.343833         9.3562 
 388   0.0000       0.347011         9.4426 
 389   0.0000       0.352191         9.5836 
 390   0.0000       0.352721         9.5980 
 391   0.0000       0.356105         9.6901 
 392   0.0000       0.358517         9.7557 
 393   0.0000       0.363388         9.8883 
 394   0.0000       0.364574         9.9206 
 395   0.0000       0.368613        10.0305 
 396   0.0000       0.371280        10.1030 
 397   0.0000       0.376210        10.2372 
 398   0.0000       0.378188        10.2910 
 399   0.0000       0.382911        10.4195 
 400   0.0000       0.384428        10.4608 
 401   0.0000       0.385370        10.4864 
[...]
  13   3.574     346.9   0.067908   0.063711  -24.101880  -31.370645     0.40 (  82->  93)    0.14 (  87->  93)    0.12 (  85->  93)
  14   3.627     341.8   0.170259   0.161516  -440.149435  -413.685204     0.21 (  86->  93)    0.14 (  87->  93)    0.11 (  86->  95)
  15   3.666     338.2   0.385775   0.366455  -659.337636  -633.007227     0.26 (  92->  99)    0.14 (  91->  96)    0.09 (  85->  93)
  16   3.722     333.1   0.010388   0.007727  55.003326  47.642127     0.34 (  85->  93)    0.10 (  82->  93)    0.09 (  87->  93)
  17   3.750     330.6   0.037585   0.036769  -13.913514  -18.772180     0.15 (  87->  93)    0.12 (  91->  97)    0.12 (  92->  97)
  18   3.810     325.4   0.138684   0.127925  -65.727256  -58.058584     0.16 (  92->  97)    0.16 (  92->  96)    0.15 (  90->  94)
  19   3.877     319.8   0.034667   0.038395  68.263604  66.515206     0.19 (  92->  99)    0.17 (  91->  96)    0.12 (  90->  94)
  20   3.954     313.6   0.158554   0.145841  78.661109  82.669960     0.39 (  89->  95)    0.14 (  86->  93)    0.12 (  89->  94)
  21   3.977     311.7   0.258888   0.238292  -24.563029  -33.772911     0.29 (  81->  93)    0.13 (  80->  93)    0.11 (  89->  97)
  22   4.048     306.3   0.592983   0.541042  134.843573  132.465174     0.15 (  89->  97)    0.14 (  89->  96)    0.11 (  81->  93)
  23   4.100     302.4   0.309366   0.273846  112.821749  110.599671     0.21 (  87->  94)    0.08 (  90->  96)    0.06 (  89->  95)
  24   4.162     297.9   0.119823   0.106940  -277.051678  -257.742470     0.36 (  88->  94)    0.17 (  88->  93)    0.04 (  87->  94)
  25   4.174     297.0   0.001284   0.001213  -5.377959  -6.422766     0.32 (  82->  97)    0.30 (  82->  96)    0.08 (  82->  93)
  26   4.192     295.8   0.130434   0.119759  134.431273  129.706941     0.14 (  88->  94)    0.12 (  90->  96)    0.11 (  90->  97)
  27   4.223     293.6   0.052086   0.048371  20.799578  25.946151     0.18 (  87->  95)    0.16 (  90->  95)    0.14 (  85->  94)
  28   4.296     288.6   0.101599   0.084256  -6.678798   7.985980     0.27 (  80->  93)    0.11 (  92-> 101)    0.08 (  78->  93)
  29   4.330     286.4   0.140890   0.125908   8.234270   6.081173     0.24 (  85->  94)    0.09 (  86->  94)    0.08 (  80->  93)
  30   4.361     284.3   0.203804   0.172585  -449.611453  -408.195844     0.14 (  90->  95)    0.10 (  85->  95)    0.06 (  87->  95)
  31   4.427     280.1   0.037414   0.032459  282.128955  273.687790     0.13 (  88->  96)    0.13 (  88->  97)    0.09 (  90->  95)
  32   4.437     279.4   0.103964   0.094597  55.122847  45.771531     0.14 (  89->  94)    0.12 (  85->  94)    0.09 (  92-> 100)
  33   4.481     276.7   0.098457   0.084047  -68.667375  -69.540286     0.24 (  86->  95)    0.11 (  82->  95)    0.08 (  86->  94)
  34   4.514     274.7   0.027880   0.022376  14.630847  17.228749     0.42 (  82->  95)    0.14 (  82->  94)    0.10 (  85->  95)
  35   4.543     272.9   0.004489   0.004161  -14.155361  -13.347244     0.39 (  89->  94)    0.10 (  87->  94)    0.07 (  89->  95)
  36   4.560     271.9   0.065334   0.059255  95.946325  92.024578     0.21 (  78->  93)    0.13 (  81->  93)    0.09 (  91->  99)
  37   4.582     270.6   0.140578   0.118755  123.802363  116.168586     0.19 (  83->  93)    0.12 (  91->  99)    0.09 (  91->  98)
  38   4.635     267.5   0.208530   0.174386  -63.503633  -53.420833     0.13 (  74->  93)    0.09 (  78->  93)    0.08 (  74->  94)
  39   4.686     264.6   0.013334   0.011337  32.993049  31.565867     0.09 (  87->  95)    0.08 (  86->  95)    0.06 (  85->  95)
  40   4.715     263.0   0.087943   0.075000  -40.399564  -38.890488     0.16 (  83->  93)    0.15 (  91->  99)    0.09 (  78->  93)
  41   4.753     260.9   0.033696   0.021391  -12.266829  -10.562426     0.81 (  84->  93)    0.05 (  84->  94)    0.03 (  91->  98)
  42   4.760     260.5   0.104804   0.094307  -40.163036  -45.631051     0.25 (  91->  98)    0.12 (  90->  98)    0.08 (  84->  93)
  43   4.807     257.9   0.144271   0.118295  -5.551649   0.487998     0.20 (  85->  95)    0.09 (  80->  94)    0.08 (  86->  95)
  44   4.836     256.4   0.009774   0.007937  -10.731526  -9.520557     0.77 (  88->  95)    0.04 (  89->  95)    0.04 (  88->  94)
  45   4.853     255.5   0.037261   0.035182  -166.922385  -162.271995     0.11 (  92-> 103)    0.09 (  90->  97)    0.09 (  90->  96)
  46   4.864     254.9   0.012984   0.012011  105.978694  87.396496     0.19 (  92-> 103)    0.12 (  80->  94)    0.07 (  78->  94)
  47   4.903     252.9   0.049929   0.040218  29.932763  23.087840     0.17 (  91-> 100)    0.10 (  92-> 100)    0.10 (  92-> 101)
  48   4.932     251.4   0.044350   0.034372  -59.293086  -51.195097     0.17 (  80->  94)    0.11 (  91-> 100)    0.08 (  81->  94)
  49   4.998     248.1   0.103394   0.085209  -53.496066  -25.676164     0.10 (  78->  94)    0.09 (  92-> 104)    0.08 (  90->  99)

-----------------------------------------------------------------------------
         ABSORPTION SPECTRUM VIA TRANSITION ELECTRIC DIPOLE MOMENTS
-----------------------------------------------------------------------------
State   Energy  Wavelength   fosc         T2         TX        TY        TZ  
        (cm-1)    (nm)                  (au**2)     (au)      (au)      (au) 
-----------------------------------------------------------------------------
   0   13153.1    760.3   0.844879651  21.14675  -3.01191   3.41834  -0.62456
   1   15695.8    637.1   0.060224467   1.26318  -0.39621  -0.45641  -0.94757
   2   18926.2    528.4   0.528476135   9.19256   1.85914  -2.36745   0.36243
   3   20802.6    480.7   0.774815991  12.26185   1.70469  -3.03446  -0.38461
   4   21469.5    465.8   0.451410959   6.92190   0.58082   0.58702   2.49799
   5   22982.4    435.1   0.122036356   1.74811   0.25558   0.96098  -0.87138
   6   24234.8    412.6   0.244193271   3.31718   0.47665   0.11562   1.75403
   7   24926.4    401.2   0.385061190   5.08565  -0.13519  -0.01802  -2.25101
   8   25435.4    393.2   0.084580342   1.09473  -0.06632   0.94663  -0.44070
   9   26103.7    383.1   0.028335424   0.35736   0.45104  -0.23649  -0.31305
  10   26891.8    371.9   0.119143111   1.45856  -0.47867  -0.96627   0.54383
  11   28100.7    355.9   0.192060327   2.25007   0.45457   1.42710  -0.08267
  12   28527.5    350.5   0.091249432   1.05303  -0.59617  -0.49722  -0.67111
  13   28826.5    346.9   0.067908336   0.77554  -0.21491  -0.73402   0.43655
  14   29253.4    341.8   0.170258842   1.91606   0.34826   0.50463  -1.24102
  15   29572.3    338.2   0.385775395   4.29463   0.79418  -0.24595  -1.89827
  16   30017.4    333.1   0.010387917   0.11393   0.15161   0.09931  -0.28475
  17   30246.8    330.6   0.037585424   0.40909   0.52776  -0.35851   0.04505
  18   30732.7    325.4   0.138683869   1.48560  -0.45828  -0.99186   0.54017
  19   31269.8    319.8   0.034666818   0.36498   0.58315  -0.15774   0.00487
  20   31889.8    313.6   0.158553729   1.63682   0.59058   1.06399  -0.39493
  21   32080.7    311.7   0.258887643   2.65670   1.19167  -0.96438  -0.55370
  22   32649.2    306.3   0.592982906   5.97922   1.25896   1.77060  -1.12214
  23   33071.8    302.4   0.309366196   3.07958  -1.46951  -0.14607   0.94804
  24   33568.5    297.9   0.119822661   1.17512   0.20194   0.38988  -0.99113
  25   33667.8    297.0   0.001284041   0.01256   0.07419   0.01119   0.08322
  26   33810.9    295.8   0.130433859   1.27002   0.16293   1.02751  -0.43323
  27   34056.9    293.6   0.052085831   0.50349  -0.51356   0.10312   0.47865
  28   34647.9    288.6   0.101598819   0.96536   0.43990  -0.07479  -0.87536
  29   34921.8    286.4   0.140890235   1.32819  -0.93910   0.44666   0.49676
  30   35177.4    284.3   0.203804357   1.90733  -0.01826   1.03610  -0.91296
  31   35703.3    280.1   0.037414415   0.34499  -0.31403  -0.37897  -0.32057
  32   35788.0    279.4   0.103964037   0.95636   0.54034  -0.81160  -0.07550
  33   36143.6    276.7   0.098456773   0.89679  -0.72593   0.10040   0.59977
  34   36406.0    274.7   0.027879722   0.25211   0.01248  -0.46894   0.17903
  35   36643.1    272.9   0.004488921   0.04033  -0.11337   0.12841   0.10483
  36   36774.9    271.9   0.065333507   0.58487  -0.73155   0.06979   0.21174
  37   36959.7    270.6   0.140577974   1.25217   0.93211  -0.61803   0.03713
  38   37381.6    267.5   0.208530432   1.83648  -0.70794   1.13967   0.19094
  39   37798.5    264.6   0.013334411   0.11614  -0.23647  -0.23067  -0.08374
  40   38025.3    263.0   0.087943214   0.76139  -0.71642   0.35990   0.34438
  41   38332.1    260.9   0.033696052   0.28940  -0.24590   0.44795  -0.16813
  42   38389.1    260.5   0.104804269   0.89877   0.38671  -0.86157   0.08316
  43   38770.2    257.9   0.144270633   1.22506  -0.52227   0.96241   0.16140
  44   39007.6    256.4   0.009774266   0.08249  -0.21605   0.06077   0.17922
  45   39144.4    255.5   0.037260548   0.31337  -0.13402  -0.17281   0.51531
  46   39231.5    254.9   0.012983837   0.10895  -0.15817  -0.11094  -0.26763
  47   39545.9    252.9   0.049928574   0.41565   0.39447  -0.50866  -0.03608
  48   39776.1    251.4   0.044349944   0.36707   0.44874   0.16938  -0.37015
  49   40313.4    248.1   0.103394455   0.84435   0.12801  -0.29707   0.86007

-----------------------------------------------------------------------------
         ABSORPTION SPECTRUM VIA TRANSITION VELOCITY DIPOLE MOMENTS
-----------------------------------------------------------------------------
State   Energy  Wavelength   fosc         P2         PX        PY        PZ  
        (cm-1)    (nm)                  (au**2)     (au)      (au)      (au) 
-----------------------------------------------------------------------------
   0   13153.1    760.3   1.111155741   0.09989  -0.20797   0.23393  -0.04372
   1   15695.8    637.1   0.077894749   0.00836  -0.03187  -0.03623  -0.07764
   2   18926.2    528.4   0.604432923   0.07818   0.17140  -0.21807   0.03538
   3   20802.6    480.7   0.806173627   0.11462   0.16310  -0.29447  -0.03613
   4   21469.5    465.8   0.524749791   0.07700   0.05756   0.06091   0.26453
   5   22982.4    435.1   0.129578902   0.02035   0.02616   0.10372  -0.09440
   6   24234.8    412.6   0.252772810   0.04187   0.05071   0.01529   0.19764
   7   24926.4    401.2   0.373926941   0.06370  -0.01610  -0.00114  -0.25188
   8   25435.4    393.2   0.091097251   0.01584  -0.01252   0.11421  -0.05133
   9   26103.7    383.1   0.029183926   0.00521   0.05438  -0.03025  -0.03652
  10   26891.8    371.9   0.111014263   0.02040  -0.06009  -0.11244   0.06441
  11   28100.7    355.9   0.182755536   0.03510   0.05902   0.17734  -0.01288
  12   28527.5    350.5   0.083612546   0.01630  -0.07505  -0.06182  -0.08275
  13   28826.5    346.9   0.063710797   0.01255  -0.02667  -0.09466   0.05367
  14   29253.4    341.8   0.161515936   0.03229   0.04586   0.06321  -0.16185
  15   29572.3    338.2   0.366454510   0.07406   0.10346  -0.03254  -0.24960
  16   30017.4    333.1   0.007726572   0.00159   0.01607   0.01339  -0.03388
  17   30246.8    330.6   0.036768714   0.00760   0.07027  -0.05112   0.00708
  18   30732.7    325.4   0.127924895   0.02687  -0.06203  -0.13247   0.07398
  19   31269.8    319.8   0.038395026   0.00821   0.08588  -0.02880   0.00018
  20   31889.8    313.6   0.145840903   0.03179   0.08506   0.14630  -0.05610
  21   32080.7    311.7   0.238291854   0.05225   0.16817  -0.13309  -0.07907
  22   32649.2    306.3   0.541041852   0.12073   0.17966   0.25093  -0.15964
  23   33071.8    302.4   0.273846428   0.06190  -0.20804  -0.01998   0.13498
  24   33568.5    297.9   0.106940304   0.02453   0.03134   0.05423  -0.14357
  25   33667.8    297.0   0.001213150   0.00028   0.01271   0.00051   0.01084
  26   33810.9    295.8   0.119758507   0.02767   0.02143   0.15194  -0.06425
  27   34056.9    293.6   0.048371044   0.01126  -0.07663   0.01831   0.07107
  28   34647.9    288.6   0.084256138   0.01995   0.06287  -0.01344  -0.12577
  29   34921.8    286.4   0.125908457   0.03005  -0.14187   0.06635   0.07430
  30   35177.4    284.3   0.172585027   0.04149  -0.00055   0.15135  -0.13632
  31   35703.3    280.1   0.032458609   0.00792  -0.04918  -0.05806  -0.04616
  32   35788.0    279.4   0.094596684   0.02314   0.08354  -0.12638  -0.01362
  33   36143.6    276.7   0.084046625   0.02076  -0.11040   0.01265   0.09173
  34   36406.0    274.7   0.022375593   0.00557   0.00101  -0.06896   0.02848
  35   36643.1    272.9   0.004160523   0.00104  -0.01731   0.02133   0.01695
  36   36774.9    271.9   0.059254501   0.01489  -0.11728   0.01014   0.03220
  37   36959.7    270.6   0.118754833   0.03000   0.14500  -0.09461   0.00461
  38   37381.6    267.5   0.174385558   0.04455  -0.11106   0.17746   0.02698
  39   37798.5    264.6   0.011337394   0.00293  -0.04100  -0.03340  -0.01150
  40   38025.3    263.0   0.074999864   0.01949  -0.11580   0.05664   0.05361
  41   38332.1    260.9   0.021390655   0.00560  -0.03145   0.06343  -0.02431
  42   38389.1    260.5   0.094307305   0.02474   0.06854  -0.14128   0.00929
  43   38770.2    257.9   0.118295212   0.03135  -0.08457   0.15369   0.02394
  44   39007.6    256.4   0.007936821   0.00212  -0.03495   0.01000   0.02818
  45   39144.4    255.5   0.035181664   0.00941  -0.02374  -0.02971   0.08925
  46   39231.5    254.9   0.012010509   0.00322  -0.02692  -0.01419  -0.04790
  47   39545.9    252.9   0.040218117   0.01087   0.06463  -0.08140  -0.00810
  48   39776.1    251.4   0.034372190   0.00934   0.07239   0.02570  -0.05867
  49   40313.4    248.1   0.085209370   0.02348   0.01929  -0.04422   0.14543

-------------------------------------------------------------------
                             CD SPECTRUM
-------------------------------------------------------------------
State   Energy Wavelength       R         MX        MY        MZ   
        (cm-1)   (nm)       (1e40*cgs)   (au)      (au)      (au)  
-------------------------------------------------------------------
   0   13153.1    760.3    -295.41907   1.73710   2.22460   1.79201
   1   15695.8    637.1     63.79449   1.51242   2.42275  -1.51373
   2   18926.2    528.4    -300.16651  -1.14081  -1.67341  -1.56554
   3   20802.6    480.7    -31.58367   1.15507   0.91363  -2.43707
   4   21469.5    465.8    1062.33141  -6.64957  -8.73414   1.79446
   5   22982.4    435.1    -293.77405   1.48705   2.43426   1.69051
   6   24234.8    412.6    216.92629  -4.67520  -6.30996   1.16174
   7   24926.4    401.2    -182.03702   5.73093   7.92868  -0.75071
   8   25435.4    393.2    -126.82538   0.53796   1.21725   1.31287
   9   26103.7    383.1    -42.21696   0.46157   0.93816  -0.61579
  10   26891.8    371.9    -167.05971  -0.01283  -1.15116  -0.75347
  11   28100.7    355.9    556.83268  -1.59908  -1.01391   2.27893
  12   28527.5    350.5    589.41698   3.02341   3.50502  -1.55678
  13   28826.5    346.9    -24.10188  -0.52719  -1.08399  -1.84794
  14   29253.4    341.8    -440.14943   2.80651   4.15628   0.97301
  15   29572.3    338.2    -659.33764   4.68026   6.92850  -0.41309
  16   30017.4    333.1     55.00333   0.09257   0.18986   0.93496
  17   30246.8    330.6    -13.91351  -0.46284  -0.79879   0.37572
  18   30732.7    325.4    -65.72726   0.05081  -1.10882  -1.47672
  19   31269.8    319.8     68.26360  -0.61136  -0.42796  -0.11981
  20   31889.8    313.6     78.66111  -1.15348   0.45614   0.34895
  21   32080.7    311.7    -24.56303   0.53840   1.54437  -1.71928
  22   32649.2    306.3    134.84357  -0.70359   1.89256   2.70663
  23   33071.8    302.4    112.82175  -0.81936  -1.94144  -2.07405
  24   33568.5    297.9    -277.05168   2.57566   3.74733   0.81302
  25   33667.8    297.0     -5.37796   0.19319  -0.65410   0.18987
  26   33810.9    295.8    134.43127  -0.03367   0.63159   2.80171
  27   34056.9    293.6     20.79958  -0.85135  -1.43044  -0.78961
  28   34647.9    288.6     -6.67880   2.49573   3.18796   0.94946
  29   34921.8    286.4      8.23427  -0.42137  -1.15784   0.17418
  30   35177.4    284.3    -449.61145   1.86740   3.37458   1.70315
  31   35703.3    280.1    282.12895   2.11145   2.33885  -1.09970
  32   35788.0    279.4     55.12285  -0.03332   0.50188  -2.53624
  33   36143.6    276.7    -68.66737   0.20815  -1.44301   0.97918
  34   36406.0    274.7     14.63085  -0.21868  -0.43807  -1.47890
  35   36643.1    272.9    -14.15536   0.05363  -0.55365   1.30899
  36   36774.9    271.9     95.94632   0.58228   0.01201   0.08546
  37   36959.7    270.6    123.80236  -1.33360  -1.18912  -0.45916
  38   37381.6    267.5    -63.50363  -0.30730  -0.17426   1.31164
  39   37798.5    264.6     32.99305   0.32440   0.62503  -0.96629
  40   38025.3    263.0    -40.39956  -0.61087  -1.14699   0.42557
  41   38332.1    260.9    -12.26683   0.24117   0.51485   0.70950
  42   38389.1    260.5    -40.16304  -0.08146  -0.37518  -1.45935
  43   38770.2    257.9     -5.55165   0.27893  -0.17220   2.07536
  44   39007.6    256.4    -10.73153  -0.30354  -0.61944   0.09814
  45   39144.4    255.5    -166.92239  -1.31122  -2.49882   0.19519
  46   39231.5    254.9    105.97869   1.77745   2.07033  -0.22880
  47   39545.9    252.9     29.93276  -1.36069  -0.66158  -2.02994
  48   39776.1    251.4    -59.29309   0.63435   1.14559   0.61369
  49   40313.4    248.1    -53.49607  -3.21347  -4.30978  -0.74649

sTD-DFT done

Total run time:       10.162 sec

           *** ORCA-CIS/TD-DFT FINISHED WITHOUT ERROR ***

-------------------------   --------------------
FINAL SINGLE POINT ENERGY     -8203.315928414127
-------------------------   --------------------


                            ***************************************
                            *     ORCA property calculations      *
                            ***************************************

                                    ---------------------
                                    Active property flags
                                    ---------------------
   (+) Dipole Moment


------------------------------------------------------------------------------
                       ORCA ELECTRIC PROPERTIES CALCULATION
------------------------------------------------------------------------------

Dipole Moment Calculation                       ... on
Quadrupole Moment Calculation                   ... off
Polarizability Calculation                      ... off
GBWName                                         ... xtbopt.gbw
Electron density file                           ... xtbopt.scfp
The origin for moment calculation is the CENTER OF MASS  = (-21.326997,  8.620507 -1.135867)

-------------
DIPOLE MOMENT
-------------
                                X             Y             Z
Electronic contribution:     20.72152    -123.89344       7.98381
Nuclear contribution   :    -23.67796     123.33176      -2.06786
                        -----------------------------------------
Total Dipole Moment    :     -2.95644      -0.56168       5.91595
                        -----------------------------------------
Magnitude (a.u.)       :      6.63736
Magnitude (Debye)      :     16.87082



--------------------
Rotational spectrum 
--------------------
 
Rotational constants in cm-1:     0.000895     0.000194     0.000185 
Rotational constants in MHz :    26.841511     5.830413     5.540546 

 Dipole components along the rotational axes: 
x,y,z [a.u.] :    -0.413709     6.406707    -1.684470 
x,y,z [Debye]:    -1.051566    16.284554    -4.281582 

 

Timings for individual modules:

Sum of individual times         ...      904.291 sec (=  15.072 min)
GTO integral calculation        ...        4.794 sec (=   0.080 min)   0.5 %
SCF iterations                  ...      886.706 sec (=  14.778 min)  98.1 %
CIS module                      ...       12.792 sec (=   0.213 min)   1.4 %
                             ****ORCA TERMINATED NORMALLY****
TOTAL RUN TIME: 0 days 0 hours 15 minutes 6 seconds 847 msec
