
                                 *****************
                                 * O   R   C   A *
                                 *****************

           --- An Ab Initio, DFT and Semiempirical electronic structure package ---

                  #######################################################
                  #                        -***-                        #
                  #          Department of theory and spectroscopy      #
                  #               Directorship: Frank Neese             #
                  #        Max Planck Institute fuer Kohlenforschung    #
                  #                Kaiser Wilhelm Platz 1               #
                  #                 D-45470 Muelheim/Ruhr               #
                  #                      Germany                        #
                  #                                                     #
                  #                  All rights reserved                #
                  #                        -***-                        #
                  #######################################################


                         Program Version 4.2.0 -  RELEASE  -


 With contributions from (in alphabetic order):
   Daniel Aravena         : Magnetic Suceptibility
   Michael Atanasov       : Ab Initio Ligand Field Theory (pilot matlab implementation)
   Alexander A. Auer      : GIAO ZORA, VPT2
   Ute Becker             : Parallelization
   Giovanni Bistoni       : ED, misc. LED, open-shell LED, HFLED
   Martin Brehm           : Molecular dynamics
   Dmytro Bykov           : SCF Hessian
   Vijay G. Chilkuri      : MRCI spin determinant printing, contributions to CSF-ICE
   Dipayan Datta          : RHF DLPNO-CCSD density
   Achintya Kumar Dutta   : EOM-CC, STEOM-CC
   Dmitry Ganyushin       : Spin-Orbit,Spin-Spin,Magnetic field MRCI
   Miquel Garcia          : C-PCM Hessian, Gaussian charge scheme
   Yang Guo               : DLPNO-NEVPT2, CIM, IAO-localization
   Andreas Hansen         : Spin unrestricted coupled pair/coupled cluster methods
   Benjamin Helmich-Paris : CASSCF linear response (MC-RPA)
   Lee Huntington         : MR-EOM, pCC
   Robert Izsak           : Overlap fitted RIJCOSX, COSX-SCS-MP3, EOM
   Christian Kollmar      : KDIIS, OOCD, Brueckner-CCSD(T), CCSD density
   Simone Kossmann        : Meta GGA functionals, TD-DFT gradient, OOMP2, MP2 Hessian
   Martin Krupicka        : AUTO-CI
   Lucas Lang             : DCDCAS
   Dagmar Lenk            : GEPOL surface, SMD
   Dimitrios Liakos       : Extrapolation schemes; Compound Job, initial MDCI parallelization
   Dimitrios Manganas     : Further ROCIS development; embedding schemes
   Dimitrios Pantazis     : SARC Basis sets
   Taras Petrenko         : DFT Hessian,TD-DFT gradient, ASA, ECA, R-Raman, ABS, FL, XAS/XES, NRVS
   Peter Pinski           : DLPNO-MP2, DLPNO-MP2 Gradient
   Christoph Reimann      : Effective Core Potentials
   Marius Retegan         : Local ZFS, SOC
   Christoph Riplinger    : Optimizer, TS searches, QM/MM, DLPNO-CCSD(T), (RO)-DLPNO pert. Triples
   Tobias Risthaus        : Range-separated hybrids, TD-DFT gradient, RPA, STAB
   Michael Roemelt        : Original ROCIS implementation
   Masaaki Saitow         : Open-shell DLPNO-CCSD energy and density
   Barbara Sandhoefer     : DKH picture change effects
   Avijit Sen             : IP-ROCIS
   Kantharuban Sivalingam : CASSCF convergence, NEVPT2, FIC-MRCI
   Bernardo de Souza      : ESD, SOC TD-DFT
   Georgi Stoychev        : AutoAux, RI-MP2 NMR
   Willem Van den Heuvel  : Paramagnetic NMR
   Boris Wezisla          : Elementary symmetry handling
   Frank Wennmohs         : Technical directorship


 We gratefully acknowledge several colleagues who have allowed us to
 interface, adapt or use parts of their codes:
   Stefan Grimme, W. Hujo, H. Kruse,             : VdW corrections, initial TS optimization,
                  C. Bannwarth                     DFT functionals, gCP, sTDA/sTD-DF
   Ed Valeev, F. Pavosevic, A. Kumar             : LibInt (2-el integral package), F12 methods
   Garnet Chan, S. Sharma, J. Yang, R. Olivares  : DMRG
   Ulf Ekstrom                                   : XCFun DFT Library
   Mihaly Kallay                                 : mrcc  (arbitrary order and MRCC methods)
   Andreas Klamt, Michael Diedenhofen            : otool_cosmo (COSMO solvation model)
   Jiri Pittner, Ondrej Demel                    : Mk-CCSD
   Frank Weinhold                                : gennbo (NPA and NBO analysis)
   Christopher J. Cramer and Donald G. Truhlar   : smd solvation model
   Lars Goerigk                                  : TD-DFT with DH, B97 family of functionals
   V. Asgeirsson, H. Jonsson                     : NEB implementation
   FAccTs GmbH                                   : IRC, NEB, NEB-TS, Multilevel, MM, QM/MM, CI optimization
   S Lehtola, MJT Oliveira, MAL Marques          : LibXC Library


 Your calculation uses the libint2 library for the computation of 2-el integrals
 For citations please refer to: http://libint.valeyev.net

 Your ORCA version has been built with support for libXC version: 4.2.3
 For citations please refer to: https://tddft.org/programs/libxc/

 This ORCA versions uses:
   CBLAS   interface :  Fast vector & matrix operations
   LAPACKE interface :  Fast linear algebra routines
   SCALAPACK package :  Parallel linear algebra routines


XCFun DFT library Copyright 2009-2010 Ulf Ekstrom and contributors.
See http://admol.org/xcfun for more information. This is free soft-
ware; see the source code for copying conditions. There is ABSOLUTELY
NO WARRANTY; not even for MERCHANTABILITY or FITNESS FOR A PARTICULAR
PURPOSE. For details see the documentation. Scientific users of this 
library should cite U. Ekstrom, L. Visscher, R. Bast, A. J. Thorvald-
sen and K. Ruud; J.Chem.Theor.Comp. 2010, DOI: 10.1021/ct100117s
XCFun Version 0.99 
----- Orbital basis set information -----
Your calculation utilizes the basis: def2-SVP
   F. Weigend and R. Ahlrichs, Phys. Chem. Chem. Phys. 7, 3297 (2005).

----- AuxJ basis set information -----
Your calculation utilizes the auxiliary basis: def2/J
   F. Weigend, Phys. Chem. Chem. Phys. 8, 1057 (2006).

================================================================================
                                        WARNINGS
                       Please study these warnings very carefully!
================================================================================

INFO   : Checking CIS options ...

WARNING: CIS/ROCIS methods need fully converged wavefunctions
  ===> : Setting SCFConvForced true
         You can overwrite this default with %scf ConvForced false 


INFO   : the flag for use of LIBINT has been found!

================================================================================
                                       INPUT FILE
================================================================================
NAME = xtbopt.inp
|  1> # ORCA input file
|  2> # SCF done       -196.008595730674          0.000325503293
|  3> ! CAM-B3LYP def2-SVP def2/J RIJCOSX Grid4 TightSCF
|  4> %maxcore 5000
|  5> %tddft
|  6>     Mode sTDDFT
|  7>     Ethresh 5.0
|  8>     maxcore 5000
|  9> end
| 10> 
| 11> %pal
| 12>   nprocs 6
| 13>   end
| 14> * xyz 0 1
| 15>    C        2.54890         0.04876         1.03038
| 16>    C        1.43435         0.13850         1.79902
| 17>    C        0.62147        -1.01690         1.74085
| 18>    C       -0.61979        -1.15772         2.50803
| 19>    C       -1.60145        -0.19024         2.39395
| 20>    C       -2.81543        -0.34315         3.06907
| 21>    C       -3.01264        -1.45389         3.87352
| 22>    C       -2.00164        -2.40782         4.02053
| 23>    C       -0.80758        -2.26954         3.32889
| 24>    O       -2.30216        -3.44046         4.84821
| 25>    C       -1.31203        -4.40924         5.11042
| 26>    O       -3.73039         0.63433         2.86061
| 27>    C       -4.99558         0.51659         3.46872
| 28>    C        1.14226        -1.98574         0.90407
| 29>    S        2.64841        -1.44659         0.19870
| 30>    C        0.53296        -3.22108         0.47791
| 31>    C       -0.94094        -3.25378         0.48323
| 32>    C       -1.62883        -4.29375         1.11245
| 33>    C       -3.01016        -4.29732         1.23223
| 34>    C       -3.74932        -3.23822         0.71144
| 35>    C       -3.09335        -2.19974         0.05977
| 36>    C       -1.70755        -2.21579        -0.04708
| 37>    F       -1.10566        -1.21508        -0.69506
| 38>    F       -3.79442        -1.18909        -0.45371
| 39>    F       -5.07583        -3.21781         0.84096
| 40>    F       -3.62815        -5.30056         1.85725
| 41>    F       -0.93988        -5.30683         1.65336
| 42>    C        1.24868        -4.31287         0.06026
| 43>    C        2.68621        -4.42674         0.37394
| 44>    C        3.14435        -4.28952         1.68683
| 45>    C        4.48842        -4.41320         2.01185
| 46>    C        5.41853        -4.69038         1.01285
| 47>    C        4.98769        -4.84521        -0.30155
| 48>    C        3.63717        -4.71705        -0.60602
| 49>    F        3.25117        -4.85529        -1.87757
| 50>    F        5.86967        -5.11385        -1.26396
| 51>    F        6.70971        -4.80996         1.31442
| 52>    F        4.88906        -4.27370         3.27612
| 53>    F        2.26985        -4.04327         2.66737
| 54>    C        0.67329        -5.37708        -0.71566
| 55>    N        1.22049        -6.62324        -0.78205
| 56>    C        0.51704        -7.39626        -1.65669
| 57>    C       -0.51788        -6.61630        -2.17069
| 58>    C       -0.42046        -5.36224        -1.58397
| 59>    C        0.88042        -8.69963        -1.96279
| 60>    C        1.22468        -9.82206        -2.26965
| 61>    C        1.65827       -11.09399        -2.64197
| 62>    C        1.01039       -11.84579        -3.61170
| 63>    C        1.47679       -13.09871        -3.99917
| 64>    C        2.58857       -13.69549        -3.42057
| 65>    C        3.30560       -12.94648        -2.44562
| 66>    C        2.83589       -11.64039        -2.05405
| 67>    N        3.59807       -11.02254        -1.16234
| 68>   Se        4.97051       -12.04238        -0.78457
| 69>    N        4.44572       -13.30417        -1.87167
| 70>    C        3.01944       -14.99010        -3.87197
| 71>    N        2.86862       -15.32049        -5.14482
| 72>    C        3.46547       -16.52040        -5.29037
| 73>    C        4.01747       -16.99118        -4.00425
| 74>    C        4.65848       -18.30860        -4.16559
| 75>    O        5.20511       -18.99123        -3.32940
| 76>    C        4.46187       -18.58095        -5.60360
| 77>    C        3.73108       -17.46525        -6.24606
| 78>    N        3.52602       -17.72458        -7.56249
| 79>    C        4.06406       -18.90070        -7.76676
| 80>    C        4.65840       -19.49601        -6.58627
| 81>    C        3.69858       -16.04165        -3.07900
| 82>    C        3.86514       -16.12472        -1.64957
| 83>    C        3.00672       -15.63420        -0.76118
| 84>    H        3.32945         0.77181         0.90044
| 85>    H        1.19115         0.99159         2.40571
| 86>    H       -1.46443         0.67079         1.76024
| 87>    H       -3.92769        -1.61678         4.41757
| 88>    H       -0.01276        -2.99090         3.42190
| 89>    H       -1.75648        -5.09093         5.83329
| 90>    H       -0.41434        -3.95575         5.54066
| 91>    H       -1.04038        -4.96681         4.21004
| 92>    H       -4.91738         0.51883         4.56017
| 93>    H       -5.51377        -0.38994         3.14144
| 94>    H       -5.55835         1.39014         3.14460
| 95>    H        2.01049        -6.95064        -0.25016
| 96>    H       -1.23891        -6.93563        -2.89586
| 97>    H       -1.04237        -4.51634        -1.79746
| 98>    H        0.12634       -11.43887        -4.07895
| 99>    H        0.95467       -13.65132        -4.76480
|100>    H        4.04123       -19.34494        -8.74702
|101>    H        5.14032       -20.45279        -6.54613
|102>    H        4.71318       -16.71363        -1.32634
|103>    H        2.12085       -15.09509        -1.05671
|104>    H        3.15140       -15.77643         0.29579
|105> *
|106> 
|107>                          ****END OF INPUT****
================================================================================

                       ****************************
                       * Single Point Calculation *
                       ****************************

---------------------------------
CARTESIAN COORDINATES (ANGSTROEM)
---------------------------------
  C      2.548900    0.048760    1.030380
  C      1.434350    0.138500    1.799020
  C      0.621470   -1.016900    1.740850
  C     -0.619790   -1.157720    2.508030
  C     -1.601450   -0.190240    2.393950
  C     -2.815430   -0.343150    3.069070
  C     -3.012640   -1.453890    3.873520
  C     -2.001640   -2.407820    4.020530
  C     -0.807580   -2.269540    3.328890
  O     -2.302160   -3.440460    4.848210
  C     -1.312030   -4.409240    5.110420
  O     -3.730390    0.634330    2.860610
  C     -4.995580    0.516590    3.468720
  C      1.142260   -1.985740    0.904070
  S      2.648410   -1.446590    0.198700
  C      0.532960   -3.221080    0.477910
  C     -0.940940   -3.253780    0.483230
  C     -1.628830   -4.293750    1.112450
  C     -3.010160   -4.297320    1.232230
  C     -3.749320   -3.238220    0.711440
  C     -3.093350   -2.199740    0.059770
  C     -1.707550   -2.215790   -0.047080
  F     -1.105660   -1.215080   -0.695060
  F     -3.794420   -1.189090   -0.453710
  F     -5.075830   -3.217810    0.840960
  F     -3.628150   -5.300560    1.857250
  F     -0.939880   -5.306830    1.653360
  C      1.248680   -4.312870    0.060260
  C      2.686210   -4.426740    0.373940
  C      3.144350   -4.289520    1.686830
  C      4.488420   -4.413200    2.011850
  C      5.418530   -4.690380    1.012850
  C      4.987690   -4.845210   -0.301550
  C      3.637170   -4.717050   -0.606020
  F      3.251170   -4.855290   -1.877570
  F      5.869670   -5.113850   -1.263960
  F      6.709710   -4.809960    1.314420
  F      4.889060   -4.273700    3.276120
  F      2.269850   -4.043270    2.667370
  C      0.673290   -5.377080   -0.715660
  N      1.220490   -6.623240   -0.782050
  C      0.517040   -7.396260   -1.656690
  C     -0.517880   -6.616300   -2.170690
  C     -0.420460   -5.362240   -1.583970
  C      0.880420   -8.699630   -1.962790
  C      1.224680   -9.822060   -2.269650
  C      1.658270  -11.093990   -2.641970
  C      1.010390  -11.845790   -3.611700
  C      1.476790  -13.098710   -3.999170
  C      2.588570  -13.695490   -3.420570
  C      3.305600  -12.946480   -2.445620
  C      2.835890  -11.640390   -2.054050
  N      3.598070  -11.022540   -1.162340
  Se     4.970510  -12.042380   -0.784570
  N      4.445720  -13.304170   -1.871670
  C      3.019440  -14.990100   -3.871970
  N      2.868620  -15.320490   -5.144820
  C      3.465470  -16.520400   -5.290370
  C      4.017470  -16.991180   -4.004250
  C      4.658480  -18.308600   -4.165590
  O      5.205110  -18.991230   -3.329400
  C      4.461870  -18.580950   -5.603600
  C      3.731080  -17.465250   -6.246060
  N      3.526020  -17.724580   -7.562490
  C      4.064060  -18.900700   -7.766760
  C      4.658400  -19.496010   -6.586270
  C      3.698580  -16.041650   -3.079000
  C      3.865140  -16.124720   -1.649570
  C      3.006720  -15.634200   -0.761180
  H      3.329450    0.771810    0.900440
  H      1.191150    0.991590    2.405710
  H     -1.464430    0.670790    1.760240
  H     -3.927690   -1.616780    4.417570
  H     -0.012760   -2.990900    3.421900
  H     -1.756480   -5.090930    5.833290
  H     -0.414340   -3.955750    5.540660
  H     -1.040380   -4.966810    4.210040
  H     -4.917380    0.518830    4.560170
  H     -5.513770   -0.389940    3.141440
  H     -5.558350    1.390140    3.144600
  H      2.010490   -6.950640   -0.250160
  H     -1.238910   -6.935630   -2.895860
  H     -1.042370   -4.516340   -1.797460
  H      0.126340  -11.438870   -4.078950
  H      0.954670  -13.651320   -4.764800
  H      4.041230  -19.344940   -8.747020
  H      5.140320  -20.452790   -6.546130
  H      4.713180  -16.713630   -1.326340
  H      2.120850  -15.095090   -1.056710
  H      3.151400  -15.776430    0.295790

----------------------------
CARTESIAN COORDINATES (A.U.)
----------------------------
  NO LB      ZA    FRAG     MASS         X           Y           Z
   0 C     6.0000    0    12.011    4.816723    0.092143    1.947136
   1 C     6.0000    0    12.011    2.710529    0.261727    3.399655
   2 C     6.0000    0    12.011    1.174408   -1.921663    3.289730
   3 C     6.0000    0    12.011   -1.171233   -2.187774    4.739490
   4 C     6.0000    0    12.011   -3.026302   -0.359501    4.523910
   5 C     6.0000    0    12.011   -5.320392   -0.648460    5.799702
   6 C     6.0000    0    12.011   -5.693065   -2.747454    7.319892
   7 C     6.0000    0    12.011   -3.782551   -4.550120    7.597701
   8 C     6.0000    0    12.011   -1.526105   -4.288809    6.290690
   9 O     8.0000    0    15.999   -4.350452   -6.501527    9.161789
  10 C     6.0000    0    12.011   -2.479377   -8.332256    9.657294
  11 O     8.0000    0    15.999   -7.049415    1.198710    5.405769
  12 C     6.0000    0    12.011   -9.440278    0.976214    6.554931
  13 C     6.0000    0    12.011    2.158559   -3.752505    1.708445
  14 S    16.0000    0    32.060    5.004770   -2.733659    0.375489
  15 C     6.0000    0    12.011    1.007148   -6.086959    0.903119
  16 C     6.0000    0    12.011   -1.778119   -6.148753    0.913172
  17 C     6.0000    0    12.011   -3.078043   -8.114012    2.102226
  18 C     6.0000    0    12.011   -5.688378   -8.120758    2.328577
  19 C     6.0000    0    12.011   -7.085188   -6.119349    1.344427
  20 C     6.0000    0    12.011   -5.845584   -4.156906    0.112949
  21 C     6.0000    0    12.011   -3.226802   -4.187236   -0.088968
  22 F     9.0000    0    18.998   -2.089395   -2.296168   -1.313473
  23 F     9.0000    0    18.998   -7.170415   -2.247054   -0.857388
  24 F     9.0000    0    18.998   -9.591929   -6.080780    1.589184
  25 F     9.0000    0    18.998   -6.856210  -10.016607    3.509694
  26 F     9.0000    0    18.998   -1.776116  -10.028455    3.124398
  27 C     6.0000    0    12.011    2.359663   -8.150143    0.113875
  28 C     6.0000    0    12.011    5.076201   -8.365326    0.706644
  29 C     6.0000    0    12.011    5.941960   -8.106018    3.187647
  30 C     6.0000    0    12.011    8.481885   -8.339739    3.801846
  31 C     6.0000    0    12.011   10.239538   -8.863534    1.914009
  32 C     6.0000    0    12.011    9.425368   -9.156120   -0.569847
  33 C     6.0000    0    12.011    6.873255   -8.913933   -1.145212
  34 F     9.0000    0    18.998    6.143821   -9.175168   -3.548093
  35 F     9.0000    0    18.998   11.092069   -9.663776   -2.388538
  36 F     9.0000    0    18.998   12.679514   -9.089507    2.483894
  37 F     9.0000    0    18.998    9.238984   -8.076123    6.190970
  38 F     9.0000    0    18.998    4.289395   -7.640673    5.040599
  39 C     6.0000    0    12.011    1.272334  -10.161209   -1.352401
  40 N     7.0000    0    14.007    2.306392  -12.516110   -1.477860
  41 C     6.0000    0    12.011    0.977064  -13.976906   -3.130690
  42 C     6.0000    0    12.011   -0.978651  -12.502995   -4.102010
  43 C     6.0000    0    12.011   -0.794554  -10.133165   -2.993270
  44 C     6.0000    0    12.011    1.663753  -16.439918   -3.709136
  45 C     6.0000    0    12.011    2.314310  -18.561003   -4.289017
  46 C     6.0000    0    12.011    3.133676  -20.964603   -4.992600
  47 C     6.0000    0    12.011    1.909360  -22.385299   -6.825124
  48 C     6.0000    0    12.011    2.790729  -24.752975   -7.557336
  49 C     6.0000    0    12.011    4.891688  -25.880725   -6.463941
  50 C     6.0000    0    12.011    6.246679  -24.465302   -4.621552
  51 C     6.0000    0    12.011    5.359055  -21.997149   -3.881592
  52 N     7.0000    0    14.007    6.799367  -20.829582   -2.196504
  53 Se   34.0000    0    78.960    9.392903  -22.756800   -1.482622
  54 N     7.0000    0    14.007    8.401193  -25.141238   -3.536944
  55 C     6.0000    0    12.011    5.705915  -28.327184   -7.316963
  56 N     7.0000    0    14.007    5.420906  -28.951530   -9.722301
  57 C     6.0000    0    12.011    6.548789  -31.219032   -9.997350
  58 C     6.0000    0    12.011    7.591918  -32.108677   -7.566936
  59 C     6.0000    0    12.011    8.803251  -34.598240   -7.871824
  60 O     8.0000    0    15.999    9.836232  -35.888224   -6.291654
  61 C     6.0000    0    12.011    8.431712  -35.112907  -10.589269
  62 C     6.0000    0    12.011    7.050719  -33.004539  -11.803343
  63 N     7.0000    0    14.007    6.663212  -33.494602  -14.291035
  64 C     6.0000    0    12.011    7.679960  -35.717147  -14.677049
  65 C     6.0000    0    12.011    8.803100  -36.842120  -12.446247
  66 C     6.0000    0    12.011    6.989303  -30.314325   -5.818467
  67 C     6.0000    0    12.011    7.304056  -30.471305   -3.117236
  68 C     6.0000    0    12.011    5.681877  -29.544356   -1.438422
  69 H     1.0000    0     1.008    6.291749    1.458510    1.701585
  70 H     1.0000    0     1.008    2.250947    1.873834    4.546133
  71 H     1.0000    0     1.008   -2.767372    1.267609    3.326372
  72 H     1.0000    0     1.008   -7.422258   -3.055271    8.347997
  73 H     1.0000    0     1.008   -0.024113   -5.651982    6.466454
  74 H     1.0000    0     1.008   -3.319266   -9.620463   11.023321
  75 H     1.0000    0     1.008   -0.782989   -7.475284   10.470330
  76 H     1.0000    0     1.008   -1.966033   -9.385911    7.955823
  77 H     1.0000    0     1.008   -9.292501    0.980447    8.617472
  78 H     1.0000    0     1.008  -10.419515   -0.736880    5.936461
  79 H     1.0000    0     1.008  -10.503759    2.626984    5.942433
  80 H     1.0000    0     1.008    3.799275  -13.134806   -0.472734
  81 H     1.0000    0     1.008   -2.341201  -13.106441   -5.472382
  82 H     1.0000    0     1.008   -1.969794   -8.534646   -3.396707
  83 H     1.0000    0     1.008    0.238748  -21.616332   -7.708098
  84 H     1.0000    0     1.008    1.804065  -25.797256   -9.004167
  85 H     1.0000    0     1.008    7.636818  -36.556639  -16.529472
  86 H     1.0000    0     1.008    9.713797  -38.650172  -12.370393
  87 H     1.0000    0     1.008    8.906619  -31.584183   -2.506419
  88 H     1.0000    0     1.008    4.007826  -28.525586   -1.996893
  89 H     1.0000    0     1.008    5.955283  -29.813132    0.558962

--------------------------------
INTERNAL COORDINATES (ANGSTROEM)
--------------------------------
 C      0   0   0     0.000000000000     0.00000000     0.00000000
 C      1   0   0     1.356864923159     0.00000000     0.00000000
 C      2   1   0     1.413897734385   113.25957203     0.00000000
 C      3   2   1     1.465988339790   122.93961553   178.80696571
 C      4   3   2     1.382999693565   119.38204557    54.27832817
 C      5   4   3     1.397467682238   120.01409974   176.93546521
 C      6   5   4     1.385559430050   119.46211033     1.42628479
 C      7   6   5     1.397753692537   120.34617236     0.64744877
 C      8   7   6     1.386818853203   120.15000194   358.02725393
 O      8   7   6     1.357096836044   115.04195533   179.05671327
 C     10   8   7     1.409839065071   118.73643992   183.42444129
 O      6   5   4     1.355018274268   115.67873975   182.09194104
 C     12   6   5     1.408675340808   118.66926471   177.54288306
 C      3   2   1     1.382054245715   112.40285966   359.72875746
 S      1   2   3     1.713961926357   112.35047595     0.25737573
 C     14   3   2     1.441847339769   128.33998247   187.56824612
 C     16  14   3     1.474272295880   116.13025176    25.31385514
 C     17  16  14     1.396656028305   120.70004812   230.78231429
 C     18  17  16     1.386518143480   122.10825346   174.52512222
 C     19  18  17     1.392577660204   119.63900985     0.11572040
 C     20  19  18     1.390471553179   119.52962794     0.96195226
 C     21  20  19     1.390005814736   119.85034701   358.94188543
 F     22  21  20     1.335503708943   118.55258819   179.04780163
 F     21  20  19     1.332881944435   119.91476309   179.30792174
 F     20  19  18     1.332974410332   120.23306216   181.20075041
 F     19  18  17     1.333811132845   120.26572824   180.95288408
 F     18  17  16     1.339241134748   119.46284829   356.41056858
 C     16  14   3     1.370653874981   123.49481532   204.04949288
 C     28  16  14     1.475755406631   120.35412940    17.25507440
 C     29  28  16     1.397283700649   120.76554309    52.45786275
 C     30  29  28     1.388329538582   121.91405625   178.95921098
 C     31  30  29     1.392815265748   119.75656649   359.58342781
 C     32  31  30     1.391848696698   119.52262957   359.76690139
 C     33  32  31     1.390334936949   119.81700185     0.25090920
 F     34  33  32     1.336018600207   118.65468687   179.25440098
 F     33  32  31     1.332774991550   119.96727928   180.16512641
 F     32  31  30     1.331311245990   120.20289853   179.95599050
 F     31  30  29     1.333548384012   120.23059946   179.89416119
 F     30  29  28     1.336730340832   119.52621182   359.54367802
 C     28  16  14     1.437243341470   123.04231436   198.67955616
 N     40  28  16     1.362626220832   122.86757211   201.05137060
 C     41  40  28     1.362863512058   110.04234517   184.03665604
 C     42  41  40     1.394128045769   107.60474788     0.06984648
 C     43  42  41     1.387947224645   107.30953264   359.89469318
 C     42  41  40     1.387269112790   122.63623759   177.45340655
 C     45  42  41     1.213477281246   177.62100245   267.27375610
 C     46  45  42     1.394427622862   178.09413757    26.52358868
 C     47  46  45     1.387561893142   122.38686999   248.94581054
 C     48  47  46     1.391930489392   121.72178666   178.18453039
 C     49  48  47     1.388156726310   122.63658607     1.94957166
 C     50  49  48     1.423262275022   117.56572297   356.54611054
 C     47  46  45     1.425128678681   119.76965312    66.52955858
 N     52  47  46     1.325821895656   125.01724050   359.11239520
 Se    53  52  47     1.751106893396   108.92020916   182.70792708
 N     51  50  49     1.325607163906   126.00723794   185.94723517
 C     50  49  48     1.437158992248   119.76644475   180.22795041
 N     56  50  49     1.323650764741   119.51976908    33.56970128
 C     57  56  50     1.348035137932   105.99523271   174.54602324
 C     58  57  56     1.476632135232   110.80927405     0.91534828
 C     59  58  57     1.473947038431   110.62178168   179.49893035
 O     60  59  58     1.209959416633   128.68876253   180.34570067
 C     60  59  58     1.476720276390   102.32951277     0.29131799
 C     58  57  56     1.369902759578   140.81437409   180.60814762
 N     63  58  57     1.357309691043   141.17904261   358.72879521
 C     64  63  58     1.309378298621   105.12013490   182.03019233
 C     62  60  59     1.357055331739   144.11706210   182.80409241
 C     59  58  57     1.363592906809   106.35355155     1.45130333
 C     67  59  58     1.441496785775   127.27979626   171.30087521
 C     68  67  59     1.329184546592   124.53347614   217.76792880
 H      1   2   3     1.071888057868   128.47799279   180.52934894
 H      2   1   3     1.074700676561   123.92954190   179.18046901
 H      5   4   3     1.077838348455   121.13795775   359.25284708
 H      7   6   5     1.076958707240   122.37685222   179.76872264
 H      9   8   7     1.077381057055   121.69366647   180.14335557
 H     11  10   8     1.088475123969   105.49189602   176.70487368
 H     11  10   8     1.093895321226   111.38372234    58.00585576
 H     11  10   8     1.093326196430   111.82447342   295.30773996
 H     13  12   6     1.094250135984   111.48319184    62.58428005
 H     13  12   6     1.094271317087   111.43488346   299.90343036
 H     13  12   6     1.088509738036   105.58869315   181.30628088
 H     41  40  28     1.007073846399   125.91599106     5.75722001
 H     43  42  41     1.071320418316   125.62108244   179.05303401
 H     44  43  42     1.071399476479   126.04289196   177.16666003
 H     48  47  46     1.079560489922   118.72564605   358.65328571
 H     49  48  47     1.078970066035   119.76206677   180.70804248
 H     65  64  63     1.076466466779   120.26710503   180.20805505
 H     66  62  60     1.072047608271   129.77586049   357.59889046
 H     68  67  59     1.081880059249   114.72143966    31.99870255
 H     69  68  67     1.078305721908   122.13354205   357.69991830
 H     69  68  67     1.076265420888   121.38618627   176.26648771

---------------------------
INTERNAL COORDINATES (A.U.)
---------------------------
 C      0   0   0     0.000000000000     0.00000000     0.00000000
 C      1   0   0     2.564103105495     0.00000000     0.00000000
 C      2   1   0     2.671879499360   113.25957203     0.00000000
 C      3   2   1     2.770316477725   122.93961553   178.80696571
 C      4   3   2     2.613490664134   119.38204557    54.27832817
 C      5   4   3     2.640831200436   120.01409974   176.93546521
 C      6   5   4     2.618327865066   119.46211033     1.42628479
 C      7   6   5     2.641371681572   120.34617236     0.64744877
 C      8   7   6     2.620707829913   120.15000194   358.02725393
 O      8   7   6     2.564541357334   115.04195533   179.05671327
 C     10   8   7     2.664209725888   118.73643992   183.42444129
 O      6   5   4     2.560613444825   115.67873975   182.09194104
 C     12   6   5     2.662010605735   118.66926471   177.54288306
 C      3   2   1     2.611704026625   112.40285966   359.72875746
 S      1   2   3     3.238918644782   112.35047595     0.25737573
 C     14   3   2     2.724696599087   128.33998247   187.56824612
 C     16  14   3     2.785970886041   116.13025176    25.31385514
 C     17  16  14     2.639297396786   120.70004812   230.78231429
 C     18  17  16     2.620139570891   122.10825346   174.52512222
 C     19  18  17     2.631590398003   119.63900985     0.11572040
 C     20  19  18     2.627610432516   119.52962794     0.96195226
 C     21  20  19     2.626730314409   119.85034701   358.94188543
 F     22  21  20     2.523736260738   118.55258819   179.04780163
 F     21  20  19     2.518781843830   119.91476309   179.30792174
 F     20  19  18     2.518956579053   120.23306216   181.20075041
 F     19  18  17     2.520537755451   120.26572824   180.95288408
 F     18  17  16     2.530798971955   119.46284829   356.41056858
 C     16  14   3     2.590160448112   123.49481532   204.04949288
 C     28  16  14     2.788773559186   120.35412940    17.25507440
 C     29  28  16     2.640483525619   120.76554309    52.45786275
 C     30  29  28     2.623562611554   121.91405625   178.95921098
 C     31  30  29     2.632039407408   119.75656649   359.58342781
 C     32  31  30     2.630212856614   119.52262957   359.76690139
 C     33  32  31     2.627352265256   119.81700185     0.25090920
 F     34  33  32     2.524709264217   118.65468687   179.25440098
 F     33  32  31     2.518579732168   119.96727928   180.16512641
 F     32  31  30     2.515813653931   120.20289853   179.95599050
 F     31  30  29     2.520041232115   120.23059946   179.89416119
 F     30  29  28     2.526054259075   119.52621182   359.54367802
 C     28  16  14     2.715996303180   123.04231436   198.67955616
 N     40  28  16     2.574990380273   122.86757211   201.05137060
 C     41  40  28     2.575438795704   110.04234517   184.03665604
 C     42  41  40     2.634520202122   107.60474788     0.06984648
 C     43  42  41     2.622840142915   107.30953264   359.89469318
 C     42  41  40     2.621558697220   122.63623759   177.45340655
 C     45  42  41     2.293139731290   177.62100245   267.27375610
 C     46  45  42     2.635086320784   178.09413757    26.52358868
 C     47  46  45     2.622111971904   122.38686999   248.94581054
 C     48  47  46     2.630367422407   121.72178666   178.18453039
 C     49  48  47     2.623236043687   122.63658607     1.94957166
 C     50  49  48     2.689575916533   117.56572297   356.54611054
 C     47  46  45     2.693102908305   119.76965312    66.52955858
 N     52  47  46     2.505440285146   125.01724050   359.11239520
 Se    53  52  47     3.309112459741   108.92020916   182.70792708
 N     51  50  49     2.505034500947   126.00723794   185.94723517
 C     50  49  48     2.715836906251   119.76644475   180.22795041
 N     56  50  49     2.501337442316   119.51976908    33.56970128
 C     57  56  50     2.547417229595   105.99523271   174.54602324
 C     58  57  56     2.790430336136   110.80927405     0.91534828
 C     59  58  57     2.785356238539   110.62178168   179.49893035
 O     60  59  58     2.286491930596   128.68876253   180.34570067
 C     60  59  58     2.790596898785   102.32951277     0.29131799
 C     58  57  56     2.588741045706   140.81437409   180.60814762
 N     63  58  57     2.564943594989   141.17904261   358.72879521
 C     64  63  58     2.474366390094   105.12013490   182.03019233
 C     62  60  59     2.564462925563   144.11706210   182.80409241
 C     59  58  57     2.576817152027   106.35355155     1.45130333
 C     67  59  58     2.724034148043   127.27979626   171.30087521
 C     68  67  59     2.511794774500   124.53347614   217.76792880
 H      1   2   3     2.025574875591   128.47799279   180.52934894
 H      2   1   3     2.030889954640   123.92954190   179.18046901
 H      5   4   3     2.036819295218   121.13795775   359.25284708
 H      7   6   5     2.035157014225   122.37685222   179.76872264
 H      9   8   7     2.035955139708   121.69366647   180.14335557
 H     11  10   8     2.056919887888   105.49189602   176.70487368
 H     11  10   8     2.067162576295   111.38372234    58.00585576
 H     11  10   8     2.066087086294   111.82447342   295.30773996
 H     13  12   6     2.067833079015   111.48319184    62.58428005
 H     13  12   6     2.067873105500   111.43488346   299.90343036
 H     13  12   6     2.056985298995   105.58869315   181.30628088
 H     41  40  28     1.903093766328   125.91599106     5.75722001
 H     43  42  41     2.024502192295   125.62108244   179.05303401
 H     44  43  42     2.024651590572   126.04289196   177.16666003
 H     48  47  46     2.040073670954   118.72564605   358.65328571
 H     49  48  47     2.038957931505   119.76206677   180.70804248
 H     65  64  63     2.034226814562   120.26710503   180.20805505
 H     66  62  60     2.025876382158   129.77586049   357.59889046
 H     68  67  59     2.044457021731   114.72143966    31.99870255
 H     69  68  67     2.037702503047   122.13354205   357.69991830
 H     69  68  67     2.033846892888   121.38618627   176.26648771

---------------------
BASIS SET INFORMATION
---------------------
There are 7 groups of distinct atoms

 Group   1 Type C   : 7s4p1d contracted to 3s2p1d pattern {511/31/1}
 Group   2 Type O   : 7s4p1d contracted to 3s2p1d pattern {511/31/1}
 Group   3 Type S   : 10s7p1d contracted to 4s3p1d pattern {5311/511/1}
 Group   4 Type F   : 7s4p1d contracted to 3s2p1d pattern {511/31/1}
 Group   5 Type N   : 7s4p1d contracted to 3s2p1d pattern {511/31/1}
 Group   6 Type Se  : 14s10p6d contracted to 5s4p3d pattern {63311/5311/411}
 Group   7 Type H   : 4s1p contracted to 2s1p pattern {31/1}

Atom   0C    basis set group =>   1
Atom   1C    basis set group =>   1
Atom   2C    basis set group =>   1
Atom   3C    basis set group =>   1
Atom   4C    basis set group =>   1
Atom   5C    basis set group =>   1
Atom   6C    basis set group =>   1
Atom   7C    basis set group =>   1
Atom   8C    basis set group =>   1
Atom   9O    basis set group =>   2
Atom  10C    basis set group =>   1
Atom  11O    basis set group =>   2
Atom  12C    basis set group =>   1
Atom  13C    basis set group =>   1
Atom  14S    basis set group =>   3
Atom  15C    basis set group =>   1
Atom  16C    basis set group =>   1
Atom  17C    basis set group =>   1
Atom  18C    basis set group =>   1
Atom  19C    basis set group =>   1
Atom  20C    basis set group =>   1
Atom  21C    basis set group =>   1
Atom  22F    basis set group =>   4
Atom  23F    basis set group =>   4
Atom  24F    basis set group =>   4
Atom  25F    basis set group =>   4
Atom  26F    basis set group =>   4
Atom  27C    basis set group =>   1
Atom  28C    basis set group =>   1
Atom  29C    basis set group =>   1
Atom  30C    basis set group =>   1
Atom  31C    basis set group =>   1
Atom  32C    basis set group =>   1
Atom  33C    basis set group =>   1
Atom  34F    basis set group =>   4
Atom  35F    basis set group =>   4
Atom  36F    basis set group =>   4
Atom  37F    basis set group =>   4
Atom  38F    basis set group =>   4
Atom  39C    basis set group =>   1
Atom  40N    basis set group =>   5
Atom  41C    basis set group =>   1
Atom  42C    basis set group =>   1
Atom  43C    basis set group =>   1
Atom  44C    basis set group =>   1
Atom  45C    basis set group =>   1
Atom  46C    basis set group =>   1
Atom  47C    basis set group =>   1
Atom  48C    basis set group =>   1
Atom  49C    basis set group =>   1
Atom  50C    basis set group =>   1
Atom  51C    basis set group =>   1
Atom  52N    basis set group =>   5
Atom  53Se   basis set group =>   6
Atom  54N    basis set group =>   5
Atom  55C    basis set group =>   1
Atom  56N    basis set group =>   5
Atom  57C    basis set group =>   1
Atom  58C    basis set group =>   1
Atom  59C    basis set group =>   1
Atom  60O    basis set group =>   2
Atom  61C    basis set group =>   1
Atom  62C    basis set group =>   1
Atom  63N    basis set group =>   5
Atom  64C    basis set group =>   1
Atom  65C    basis set group =>   1
Atom  66C    basis set group =>   1
Atom  67C    basis set group =>   1
Atom  68C    basis set group =>   1
Atom  69H    basis set group =>   7
Atom  70H    basis set group =>   7
Atom  71H    basis set group =>   7
Atom  72H    basis set group =>   7
Atom  73H    basis set group =>   7
Atom  74H    basis set group =>   7
Atom  75H    basis set group =>   7
Atom  76H    basis set group =>   7
Atom  77H    basis set group =>   7
Atom  78H    basis set group =>   7
Atom  79H    basis set group =>   7
Atom  80H    basis set group =>   7
Atom  81H    basis set group =>   7
Atom  82H    basis set group =>   7
Atom  83H    basis set group =>   7
Atom  84H    basis set group =>   7
Atom  85H    basis set group =>   7
Atom  86H    basis set group =>   7
Atom  87H    basis set group =>   7
Atom  88H    basis set group =>   7
Atom  89H    basis set group =>   7
---------------------------------
AUXILIARY/J BASIS SET INFORMATION
---------------------------------
There are 7 groups of distinct atoms

 Group   1 Type C   : 12s5p4d2f1g contracted to 6s4p3d1f1g pattern {711111/2111/211/2/1}
 Group   2 Type O   : 12s5p4d2f1g contracted to 6s4p3d1f1g pattern {711111/2111/211/2/1}
 Group   3 Type S   : 14s5p5d2f1g contracted to 8s4p3d1f1g pattern {71111111/2111/311/2/1}
 Group   4 Type F   : 12s5p4d2f1g contracted to 6s4p3d1f1g pattern {711111/2111/211/2/1}
 Group   5 Type N   : 12s5p4d2f1g contracted to 6s4p3d1f1g pattern {711111/2111/211/2/1}
 Group   6 Type Se  : 19s5p5d3f1g contracted to 8s4p3d2f1g pattern {121111111/2111/311/21/1}
 Group   7 Type H   : 5s2p1d contracted to 3s1p1d pattern {311/2/1}

Atom   0C    basis set group =>   1
Atom   1C    basis set group =>   1
Atom   2C    basis set group =>   1
Atom   3C    basis set group =>   1
Atom   4C    basis set group =>   1
Atom   5C    basis set group =>   1
Atom   6C    basis set group =>   1
Atom   7C    basis set group =>   1
Atom   8C    basis set group =>   1
Atom   9O    basis set group =>   2
Atom  10C    basis set group =>   1
Atom  11O    basis set group =>   2
Atom  12C    basis set group =>   1
Atom  13C    basis set group =>   1
Atom  14S    basis set group =>   3
Atom  15C    basis set group =>   1
Atom  16C    basis set group =>   1
Atom  17C    basis set group =>   1
Atom  18C    basis set group =>   1
Atom  19C    basis set group =>   1
Atom  20C    basis set group =>   1
Atom  21C    basis set group =>   1
Atom  22F    basis set group =>   4
Atom  23F    basis set group =>   4
Atom  24F    basis set group =>   4
Atom  25F    basis set group =>   4
Atom  26F    basis set group =>   4
Atom  27C    basis set group =>   1
Atom  28C    basis set group =>   1
Atom  29C    basis set group =>   1
Atom  30C    basis set group =>   1
Atom  31C    basis set group =>   1
Atom  32C    basis set group =>   1
Atom  33C    basis set group =>   1
Atom  34F    basis set group =>   4
Atom  35F    basis set group =>   4
Atom  36F    basis set group =>   4
Atom  37F    basis set group =>   4
Atom  38F    basis set group =>   4
Atom  39C    basis set group =>   1
Atom  40N    basis set group =>   5
Atom  41C    basis set group =>   1
Atom  42C    basis set group =>   1
Atom  43C    basis set group =>   1
Atom  44C    basis set group =>   1
Atom  45C    basis set group =>   1
Atom  46C    basis set group =>   1
Atom  47C    basis set group =>   1
Atom  48C    basis set group =>   1
Atom  49C    basis set group =>   1
Atom  50C    basis set group =>   1
Atom  51C    basis set group =>   1
Atom  52N    basis set group =>   5
Atom  53Se   basis set group =>   6
Atom  54N    basis set group =>   5
Atom  55C    basis set group =>   1
Atom  56N    basis set group =>   5
Atom  57C    basis set group =>   1
Atom  58C    basis set group =>   1
Atom  59C    basis set group =>   1
Atom  60O    basis set group =>   2
Atom  61C    basis set group =>   1
Atom  62C    basis set group =>   1
Atom  63N    basis set group =>   5
Atom  64C    basis set group =>   1
Atom  65C    basis set group =>   1
Atom  66C    basis set group =>   1
Atom  67C    basis set group =>   1
Atom  68C    basis set group =>   1
Atom  69H    basis set group =>   7
Atom  70H    basis set group =>   7
Atom  71H    basis set group =>   7
Atom  72H    basis set group =>   7
Atom  73H    basis set group =>   7
Atom  74H    basis set group =>   7
Atom  75H    basis set group =>   7
Atom  76H    basis set group =>   7
Atom  77H    basis set group =>   7
Atom  78H    basis set group =>   7
Atom  79H    basis set group =>   7
Atom  80H    basis set group =>   7
Atom  81H    basis set group =>   7
Atom  82H    basis set group =>   7
Atom  83H    basis set group =>   7
Atom  84H    basis set group =>   7
Atom  85H    basis set group =>   7
Atom  86H    basis set group =>   7
Atom  87H    basis set group =>   7
Atom  88H    basis set group =>   7
Atom  89H    basis set group =>   7


           ************************************************************
           *        Program running with 6 parallel MPI-processes     *
           *              working on a common directory               *
           ************************************************************
------------------------------------------------------------------------------
                           ORCA GTO INTEGRAL CALCULATION
                           -- RI-GTO INTEGRALS CHOSEN --
------------------------------------------------------------------------------

                         BASIS SET STATISTICS AND STARTUP INFO

Gaussian basis set:
 # of primitive gaussian shells          ...  957
 # of primitive gaussian functions       ... 1865
 # of contracted shells                  ...  485
 # of contracted basis functions         ... 1093
 Highest angular momentum                ...    2
 Maximum contraction depth               ...    6
Auxiliary gaussian basis set:
 # of primitive gaussian shells          ... 1836
 # of primitive gaussian functions       ... 5192
 # of contracted shells                  ... 1145
 # of contracted aux-basis functions     ... 3623
 Highest angular momentum                ...    4
 Maximum contraction depth               ...   12
Ratio of auxiliary to basis functions    ...  3.31
Integral package used                  ... LIBINT
 One Electron integrals                  ... done
 Ordering auxiliary basis shells         ... done
 Integral threshhold             Thresh  ...  2.500e-11
 Primitive cut-off               TCut    ...  2.500e-12
 Pre-screening matrix                    ... done
 Shell pair data                         ... 
 Ordering of the shell pairs             ... done (   0.009 sec) 44576 of 117855 pairs
 Determination of significant pairs      ... done (   0.000 sec)
 Creation of shell pair data             ... done (   0.005 sec)
 Storage of shell pair data              ... done (   0.007 sec)
 Shell pair data done in (   0.021 sec)
 Computing two index integrals           ... done
 Cholesky decomposition of the V-matrix  ... done


Timings:
 Total evaluation time                   ...   2.005 sec (  0.033 min)
 One electron matrix time                ...   0.427 sec (  0.007 min) = 21.3%
 Schwartz matrix evaluation time         ...   0.561 sec (  0.009 min) = 28.0%
 Two index repulsion integral time       ...   0.218 sec (  0.004 min) = 10.9%
 Cholesky decomposition of V             ...   0.762 sec (  0.013 min) = 38.0%
 Three index repulsion integral time     ...   0.000 sec (  0.000 min) =  0.0%



           ************************************************************
           *        Program running with 6 parallel MPI-processes     *
           *              working on a common directory               *
           ************************************************************
-------------------------------------------------------------------------------
                                 ORCA SCF
-------------------------------------------------------------------------------

------------
SCF SETTINGS
------------
Hamiltonian:
 Density Functional     Method          .... DFT(GTOs)
 Exchange Functional    Exchange        .... WB88
 Correlation Functional Correlation     .... LYP
 LDA part of GGA corr.  LDAOpt          .... VWN-5
 Gradients option       PostSCFGGA      .... off
 Hybrid DFT is turned on
   Fraction HF Exchange ScalHFX         ....  0.190000
   Scaling of DF-GGA-X  ScalDFX         ....  0.350000
   Scaling of DF-GGA-C  ScalDFC         ....  0.810000
   Scaling of DF-LDA-C  ScalLDAC        ....  1.000000
   Perturbative correction              ....  0.000000
   Density functional embedding theory  .... OFF
 Long-range corrected/Screened/Range-Separated Hybrid DFT is turned on
   Amount of maximum screened exact exchange              ....  0.460000
   Range separation parameter mu (erf(mu*r12)/r12)        ....  0.330000
 RI-approximation to the Coulomb term is turned on
   Number of auxiliary basis functions  .... 3623
   RIJ-COSX (HFX calculated with COS-X)).... on


General Settings:
 Integral files         IntName         .... xtbopt
 Hartree-Fock type      HFTyp           .... RHF
 Total Charge           Charge          ....    0
 Multiplicity           Mult            ....    1
 Number of Electrons    NEL             ....  514
 Basis Dimension        Dim             .... 1093
 Nuclear Repulsion      ENuc            ....  11306.5949722123 Eh

Convergence Acceleration:
 DIIS                   CNVDIIS         .... on
   Start iteration      DIISMaxIt       ....    12
   Startup error        DIISStart       ....  0.200000
   # of expansion vecs  DIISMaxEq       ....     5
   Bias factor          DIISBfac        ....   1.050
   Max. coefficient     DIISMaxC        ....  10.000
 Newton-Raphson         CNVNR           .... off
 SOSCF                  CNVSOSCF        .... on
   Start iteration      SOSCFMaxIt      ....   150
   Startup grad/error   SOSCFStart      ....  0.003300
 Level Shifting         CNVShift        .... on
   Level shift para.    LevelShift      ....    0.2500
   Turn off err/grad.   ShiftErr        ....    0.0010
 Zerner damping         CNVZerner       .... off
 Static damping         CNVDamp         .... on
   Fraction old density DampFac         ....    0.7000
   Max. Damping (<1)    DampMax         ....    0.9800
   Min. Damping (>=0)   DampMin         ....    0.0000
   Turn off err/grad.   DampErr         ....    0.1000
 Fernandez-Rico         CNVRico         .... off

SCF Procedure:
 Maximum # iterations   MaxIter         ....   125
 SCF integral mode      SCFMode         .... Direct
   Integral package                     .... LIBINT
 Reset frequency        DirectResetFreq ....    20
 Integral Threshold     Thresh          ....  2.500e-11 Eh
 Primitive CutOff       TCut            ....  2.500e-12 Eh

Convergence Tolerance:
 Convergence Check Mode ConvCheckMode   .... Total+1el-Energy
 Convergence forced     ConvForced      .... 1
 Energy Change          TolE            ....  1.000e-08 Eh
 1-El. energy change                    ....  1.000e-05 Eh
 Orbital Gradient       TolG            ....  1.000e-05
 Orbital Rotation angle TolX            ....  1.000e-05
 DIIS Error             TolErr          ....  5.000e-07


Diagonalization of the overlap matrix:
Smallest eigenvalue                        ... 1.050e-04
Time for diagonalization                   ...    0.264 sec
Threshold for overlap eigenvalues          ... 1.000e-08
Number of eigenvalues below threshold      ... 0
Time for construction of square roots      ...    0.195 sec
Total time needed                          ...    0.460 sec

-------------------
DFT GRID GENERATION
-------------------

General Integration Accuracy     IntAcc      ...  4.670
Radial Grid Type                 RadialGrid  ... Gauss-Chebyshev
Angular Grid (max. acc.)         AngularGrid ... Lebedev-302
Angular grid pruning method      GridPruning ... 3 (G Style)
Weight generation scheme         WeightScheme... Becke
Basis function cutoff            BFCut       ...    1.0000e-11
Integration weight cutoff        WCut        ...    1.0000e-14
Grids for H and He will be reduced by one unit

# of grid points (after initial pruning)     ... 504564 (   0.0 sec)
# of grid points (after weights+screening)   ... 429314 (   4.0 sec)
nearest neighbour list constructed           ...    0.0 sec
Grid point re-assignment to atoms done       ...    0.1 sec
Grid point division into batches done        ...    1.7 sec
Reduced shell lists constructed in    2.6 sec

Total number of grid points                  ...   429314
Total number of batches                      ...     6757
Average number of points per batch           ...       63
Average number of grid points per atom       ...     4770
Average number of shells per batch           ...   127.47 (26.28%)
Average number of basis functions per batch  ...   266.47 (24.38%)
Average number of large shells per batch     ...    78.22 (61.36%)
Average number of large basis fcns per batch ...   164.79 (61.84%)
Maximum spatial batch extension              ...  17.25, 19.20, 21.97 au
Average spatial batch extension              ...   0.25,  0.25,  0.26 au

Time for grid setup =    6.861 sec

------------------------------
INITIAL GUESS: MODEL POTENTIAL
------------------------------
Loading Hartree-Fock densities                     ... done
Calculating cut-offs                               ... done
Setting up the integral package                    ... done
Initializing the effective Hamiltonian             ... done
Starting the Coulomb interaction                   ... done (   1.2 sec)
Reading the grid                                   ... done
Mapping shells                                     ... done
Starting the XC term evaluation                    ... done (   1.1 sec)
  promolecular density results
     # of electrons  =    513.988866241
     EX              =   -524.461806320
     EC              =    -18.237123692
     EX+EC           =   -542.698930012
Transforming the Hamiltonian                       ... done (   0.2 sec)
Diagonalizing the Hamiltonian                      ... done (   0.3 sec)
Back transforming the eigenvectors                 ... done (   0.1 sec)
Now organizing SCF variables                       ... done
                      ------------------
                      INITIAL GUESS DONE (   9.8 sec)
                      ------------------
--------------------
COSX GRID GENERATION
--------------------

General Integration Accuracy     IntAcc      ...  3.340
Radial Grid Type                 RadialGrid  ... Gauss-Chebyshev
Angular Grid (max. acc.)         AngularGrid ... Lebedev-50
Angular grid pruning method      GridPruning ... 3 (G Style)
Weight generation scheme         WeightScheme... Becke
Basis function cutoff            BFCut       ...    1.0000e-11
Integration weight cutoff        WCut        ...    1.0000e-14
Grids for H and He will be reduced by one unit

# of grid points (after initial pruning)     ...  47258 (   0.0 sec)
# of grid points (after weights+screening)   ...  42237 (   0.4 sec)
nearest neighbour list constructed           ...    0.0 sec
Grid point re-assignment to atoms done       ...    0.0 sec
Grid point division into batches done        ...    0.0 sec
Reduced shell lists constructed in    0.1 sec

Total number of grid points                  ...    42237
Total number of batches                      ...      706
Average number of points per batch           ...       59
Average number of grid points per atom       ...      469
Average number of shells per batch           ...   143.42 (29.57%)
Average number of basis functions per batch  ...   303.20 (27.74%)
Average number of large shells per batch     ...    88.19 (61.49%)
Average number of large basis fcns per batch ...   187.89 (61.97%)
Maximum spatial batch extension              ...  14.43,  9.17, 15.74 au
Average spatial batch extension              ...   0.51,  0.51,  0.60 au

Overlap Fitting                  UseSFitting ... on
Constructing numerical overlap ... done (      0.2 sec)
Inverting numerical overlap    ... done (      0.1 sec)
Obtaining analytic overlap     ... done (      0.0 sec)
Final contraction and storage  ... done (      0.3 sec)


General Integration Accuracy     IntAcc      ...  3.670
Radial Grid Type                 RadialGrid  ... Gauss-Chebyshev
Angular Grid (max. acc.)         AngularGrid ... Lebedev-50
Angular grid pruning method      GridPruning ... 3 (G Style)
Weight generation scheme         WeightScheme... Becke
Basis function cutoff            BFCut       ...    1.0000e-11
Integration weight cutoff        WCut        ...    1.0000e-14
Grids for H and He will be reduced by one unit

# of grid points (after initial pruning)     ...  58630 (   0.0 sec)
# of grid points (after weights+screening)   ...  52143 (   0.5 sec)
nearest neighbour list constructed           ...    0.0 sec
Grid point re-assignment to atoms done       ...    0.0 sec
Grid point division into batches done        ...    0.0 sec
Reduced shell lists constructed in    0.1 sec

Total number of grid points                  ...    52143
Total number of batches                      ...      864
Average number of points per batch           ...       60
Average number of grid points per atom       ...      579
Average number of shells per batch           ...   141.14 (29.10%)
Average number of basis functions per batch  ...   297.75 (27.24%)
Average number of large shells per batch     ...    86.46 (61.25%)
Average number of large basis fcns per batch ...   183.63 (61.67%)
Maximum spatial batch extension              ...  14.98, 10.36, 16.75 au
Average spatial batch extension              ...   0.47,  0.46,  0.53 au

Overlap Fitting                  UseSFitting ... on
Constructing numerical overlap ... done (      0.2 sec)
Inverting numerical overlap    ... done (      0.1 sec)
Obtaining analytic overlap     ... done (      0.0 sec)
Final contraction and storage  ... done (      0.3 sec)


General Integration Accuracy     IntAcc      ...  4.010
Radial Grid Type                 RadialGrid  ... Gauss-Chebyshev
Angular Grid (max. acc.)         AngularGrid ... Lebedev-110
Angular grid pruning method      GridPruning ... 3 (G Style)
Weight generation scheme         WeightScheme... Becke
Basis function cutoff            BFCut       ...    1.0000e-11
Integration weight cutoff        WCut        ...    1.0000e-14
Grids for H and He will be reduced by one unit

# of grid points (after initial pruning)     ... 116276 (   0.0 sec)
# of grid points (after weights+screening)   ... 102064 (   1.0 sec)
nearest neighbour list constructed           ...    0.0 sec
Grid point re-assignment to atoms done       ...    0.0 sec
Grid point division into batches done        ...    0.1 sec
Reduced shell lists constructed in    0.3 sec

Total number of grid points                  ...   102064
Total number of batches                      ...     1642
Average number of points per batch           ...       62
Average number of grid points per atom       ...     1134
Average number of shells per batch           ...   136.51 (28.15%)
Average number of basis functions per batch  ...   287.48 (26.30%)
Average number of large shells per batch     ...    85.00 (62.26%)
Average number of large basis fcns per batch ...   180.63 (62.83%)
Maximum spatial batch extension              ...  15.96, 15.53, 24.24 au
Average spatial batch extension              ...   0.40,  0.40,  0.44 au

Overlap Fitting                  UseSFitting ... on
Constructing numerical overlap ... done (      0.3 sec)
Inverting numerical overlap    ... done (      0.1 sec)
Obtaining analytic overlap     ... done (      0.0 sec)
Final contraction and storage  ... done (      0.3 sec)

Time for X-Grid setup             =    4.380 sec
--------------
SCF ITERATIONS
--------------
ITER       Energy         Delta-E        Max-DP      RMS-DP      [F,P]     Damp
               ***  Starting incremental Fock matrix formation  ***
  0  -6171.8070350748   0.000000000000 0.13105246  0.00101453  0.2192838 0.7000
  1  -6172.2731310038  -0.466095928930 0.06121644  0.00073198  0.0969704 0.7000
                               ***Turning on DIIS***
  2  -6172.4842924179  -0.211161414118 0.10620246  0.00134321  0.0356971 0.0000
  3  -6172.8166667983  -0.332374380368 0.12757728  0.00053508  0.0608670 0.0000
  4  -6172.8860606213  -0.069393823067 0.01556003  0.00014525  0.0160423 0.0000
  5  -6172.8898721957  -0.003811574394 0.01050873  0.00006996  0.0094339 0.0000
  6  -6172.8909008555  -0.001028659786 0.00415324  0.00003522  0.0029811 0.0000
                      *** Initiating the SOSCF procedure ***
                           *** Shutting down DIIS ***
                      *** Re-Reading the Fockian *** 
                      *** Removing any level shift *** 
ITER      Energy       Delta-E        Grad      Rot      Max-DP    RMS-DP
  7  -6172.89133997  -0.0004391155  0.002915  0.002915  0.001856  0.000026
               *** Restarting incremental Fock matrix formation ***
  8  -6172.89152510  -0.0001851268  0.002037  0.015082  0.001744  0.000032
  9  -6172.89169962  -0.0001745240  0.000601  0.013950  0.002170  0.000040
 10  -6172.89172011  -0.0000204885  0.000735  0.003998  0.001633  0.000016
 11  -6172.89175576  -0.0000356530  0.000124  0.001355  0.001057  0.000007
 12  -6172.89175616  -0.0000003991  0.000118  0.000459  0.000382  0.000003
 13  -6172.89175812  -0.0000019563  0.000047  0.000183  0.000213  0.000002
 14  -6172.89175804   0.0000000757  0.000055  0.000112  0.000159  0.000001
 15  -6172.89175831  -0.0000002646  0.000012  0.000043  0.000059  0.000001
 16  -6172.89175832  -0.0000000133  0.000009  0.000024  0.000032  0.000000
                  ***Gradient check signals convergence***
              ***Rediagonalizing the Fockian in SOSCF/NRSCF***

               *****************************************************
               *                     SUCCESS                       *
               *           SCF CONVERGED AFTER  17 CYCLES          *
               *****************************************************

Setting up the final grid:

General Integration Accuracy     IntAcc      ...  5.010
Radial Grid Type                 RadialGrid  ... Gauss-Chebyshev
Angular Grid (max. acc.)         AngularGrid ... Lebedev-434
Angular grid pruning method      GridPruning ... 3 (G Style)
Weight generation scheme         WeightScheme... Becke
Basis function cutoff            BFCut       ...    1.0000e-11
Integration weight cutoff        WCut        ...    1.0000e-14
Grids for H and He will be reduced by one unit

# of grid points (after initial pruning)     ... 885984 (   0.0 sec)
# of grid points (after weights+screening)   ... 751356 (   6.9 sec)
nearest neighbour list constructed           ...    0.0 sec
Grid point re-assignment to atoms done       ...    0.1 sec
Grid point division into batches done        ...    5.4 sec
Reduced shell lists constructed in    6.9 sec

Total number of grid points                  ...   751356
Total number of batches                      ...    11786
Average number of points per batch           ...       63
Average number of grid points per atom       ...     8348
Average number of shells per batch           ...   124.42 (25.65%)
Average number of basis functions per batch  ...   259.32 (23.73%)
Average number of large shells per batch     ...    76.17 (61.22%)
Average number of large basis fcns per batch ...   160.14 (61.75%)
Maximum spatial batch extension              ...  20.27, 19.77, 20.04 au
Average spatial batch extension              ...   0.20,  0.20,  0.20 au

Final grid set up in   14.2 sec
Final integration                            ... done (   2.9 sec)
Change in XC energy                          ...     0.000010597
Integrated number of electrons               ...   514.000004367
Previous integrated no of electrons          ...   513.999316761
Old exchange energy                            =   -141.395580184 Eh
New exchange energy                            =   -141.393379476 Eh
Exchange energy change after final integration =      0.002200709 Eh
Total energy after final integration           =  -6172.889547027 Eh
Final COS-X integration done in                =    56.114 sec

----------------
TOTAL SCF ENERGY
----------------

Total Energy       :        -6172.88954703 Eh         -167972.86415 eV

Components:
Nuclear Repulsion  :        11306.59497221 Eh          307668.09074 eV
Electronic Energy  :       -17479.48451924 Eh         -475640.95489 eV
One Electron Energy:       -31047.69853380 Eh         -844850.82849 eV
Two Electron Energy:        13568.21401456 Eh          369209.87360 eV

Virial components:
Potential Energy   :       -12313.86870214 Eh         -335077.40239 eV
Kinetic Energy     :         6140.97915511 Eh          167104.53824 eV
Virial Ratio       :            2.00519630


DFT components:
N(Alpha)           :      257.000002183663 electrons
N(Beta)            :      257.000002183663 electrons
N(Total)           :      514.000004367327 electrons
E(XC)              :     -408.891387827545 Eh       
DFET-embed. en.    :        0.000000000000 Eh       

---------------
SCF CONVERGENCE
---------------

  Last Energy change         ...   -1.1867e-08  Tolerance :   1.0000e-08
  Last MAX-Density change    ...    9.3259e-15  Tolerance :   1.0000e-07
  Last RMS-Density change    ...    4.3179e-17  Tolerance :   5.0000e-09
  Last Orbital Gradient      ...    2.4849e-06  Tolerance :   1.0000e-05
  Last Orbital Rotation      ...    1.5488e-05  Tolerance :   1.0000e-05

             **** THE GBW FILE WAS UPDATED (xtbopt.gbw) ****
             **** DENSITY FILE WAS UPDATED (xtbopt.scfp) ****
             **** ENERGY FILE WAS UPDATED (xtbopt.en.tmp) ****
             **** THE GBW FILE WAS UPDATED (xtbopt.gbw) ****
             **** DENSITY FILE WAS UPDATED (xtbopt.scfp) ****
----------------
ORBITAL ENERGIES
----------------

  NO   OCC          E(Eh)            E(eV) 
   0   2.0000    -453.981054    -12353.4525 
   1   2.0000     -88.959871     -2420.7212 
   2   2.0000     -58.194946     -1583.5650 
   3   2.0000     -52.265625     -1422.2199 
   4   2.0000     -52.263312     -1422.1570 
   5   2.0000     -52.262783     -1422.1426 
   6   2.0000     -24.818431      -675.3438 
   7   2.0000     -24.816343      -675.2870 
   8   2.0000     -24.813080      -675.1982 
   9   2.0000     -24.812842      -675.1918 
  10   2.0000     -24.812667      -675.1870 
  11   2.0000     -24.808276      -675.0675 
  12   2.0000     -24.807605      -675.0492 
  13   2.0000     -24.802116      -674.8999 
  14   2.0000     -24.801935      -674.8950 
  15   2.0000     -24.801584      -674.8854 
  16   2.0000     -19.242150      -523.6055 
  17   2.0000     -19.241791      -523.5957 
  18   2.0000     -19.200276      -522.4661 
  19   2.0000     -14.473756      -393.8509 
  20   2.0000     -14.438492      -392.8913 
  21   2.0000     -14.434884      -392.7932 
  22   2.0000     -14.403006      -391.9257 
  23   2.0000     -14.397723      -391.7820 
  24   2.0000     -10.401484      -283.0388 
  25   2.0000     -10.396928      -282.9148 
  26   2.0000     -10.396319      -282.8982 
  27   2.0000     -10.394590      -282.8512 
  28   2.0000     -10.394303      -282.8434 
  29   2.0000     -10.387315      -282.6532 
  30   2.0000     -10.382278      -282.5161 
  31   2.0000     -10.382119      -282.5118 
  32   2.0000     -10.380694      -282.4730 
  33   2.0000     -10.380494      -282.4676 
  34   2.0000     -10.361397      -281.9479 
  35   2.0000     -10.338471      -281.3241 
  36   2.0000     -10.331908      -281.1455 
  37   2.0000     -10.330859      -281.1170 
  38   2.0000     -10.328736      -281.0592 
  39   2.0000     -10.327877      -281.0358 
  40   2.0000     -10.327230      -281.0182 
  41   2.0000     -10.323983      -280.9299 
  42   2.0000     -10.321177      -280.8535 
  43   2.0000     -10.319256      -280.8012 
  44   2.0000     -10.318403      -280.7780 
  45   2.0000     -10.317348      -280.7493 
  46   2.0000     -10.316830      -280.7352 
  47   2.0000     -10.316551      -280.7276 
  48   2.0000     -10.315254      -280.6923 
  49   2.0000     -10.315184      -280.6904 
  50   2.0000     -10.314345      -280.6676 
  51   2.0000     -10.313841      -280.6539 
  52   2.0000     -10.305140      -280.4171 
  53   2.0000     -10.298412      -280.2341 
  54   2.0000     -10.297258      -280.2026 
  55   2.0000     -10.296642      -280.1859 
  56   2.0000     -10.295180      -280.1461 
  57   2.0000     -10.293276      -280.0943 
  58   2.0000     -10.286324      -279.9051 
  59   2.0000     -10.284820      -279.8642 
  60   2.0000     -10.283173      -279.8194 
  61   2.0000     -10.281768      -279.7811 
  62   2.0000     -10.281375      -279.7704 
  63   2.0000     -10.280117      -279.7362 
  64   2.0000     -10.280007      -279.7332 
  65   2.0000     -10.274797      -279.5914 
  66   2.0000     -10.273875      -279.5664 
  67   2.0000     -10.271274      -279.4956 
  68   2.0000     -10.267838      -279.4021 
  69   2.0000     -10.265233      -279.3312 
  70   2.0000     -10.260270      -279.1961 
  71   2.0000     -10.259610      -279.1782 
  72   2.0000     -10.256841      -279.1028 
  73   2.0000      -8.055105      -219.1905 
  74   2.0000      -7.970818      -216.8970 
  75   2.0000      -6.024460      -163.9339 
  76   2.0000      -6.020118      -163.8157 
  77   2.0000      -6.017394      -163.7416 
  78   2.0000      -5.921015      -161.1190 
  79   2.0000      -5.914351      -160.9377 
  80   2.0000      -5.910592      -160.8354 
  81   2.0000      -2.275087       -61.9083 
  82   2.0000      -2.274538       -61.8933 
  83   2.0000      -2.269989       -61.7695 
  84   2.0000      -2.264870       -61.6302 
  85   2.0000      -2.264692       -61.6254 
  86   2.0000      -1.345280       -36.6069 
  87   2.0000      -1.337733       -36.4016 
  88   2.0000      -1.333694       -36.2917 
  89   2.0000      -1.332301       -36.2538 
  90   2.0000      -1.326895       -36.1066 
  91   2.0000      -1.322258       -35.9805 
  92   2.0000      -1.321316       -35.9548 
  93   2.0000      -1.318350       -35.8741 
  94   2.0000      -1.311234       -35.6805 
  95   2.0000      -1.306948       -35.5639 
  96   2.0000      -1.147835       -31.2342 
  97   2.0000      -1.145644       -31.1746 
  98   2.0000      -1.115170       -30.3453 
  99   2.0000      -1.093464       -29.7547 
 100   2.0000      -1.092978       -29.7415 
 101   2.0000      -1.070530       -29.1306 
 102   2.0000      -1.051484       -28.6123 
 103   2.0000      -1.009071       -27.4582 
 104   2.0000      -0.997804       -27.1516 
 105   2.0000      -0.984685       -26.7946 
 106   2.0000      -0.972357       -26.4592 
 107   2.0000      -0.964574       -26.2474 
 108   2.0000      -0.947244       -25.7758 
 109   2.0000      -0.941515       -25.6199 
 110   2.0000      -0.926282       -25.2054 
 111   2.0000      -0.899292       -24.4710 
 112   2.0000      -0.897592       -24.4247 
 113   2.0000      -0.888474       -24.1766 
 114   2.0000      -0.881191       -23.9784 
 115   2.0000      -0.872066       -23.7301 
 116   2.0000      -0.869124       -23.6501 
 117   2.0000      -0.868011       -23.6198 
 118   2.0000      -0.858744       -23.3676 
 119   2.0000      -0.851356       -23.1666 
 120   2.0000      -0.851084       -23.1592 
 121   2.0000      -0.847841       -23.0709 
 122   2.0000      -0.844948       -22.9922 
 123   2.0000      -0.829600       -22.5746 
 124   2.0000      -0.823997       -22.4221 
 125   2.0000      -0.814222       -22.1561 
 126   2.0000      -0.799481       -21.7550 
 127   2.0000      -0.782511       -21.2932 
 128   2.0000      -0.777237       -21.1497 
 129   2.0000      -0.771667       -20.9981 
 130   2.0000      -0.770348       -20.9622 
 131   2.0000      -0.755585       -20.5605 
 132   2.0000      -0.748337       -20.3633 
 133   2.0000      -0.746357       -20.3094 
 134   2.0000      -0.742304       -20.1991 
 135   2.0000      -0.738164       -20.0865 
 136   2.0000      -0.723542       -19.6886 
 137   2.0000      -0.712047       -19.3758 
 138   2.0000      -0.698722       -19.0132 
 139   2.0000      -0.695396       -18.9227 
 140   2.0000      -0.694347       -18.8942 
 141   2.0000      -0.692423       -18.8418 
 142   2.0000      -0.689271       -18.7560 
 143   2.0000      -0.681598       -18.5472 
 144   2.0000      -0.680235       -18.5101 
 145   2.0000      -0.678444       -18.4614 
 146   2.0000      -0.675372       -18.3778 
 147   2.0000      -0.672586       -18.3020 
 148   2.0000      -0.666552       -18.1378 
 149   2.0000      -0.663417       -18.0525 
 150   2.0000      -0.656343       -17.8600 
 151   2.0000      -0.651381       -17.7250 
 152   2.0000      -0.641356       -17.4522 
 153   2.0000      -0.636583       -17.3223 
 154   2.0000      -0.634742       -17.2722 
 155   2.0000      -0.633531       -17.2392 
 156   2.0000      -0.625974       -17.0336 
 157   2.0000      -0.624697       -16.9989 
 158   2.0000      -0.622848       -16.9486 
 159   2.0000      -0.620807       -16.8930 
 160   2.0000      -0.620094       -16.8736 
 161   2.0000      -0.613009       -16.6808 
 162   2.0000      -0.610902       -16.6235 
 163   2.0000      -0.605444       -16.4750 
 164   2.0000      -0.604854       -16.4589 
 165   2.0000      -0.597518       -16.2593 
 166   2.0000      -0.590616       -16.0715 
 167   2.0000      -0.588287       -16.0081 
 168   2.0000      -0.587892       -15.9974 
 169   2.0000      -0.582711       -15.8564 
 170   2.0000      -0.582044       -15.8382 
 171   2.0000      -0.580117       -15.7858 
 172   2.0000      -0.577688       -15.7197 
 173   2.0000      -0.574973       -15.6458 
 174   2.0000      -0.570799       -15.5322 
 175   2.0000      -0.566958       -15.4277 
 176   2.0000      -0.562862       -15.3162 
 177   2.0000      -0.561085       -15.2679 
 178   2.0000      -0.559538       -15.2258 
 179   2.0000      -0.555204       -15.1079 
 180   2.0000      -0.554194       -15.0804 
 181   2.0000      -0.552765       -15.0415 
 182   2.0000      -0.552131       -15.0242 
 183   2.0000      -0.548842       -14.9348 
 184   2.0000      -0.547508       -14.8985 
 185   2.0000      -0.545035       -14.8312 
 186   2.0000      -0.542252       -14.7554 
 187   2.0000      -0.541937       -14.7469 
 188   2.0000      -0.536188       -14.5904 
 189   2.0000      -0.534875       -14.5547 
 190   2.0000      -0.533052       -14.5051 
 191   2.0000      -0.530949       -14.4479 
 192   2.0000      -0.529088       -14.3972 
 193   2.0000      -0.524816       -14.2810 
 194   2.0000      -0.519495       -14.1362 
 195   2.0000      -0.517374       -14.0785 
 196   2.0000      -0.517074       -14.0703 
 197   2.0000      -0.514815       -14.0088 
 198   2.0000      -0.509584       -13.8665 
 199   2.0000      -0.505184       -13.7468 
 200   2.0000      -0.501059       -13.6345 
 201   2.0000      -0.499539       -13.5931 
 202   2.0000      -0.498614       -13.5680 
 203   2.0000      -0.492645       -13.4055 
 204   2.0000      -0.492179       -13.3929 
 205   2.0000      -0.490087       -13.3359 
 206   2.0000      -0.488971       -13.3056 
 207   2.0000      -0.486274       -13.2322 
 208   2.0000      -0.485182       -13.2025 
 209   2.0000      -0.478982       -13.0338 
 210   2.0000      -0.476343       -12.9620 
 211   2.0000      -0.472909       -12.8685 
 212   2.0000      -0.470809       -12.8114 
 213   2.0000      -0.470384       -12.7998 
 214   2.0000      -0.467442       -12.7197 
 215   2.0000      -0.463637       -12.6162 
 216   2.0000      -0.463308       -12.6072 
 217   2.0000      -0.461752       -12.5649 
 218   2.0000      -0.461477       -12.5574 
 219   2.0000      -0.457892       -12.4599 
 220   2.0000      -0.456447       -12.4206 
 221   2.0000      -0.453113       -12.3298 
 222   2.0000      -0.452161       -12.3039 
 223   2.0000      -0.449862       -12.2414 
 224   2.0000      -0.443785       -12.0760 
 225   2.0000      -0.435696       -11.8559 
 226   2.0000      -0.431399       -11.7390 
 227   2.0000      -0.420756       -11.4494 
 228   2.0000      -0.419557       -11.4167 
 229   2.0000      -0.418091       -11.3768 
 230   2.0000      -0.406561       -11.0631 
 231   2.0000      -0.403596       -10.9824 
 232   2.0000      -0.400615       -10.9013 
 233   2.0000      -0.397732       -10.8228 
 234   2.0000      -0.384256       -10.4561 
 235   2.0000      -0.379589       -10.3291 
 236   2.0000      -0.376035       -10.2324 
 237   2.0000      -0.362841        -9.8734 
 238   2.0000      -0.352448        -9.5906 
 239   2.0000      -0.351281        -9.5588 
 240   2.0000      -0.346500        -9.4287 
 241   2.0000      -0.345803        -9.4098 
 242   2.0000      -0.341300        -9.2872 
 243   2.0000      -0.339942        -9.2503 
 244   2.0000      -0.335836        -9.1386 
 245   2.0000      -0.330063        -8.9815 
 246   2.0000      -0.329836        -8.9753 
 247   2.0000      -0.325874        -8.8675 
 248   2.0000      -0.322984        -8.7889 
 249   2.0000      -0.322336        -8.7712 
 250   2.0000      -0.319663        -8.6985 
 251   2.0000      -0.312419        -8.5014 
 252   2.0000      -0.292884        -7.9698 
 253   2.0000      -0.288227        -7.8431 
 254   2.0000      -0.283688        -7.7195 
 255   2.0000      -0.276391        -7.5210 
 256   2.0000      -0.242535        -6.5997 
 257   0.0000      -0.107548        -2.9265 
 258   0.0000      -0.071677        -1.9504 
 259   0.0000      -0.057338        -1.5602 
 260   0.0000      -0.034330        -0.9342 
 261   0.0000      -0.008016        -0.2181 
 262   0.0000       0.003228         0.0878 
 263   0.0000       0.006953         0.1892 
 264   0.0000       0.007796         0.2121 
 265   0.0000       0.013931         0.3791 
 266   0.0000       0.021096         0.5740 
 267   0.0000       0.030910         0.8411 
 268   0.0000       0.037463         1.0194 
 269   0.0000       0.045076         1.2266 
 270   0.0000       0.045541         1.2392 
 271   0.0000       0.054338         1.4786 
 272   0.0000       0.055619         1.5135 
 273   0.0000       0.059298         1.6136 
 274   0.0000       0.066750         1.8164 
 275   0.0000       0.075836         2.0636 
 276   0.0000       0.085106         2.3159 
 277   0.0000       0.093907         2.5553 
 278   0.0000       0.100558         2.7363 
 279   0.0000       0.106024         2.8851 
 280   0.0000       0.107848         2.9347 
 281   0.0000       0.110155         2.9975 
 282   0.0000       0.114951         3.1280 
 283   0.0000       0.120711         3.2847 
 284   0.0000       0.123850         3.3701 
 285   0.0000       0.125932         3.4268 
 286   0.0000       0.128294         3.4910 
 287   0.0000       0.134694         3.6652 
 288   0.0000       0.135428         3.6852 
 289   0.0000       0.140711         3.8290 
 290   0.0000       0.142818         3.8863 
 291   0.0000       0.146946         3.9986 
 292   0.0000       0.147380         4.0104 
 293   0.0000       0.149583         4.0704 
 294   0.0000       0.155185         4.2228 
 295   0.0000       0.161475         4.3940 
 296   0.0000       0.163559         4.4507 
 297   0.0000       0.164690         4.4814 
 298   0.0000       0.166812         4.5392 
 299   0.0000       0.172103         4.6832 
 300   0.0000       0.173235         4.7140 
 301   0.0000       0.174355         4.7444 
 302   0.0000       0.177705         4.8356 
 303   0.0000       0.178393         4.8543 
 304   0.0000       0.179791         4.8924 
 305   0.0000       0.183636         4.9970 
 306   0.0000       0.186084         5.0636 
 307   0.0000       0.187295         5.0966 
 308   0.0000       0.190834         5.1929 
 309   0.0000       0.196588         5.3494 
 310   0.0000       0.199982         5.4418 
 311   0.0000       0.201313         5.4780 
 312   0.0000       0.202800         5.5185 
 313   0.0000       0.207985         5.6596 
 314   0.0000       0.209143         5.6911 
 315   0.0000       0.213014         5.7964 
 316   0.0000       0.222222         6.0470 
 317   0.0000       0.224809         6.1174 
 318   0.0000       0.233185         6.3453 
 319   0.0000       0.239279         6.5111 
 320   0.0000       0.246449         6.7062 
 321   0.0000       0.249631         6.7928 
 322   0.0000       0.260915         7.0999 
 323   0.0000       0.265758         7.2317 
 324   0.0000       0.266243         7.2448 
 325   0.0000       0.266909         7.2630 
 326   0.0000       0.268090         7.2951 
 327   0.0000       0.275912         7.5079 
 328   0.0000       0.276643         7.5278 
 329   0.0000       0.278338         7.5740 
 330   0.0000       0.282201         7.6791 
 331   0.0000       0.287529         7.8241 
 332   0.0000       0.287690         7.8284 
 333   0.0000       0.289548         7.8790 
 334   0.0000       0.293330         7.9819 
 335   0.0000       0.299119         8.1394 
 336   0.0000       0.300422         8.1749 
 337   0.0000       0.304740         8.2924 
 338   0.0000       0.305895         8.3238 
 339   0.0000       0.309867         8.4319 
 340   0.0000       0.311928         8.4880 
 341   0.0000       0.315715         8.5910 
 342   0.0000       0.321096         8.7375 
 343   0.0000       0.322559         8.7773 
 344   0.0000       0.323938         8.8148 
 345   0.0000       0.328321         8.9341 
 346   0.0000       0.329308         8.9609 
 347   0.0000       0.333422         9.0729 
 348   0.0000       0.340259         9.2589 
 349   0.0000       0.342661         9.3243 
[...]
  23      4.45     278.5    85 ->  90      gap,J,K:    6.159     2.084     0.188
  24      4.62     268.6    84 ->  89      gap,J,K:    5.893     1.364     0.043

average / max PT2 energy lowering (eV):       0.029       0.080

CSF included by PT:                   307 
total number of CSF included:         344 
 
sTD-DFT procedure...
setting up A+B and A-B matrices...  done
estimated time (min):    0.002
calculating (A-B)^0.5 ... done
calculating (A+B)*(A-B)^0.5 ... done
calculating (A-B)^0.5 *(A+B)*(A-B)^0.5 ... done
diagonalizing ...using LAPACKE_ssyevr ...done

   43 roots found, lowest/highest eigenvalue :     2.021     4.981

excitation energies, transition moments and amplitudes

molecular weight: 1028.739
state   eV        nm        fL         fV        Rl        RV
   0   2.021     613.5   1.302247   1.562126  -111.670589  -97.074461     0.85 (  87->  88)    0.05 (  87->  89)    0.05 (  85->  88)
   1   2.516     492.8   0.123514   0.131029   1.977075  -22.304527     0.82 (  83->  88)    0.07 (  87->  89)    0.03 (  82->  88)
   2   2.743     451.9   0.009747   0.010162  -24.688708  -20.065138     0.70 (  81->  88)    0.09 (  81->  89)    0.07 (  87->  89)
   3   2.862     433.3   0.080965   0.090080  -18.441426  -15.135263     0.63 (  87->  89)    0.10 (  87->  90)    0.08 (  81->  88)
   4   2.991     414.6   0.213601   0.213339  35.199335  23.459232     0.84 (  87->  90)    0.06 (  87->  89)    0.02 (  85->  89)
   5   3.166     391.6   0.103260   0.109850  -44.587813  -31.505032     0.44 (  85->  88)    0.08 (  86->  88)    0.06 (  71->  88)
   6   3.265     379.7   0.011215   0.009762   5.531327   4.573091     0.78 (  78->  88)    0.07 (  78->  89)    0.04 (  85->  88)
   7   3.294     376.4   0.020535   0.020681  -4.569864  -2.910990     0.29 (  72->  88)    0.23 (  71->  88)    0.10 (  69->  88)
   8   3.408     363.8   0.005086   0.004749   0.960496   3.330044     0.31 (  86->  88)    0.29 (  86->  90)    0.16 (  86->  89)
   9   3.431     361.4   0.003742   0.004883  -20.203203  -21.080325     0.39 (  72->  88)    0.12 (  74->  88)    0.10 (  69->  88)
  10   3.509     353.3   0.046503   0.041016  61.486652  56.117435     0.57 (  83->  89)    0.09 (  69->  88)    0.07 (  83->  90)
  11   3.656     339.1   0.044908   0.038768  20.260667  18.048692     0.36 (  84->  88)    0.30 (  84->  90)    0.17 (  84->  89)
  12   3.831     323.6   0.006919   0.005974   1.605766   1.649773     0.48 (  86->  88)    0.35 (  86->  90)    0.07 (  86->  89)
  13   3.853     321.8   0.005842   0.004924  -8.391454  -9.371588     0.77 (  81->  91)    0.03 (  87->  91)    0.03 (  72->  91)
  14   3.869     320.5   0.035666   0.032412  -73.897586  -72.544927     0.21 (  76->  88)    0.21 (  71->  88)    0.14 (  83->  89)
  15   3.902     317.8   0.039465   0.034620  59.760846  54.932822     0.37 (  76->  88)    0.14 (  82->  88)    0.06 (  71->  88)
  16   3.915     316.7   0.046325   0.043721   9.333272  11.641851     0.49 (  85->  89)    0.07 (  84->  89)    0.07 (  82->  88)
  17   4.004     309.7   0.121380   0.104132  32.031633  32.421381     0.27 (  82->  88)    0.08 (  77->  88)    0.08 (  69->  88)
  18   4.067     304.8   0.072136   0.065456  50.772545  48.410006     0.27 (  85->  90)    0.22 (  84->  88)    0.14 (  87->  92)
  19   4.092     303.0   0.132981   0.120035   2.963656   2.756149     0.23 (  84->  88)    0.23 (  87->  91)    0.19 (  84->  90)
  20   4.160     298.1   0.140872   0.122921  -91.185983  -98.397323     0.36 (  87->  91)    0.20 (  87->  92)    0.08 (  85->  91)
  21   4.201     295.2   0.043830   0.040148  53.310562  49.006994     0.25 (  87->  92)    0.19 (  74->  88)    0.08 (  82->  89)
  22   4.284     289.4   0.108412   0.103433  73.507809  70.849324     0.15 (  85->  90)    0.12 (  82->  88)    0.08 (  87->  92)
  23   4.412     281.0   0.109291   0.097263  -176.731850  -166.422679     0.19 (  83->  91)    0.17 (  87->  93)    0.10 (  79->  88)
  24   4.433     279.7   0.038750   0.037529  15.224021  24.205410     0.17 (  83->  91)    0.17 (  79->  88)    0.11 (  79->  90)
  25   4.442     279.1   0.020936   0.018224  104.318561  90.089527     0.22 (  87->  93)    0.15 (  87->  94)    0.14 (  87->  95)
  26   4.475     277.1   0.089649   0.078966  -33.102933  -29.502214     0.34 (  87->  93)    0.22 (  87->  94)    0.05 (  68->  88)
  27   4.499     275.6   0.016608   0.014820  -6.233570  -6.516811     0.43 (  68->  88)    0.12 (  68->  89)    0.06 (  87->  94)
  28   4.553     272.3   0.091704   0.072011  155.922054  141.636169     0.24 (  80->  88)    0.14 (  87->  94)    0.11 (  80->  90)
  29   4.611     268.9   0.151350   0.127399  97.142860  78.822569     0.27 (  87->  95)    0.15 (  87->  94)    0.05 (  86->  89)
  30   4.632     267.7   0.093445   0.080888  -28.929850  -27.065823     0.38 (  86->  89)    0.13 (  86->  90)    0.07 (  81->  89)
  31   4.645     266.9   0.021299   0.017848  -22.001501  -17.564672     0.32 (  81->  89)    0.06 (  75->  88)    0.06 (  73->  88)
  32   4.652     266.5   0.027498   0.023791  -1.187774  -0.456578     0.19 (  86->  89)    0.12 (  75->  88)    0.09 (  81->  89)
  33   4.711     263.2   0.190151   0.161176  121.732995  95.519600     0.18 (  87->  96)    0.16 (  83->  91)    0.09 (  71->  88)
  34   4.767     260.1   0.043359   0.031866  204.894164  172.776255     0.14 (  82->  89)    0.13 (  87->  96)    0.07 (  85->  90)
  35   4.792     258.7   0.021514   0.017809  118.119466  108.793489     0.14 (  74->  89)    0.11 (  82->  89)    0.08 (  76->  89)
  36   4.817     257.4   0.010051   0.008694  -15.889519  -8.452416     0.30 (  75->  88)    0.11 (  75->  89)    0.10 (  75->  90)
  37   4.883     253.9   0.219869   0.174401  -360.593904  -336.402519     0.14 (  77->  89)    0.12 (  84->  89)    0.12 (  76->  89)
  38   4.900     253.0   0.149693   0.118222  -39.070100  -29.843087     0.33 (  84->  89)    0.19 (  76->  89)    0.10 (  84->  90)
  39   4.926     251.7   0.051995   0.042505  29.135082  25.284283     0.20 (  80->  88)    0.15 (  84->  89)    0.12 (  80->  90)
  40   4.938     251.1   0.021409   0.019918  -156.102983  -141.662854     0.11 (  87->  96)    0.09 (  73->  88)    0.09 (  76->  89)
  41   4.957     250.1   0.027234   0.018889   3.682354  10.716542     0.26 (  79->  88)    0.19 (  79->  90)    0.10 (  80->  90)
  42   4.981     248.9   0.034079   0.029990  88.353906  69.977775     0.12 (  65->  88)    0.11 (  64->  88)    0.07 (  73->  88)

-----------------------------------------------------------------------------
         ABSORPTION SPECTRUM VIA TRANSITION ELECTRIC DIPOLE MOMENTS
-----------------------------------------------------------------------------
State   Energy  Wavelength   fosc         T2         TX        TY        TZ  
        (cm-1)    (nm)                  (au**2)     (au)      (au)      (au) 
-----------------------------------------------------------------------------
   0   16300.8    613.5   1.302246511  26.30032   1.33070  -4.58808  -1.86523
   1   20291.8    492.8   0.123513958   2.00388   0.41927  -1.16372  -0.68836
   2   22127.0    451.9   0.009747092   0.14502   0.04623  -0.37440   0.05201
   3   23080.4    433.3   0.080965063   1.15486   0.41566  -0.98780  -0.07957
   4   24121.9    414.6   0.213600818   2.91519   0.37098  -1.37587  -0.94050
   5   25538.1    391.6   0.103260312   1.33113  -0.25267   0.85154   0.73632
   6   26336.5    379.7   0.011214687   0.14019  -0.10588   0.34808   0.08839
   7   26564.0    376.4   0.020535018   0.25449  -0.06269   0.41739   0.27631
   8   27487.8    363.8   0.005085584   0.06091  -0.03933  -0.21843  -0.10793
   9   27670.9    361.4   0.003742338   0.04452  -0.09554  -0.18257   0.04543
  10   28301.3    353.3   0.046502843   0.54094  -0.27956   0.57990   0.35567
  11   29489.1    339.1   0.044908481   0.50135   0.21106  -0.38968  -0.55223
  12   30900.6    323.6   0.006919470   0.07372  -0.03439  -0.15276  -0.22181
  13   31078.0    321.8   0.005842072   0.06189   0.00744  -0.22419  -0.10755
  14   31202.3    320.5   0.035665762   0.37631   0.28682   0.13579   0.52497
  15   31470.4    317.8   0.039464934   0.41284   0.33573   0.24897   0.48799
  16   31577.4    316.7   0.046325448   0.48297   0.26539  -0.54187  -0.34483
  17   32291.6    309.7   0.121379879   1.23747  -0.41351   0.98234   0.31856
  18   32803.5    304.8   0.072135614   0.72394   0.45124   0.63318   0.34556
  19   33002.3    303.0   0.132980517   1.32654   0.15700  -1.03683  -0.47630
  20   33551.1    298.1   0.140871884   1.38227  -0.34001  -0.47157  -1.02190
  21   33879.8    295.2   0.043829887   0.42590  -0.02136   0.62871  -0.17369
  22   34550.3    289.4   0.108412036   1.03300   0.48687  -0.79778  -0.39938
  23   35581.8    281.0   0.109291341   1.01119   0.16194   0.86901   0.47936
  24   35752.6    279.7   0.038750408   0.35682   0.14964  -0.13989  -0.56112
  25   35826.8    279.1   0.020935510   0.19238   0.40196   0.16958  -0.04525
  26   36090.0    277.1   0.089649266   0.81778  -0.03024  -0.77591  -0.46350
  27   36288.6    275.6   0.016607585   0.15066  -0.25004  -0.28342  -0.08842
  28   36719.2    272.3   0.091704251   0.82219   0.67541  -0.13697  -0.58928
  29   37193.0    268.9   0.151350216   1.33967   0.38230  -1.09053   0.06532
  30   37361.7    267.7   0.093444811   0.82339  -0.17037   0.79543   0.40207
  31   37468.2    266.9   0.021299059   0.18714  -0.05100  -0.30854  -0.29891
  32   37521.8    266.5   0.027497761   0.24126  -0.02621   0.30566   0.38360
  33   37994.3    263.2   0.190150707   1.64761   0.23585  -0.57701  -1.12207
  34   38452.4    260.1   0.043358818   0.37122  -0.34476  -0.03535   0.50111
  35   38652.9    258.7   0.021513959   0.18324   0.17664   0.35360  -0.16431
  36   38853.3    257.4   0.010050524   0.08516  -0.12357   0.11398  -0.23854
  37   39388.0    253.9   0.219869352   1.83771  -1.27597  -0.35563  -0.28832
  38   39519.2    253.0   0.149693085   1.24701   0.64867   0.58211   0.69812
  39   39729.3    251.7   0.051995334   0.43085   0.07114  -0.44193  -0.48009
  40   39826.0    251.1   0.021408874   0.17697   0.26046   0.02601   0.32932
  41   39984.0    250.1   0.027234341   0.22424   0.30381  -0.13191   0.33843
  42   40175.9    248.9   0.034079445   0.27926   0.52264  -0.07811  -0.00249

-----------------------------------------------------------------------------
         ABSORPTION SPECTRUM VIA TRANSITION VELOCITY DIPOLE MOMENTS
-----------------------------------------------------------------------------
State   Energy  Wavelength   fosc         P2         PX        PY        PZ  
        (cm-1)    (nm)                  (au**2)     (au)      (au)      (au) 
-----------------------------------------------------------------------------
   0   16300.8    613.5   1.562126223   0.17403   0.11152  -0.37356  -0.14849
   1   20291.8    492.8   0.131029419   0.01817   0.03507  -0.10740  -0.07354
   2   22127.0    451.9   0.010161907   0.00154   0.00148  -0.03855   0.00699
   3   23080.4    433.3   0.090080461   0.01421   0.04394  -0.11044  -0.00899
   4   24121.9    414.6   0.213339093   0.03517   0.03686  -0.15122  -0.10462
   5   25538.1    391.6   0.109849771   0.01917  -0.03367   0.10520   0.08350
   6   26336.5    379.7   0.009762380   0.00176  -0.00793   0.03740   0.01719
   7   26564.0    376.4   0.020680659   0.00375  -0.00945   0.05037   0.03359
   8   27487.8    363.8   0.004749144   0.00089  -0.00820  -0.02532  -0.01355
   9   27670.9    361.4   0.004882553   0.00092  -0.01539  -0.02555   0.00580
  10   28301.3    353.3   0.041016063   0.00793  -0.03283   0.07095   0.04269
  11   29489.1    339.1   0.038768450   0.00781   0.02763  -0.04974  -0.06765
  12   30900.6    323.6   0.005974353   0.00126  -0.00536  -0.01767  -0.03035
  13   31078.0    321.8   0.004924482   0.00105   0.00130  -0.02978  -0.01254
  14   31202.3    320.5   0.032411784   0.00691   0.03900   0.01974   0.07072
  15   31470.4    317.8   0.034620134   0.00745   0.04772   0.02864   0.06594
  16   31577.4    316.7   0.043721370   0.00944   0.03797  -0.07650  -0.04629
  17   32291.6    309.7   0.104132344   0.02298  -0.05640   0.13423   0.04223
  18   32803.5    304.8   0.065455695   0.01467   0.06474   0.08966   0.04944
  19   33002.3    303.0   0.120034985   0.02707   0.02261  -0.14832  -0.06757
  20   33551.1    298.1   0.122921092   0.02819  -0.04943  -0.07119  -0.14379
  21   33879.8    295.2   0.040148276   0.00930  -0.00339   0.09374  -0.02232
  22   34550.3    289.4   0.103433355   0.02442   0.07387  -0.12375  -0.06044
  23   35581.8    281.0   0.097263468   0.02365   0.02477   0.13208   0.07480
  24   35752.6    279.7   0.037528806   0.00917   0.02720  -0.02648  -0.08792
  25   35826.8    279.1   0.018224213   0.00446   0.06040   0.02560  -0.01258
  26   36090.0    277.1   0.078965779   0.01948  -0.00450  -0.11808  -0.07426
  27   36288.6    275.6   0.014819636   0.00368  -0.03980  -0.04347  -0.01418
  28   36719.2    272.3   0.072010830   0.01807   0.10173  -0.02060  -0.08543
  29   37193.0    268.9   0.127398574   0.03238   0.06107  -0.16921   0.00469
  30   37361.7    267.7   0.080888307   0.02065  -0.02698   0.12552   0.06459
  31   37468.2    266.9   0.017847720   0.00457  -0.00725  -0.04687  -0.04818
  32   37521.8    266.5   0.023791237   0.00610  -0.00423   0.04774   0.06168
  33   37994.3    263.2   0.161176231   0.04185   0.03569  -0.09549  -0.17737
  34   38452.4    260.1   0.031866014   0.00837  -0.04975  -0.00856   0.07633
  35   38652.9    258.7   0.017808773   0.00470   0.02777   0.05518  -0.02980
  36   38853.3    257.4   0.008694284   0.00231  -0.01821   0.02050  -0.03946
  37   39388.0    253.9   0.174400808   0.04695  -0.20537  -0.05480  -0.04207
  38   39519.2    253.0   0.118221553   0.03193   0.09963   0.09750   0.11179
  39   39729.3    251.7   0.042505456   0.01154   0.01508  -0.07381  -0.07659
  40   39826.0    251.1   0.019918372   0.00542   0.04240  -0.00244   0.06015
  41   39984.0    250.1   0.018889091   0.00516   0.04149  -0.01519   0.05665
  42   40175.9    248.9   0.029990363   0.00823   0.08987  -0.00794  -0.00979

-------------------------------------------------------------------
                             CD SPECTRUM
-------------------------------------------------------------------
State   Energy Wavelength       R         MX        MY        MZ   
        (cm-1)   (nm)       (1e40*cgs)   (au)      (au)      (au)  
-------------------------------------------------------------------
   0   16300.8    613.5    -111.67059  -1.11553   0.10946  -1.31908
   1   20291.8    492.8      1.97708  -1.40508  -0.23756  -0.44202
   2   22127.0    451.9    -24.68871   0.68503  -0.19135   0.02733
   3   23080.4    433.3    -18.44143   0.79684   0.27663  -0.25475
   4   24121.9    414.6     35.19933  -1.51482  -0.54213   0.35435
   5   25538.1    391.6    -44.58781   1.49829   0.18712   0.55463
   6   26336.5    379.7      5.53133  -0.47116  -0.27081   0.23661
   7   26564.0    376.4     -4.56986   0.46972   0.00907   0.16303
   8   27487.8    363.8      0.96050   0.30446  -0.12537   0.18055
   9   27670.9    361.4    -20.20320   0.16004  -0.37753   0.70598
  10   28301.3    353.3     61.48665   0.94956  -0.05735   0.10650
  11   29489.1    339.1     20.26067  -0.41706  -0.48901   0.34132
  12   30900.6    323.6      1.60577   0.03242  -0.00994   0.03253
  13   31078.0    321.8     -8.39145   0.19872  -0.38237   0.47980
  14   31202.3    320.5    -73.89759   2.02088   0.54270  -0.64734
  15   31470.4    317.8     59.76085   1.34137   0.46142  -1.67778
  16   31577.4    316.7      9.33327  -1.08836  -0.20164  -0.40595
  17   32291.6    309.7     32.03163   0.40766  -0.39491   1.32041
  18   32803.5    304.8     50.77254   0.14469  -0.10511  -0.61965
  19   33002.3    303.0      2.96366   0.62224   0.15105  -0.09731
  20   33551.1    298.1    -91.18598  -2.86373  -0.99680   1.03426
  21   33879.8    295.2     53.31056  -0.65627  -0.26720   0.41559
  22   34550.3    289.4     73.50781  -1.37583  -0.04618  -0.80416
  23   35581.8    281.0    -176.73185   2.00622   0.43393   0.09965
  24   35752.6    279.7     15.22402  -2.02076  -0.21323  -0.37063
  25   35826.8    279.1    104.31856  -1.07061  -0.26323  -0.71676
  26   36090.0    277.1    -33.10293  -0.57099  -0.27629   0.19679
  27   36288.6    275.6     -6.23357  -0.39785   0.22666   0.09947
  28   36719.2    272.3    155.92205  -1.36930  -0.79684  -0.26173
  29   37193.0    268.9     97.14286  -0.40313   0.14869  -1.46733
  30   37361.7    267.7    -28.92985   1.65027   0.35491   0.30239
  31   37468.2    266.9    -22.00150  -1.46222  -0.31793   0.26539
  32   37521.8    266.5     -1.18777   1.13318   0.33058  -0.17284
  33   37994.3    263.2    121.73300  -4.62771  -0.96272  -0.01738
  34   38452.4    260.1    204.89416   2.28823   0.73894  -0.10816
  35   38652.9    258.7    118.11947  -1.08319  -0.55642   0.68773
  36   38853.3    257.4    -15.88952  -1.67221  -0.65087   0.27263
  37   39388.0    253.9    -360.59390  -1.64758  -0.44644   2.53639
  38   39519.2    253.0    -39.07010   1.82628   0.93352  -2.23790
  39   39729.3    251.7     29.13508  -0.57274  -0.73813   0.85203
  40   39826.0    251.1    -156.10298   1.72154   0.41699   0.61638
  41   39984.0    250.1      3.68235   0.67335   0.09236  -0.61463
  42   40175.9    248.9     88.35391  -0.73118  -0.05817  -1.11328

sTD-DFT done

Total run time:        2.686 sec

           *** ORCA-CIS/TD-DFT FINISHED WITHOUT ERROR ***

-------------------------   --------------------
FINAL SINGLE POINT ENERGY     -6172.889547027220
-------------------------   --------------------


                            ***************************************
                            *     ORCA property calculations      *
                            ***************************************

                                    ---------------------
                                    Active property flags
                                    ---------------------
   (+) Dipole Moment


------------------------------------------------------------------------------
                       ORCA ELECTRIC PROPERTIES CALCULATION
------------------------------------------------------------------------------

Dipole Moment Calculation                       ... on
Quadrupole Moment Calculation                   ... off
Polarizability Calculation                      ... off
GBWName                                         ... xtbopt.gbw
Electron density file                           ... xtbopt.scfp
The origin for moment calculation is the CENTER OF MASS  = ( 2.840170, -14.047811 -0.923184)

-------------
DIPOLE MOMENT
-------------
                                X             Y             Z
Electronic contribution:     59.09666     -23.04327      -7.50035
Nuclear contribution   :    -59.35083      24.56920       9.01491
                        -----------------------------------------
Total Dipole Moment    :     -0.25417       1.52593       1.51457
                        -----------------------------------------
Magnitude (a.u.)       :      2.16494
Magnitude (Debye)      :      5.50284



--------------------
Rotational spectrum 
--------------------
 
Rotational constants in cm-1:     0.002059     0.000349     0.000325 
Rotational constants in MHz :    61.730284    10.477015     9.753832 

 Dipole components along the rotational axes: 
x,y,z [a.u.] :    -1.969695     0.451317     0.776909 
x,y,z [Debye]:    -5.006567     1.147158     1.974746 

 

Timings for individual modules:

Sum of individual times         ...      565.714 sec (=   9.429 min)
GTO integral calculation        ...        4.371 sec (=   0.073 min)   0.8 %
SCF iterations                  ...      556.969 sec (=   9.283 min)  98.5 %
CIS module                      ...        4.375 sec (=   0.073 min)   0.8 %
                             ****ORCA TERMINATED NORMALLY****
TOTAL RUN TIME: 0 days 0 hours 9 minutes 26 seconds 663 msec
