
                                 *****************
                                 * O   R   C   A *
                                 *****************

           --- An Ab Initio, DFT and Semiempirical electronic structure package ---

                  #######################################################
                  #                        -***-                        #
                  #          Department of theory and spectroscopy      #
                  #               Directorship: Frank Neese             #
                  #        Max Planck Institute fuer Kohlenforschung    #
                  #                Kaiser Wilhelm Platz 1               #
                  #                 D-45470 Muelheim/Ruhr               #
                  #                      Germany                        #
                  #                                                     #
                  #                  All rights reserved                #
                  #                        -***-                        #
                  #######################################################


                         Program Version 4.2.0 -  RELEASE  -


 With contributions from (in alphabetic order):
   Daniel Aravena         : Magnetic Suceptibility
   Michael Atanasov       : Ab Initio Ligand Field Theory (pilot matlab implementation)
   Alexander A. Auer      : GIAO ZORA, VPT2
   Ute Becker             : Parallelization
   Giovanni Bistoni       : ED, misc. LED, open-shell LED, HFLED
   Martin Brehm           : Molecular dynamics
   Dmytro Bykov           : SCF Hessian
   Vijay G. Chilkuri      : MRCI spin determinant printing, contributions to CSF-ICE
   Dipayan Datta          : RHF DLPNO-CCSD density
   Achintya Kumar Dutta   : EOM-CC, STEOM-CC
   Dmitry Ganyushin       : Spin-Orbit,Spin-Spin,Magnetic field MRCI
   Miquel Garcia          : C-PCM Hessian, Gaussian charge scheme
   Yang Guo               : DLPNO-NEVPT2, CIM, IAO-localization
   Andreas Hansen         : Spin unrestricted coupled pair/coupled cluster methods
   Benjamin Helmich-Paris : CASSCF linear response (MC-RPA)
   Lee Huntington         : MR-EOM, pCC
   Robert Izsak           : Overlap fitted RIJCOSX, COSX-SCS-MP3, EOM
   Christian Kollmar      : KDIIS, OOCD, Brueckner-CCSD(T), CCSD density
   Simone Kossmann        : Meta GGA functionals, TD-DFT gradient, OOMP2, MP2 Hessian
   Martin Krupicka        : AUTO-CI
   Lucas Lang             : DCDCAS
   Dagmar Lenk            : GEPOL surface, SMD
   Dimitrios Liakos       : Extrapolation schemes; Compound Job, initial MDCI parallelization
   Dimitrios Manganas     : Further ROCIS development; embedding schemes
   Dimitrios Pantazis     : SARC Basis sets
   Taras Petrenko         : DFT Hessian,TD-DFT gradient, ASA, ECA, R-Raman, ABS, FL, XAS/XES, NRVS
   Peter Pinski           : DLPNO-MP2, DLPNO-MP2 Gradient
   Christoph Reimann      : Effective Core Potentials
   Marius Retegan         : Local ZFS, SOC
   Christoph Riplinger    : Optimizer, TS searches, QM/MM, DLPNO-CCSD(T), (RO)-DLPNO pert. Triples
   Tobias Risthaus        : Range-separated hybrids, TD-DFT gradient, RPA, STAB
   Michael Roemelt        : Original ROCIS implementation
   Masaaki Saitow         : Open-shell DLPNO-CCSD energy and density
   Barbara Sandhoefer     : DKH picture change effects
   Avijit Sen             : IP-ROCIS
   Kantharuban Sivalingam : CASSCF convergence, NEVPT2, FIC-MRCI
   Bernardo de Souza      : ESD, SOC TD-DFT
   Georgi Stoychev        : AutoAux, RI-MP2 NMR
   Willem Van den Heuvel  : Paramagnetic NMR
   Boris Wezisla          : Elementary symmetry handling
   Frank Wennmohs         : Technical directorship


 We gratefully acknowledge several colleagues who have allowed us to
 interface, adapt or use parts of their codes:
   Stefan Grimme, W. Hujo, H. Kruse,             : VdW corrections, initial TS optimization,
                  C. Bannwarth                     DFT functionals, gCP, sTDA/sTD-DF
   Ed Valeev, F. Pavosevic, A. Kumar             : LibInt (2-el integral package), F12 methods
   Garnet Chan, S. Sharma, J. Yang, R. Olivares  : DMRG
   Ulf Ekstrom                                   : XCFun DFT Library
   Mihaly Kallay                                 : mrcc  (arbitrary order and MRCC methods)
   Andreas Klamt, Michael Diedenhofen            : otool_cosmo (COSMO solvation model)
   Jiri Pittner, Ondrej Demel                    : Mk-CCSD
   Frank Weinhold                                : gennbo (NPA and NBO analysis)
   Christopher J. Cramer and Donald G. Truhlar   : smd solvation model
   Lars Goerigk                                  : TD-DFT with DH, B97 family of functionals
   V. Asgeirsson, H. Jonsson                     : NEB implementation
   FAccTs GmbH                                   : IRC, NEB, NEB-TS, Multilevel, MM, QM/MM, CI optimization
   S Lehtola, MJT Oliveira, MAL Marques          : LibXC Library


 Your calculation uses the libint2 library for the computation of 2-el integrals
 For citations please refer to: http://libint.valeyev.net

 Your ORCA version has been built with support for libXC version: 4.2.3
 For citations please refer to: https://tddft.org/programs/libxc/

 This ORCA versions uses:
   CBLAS   interface :  Fast vector & matrix operations
   LAPACKE interface :  Fast linear algebra routines
   SCALAPACK package :  Parallel linear algebra routines


XCFun DFT library Copyright 2009-2010 Ulf Ekstrom and contributors.
See http://admol.org/xcfun for more information. This is free soft-
ware; see the source code for copying conditions. There is ABSOLUTELY
NO WARRANTY; not even for MERCHANTABILITY or FITNESS FOR A PARTICULAR
PURPOSE. For details see the documentation. Scientific users of this 
library should cite U. Ekstrom, L. Visscher, R. Bast, A. J. Thorvald-
sen and K. Ruud; J.Chem.Theor.Comp. 2010, DOI: 10.1021/ct100117s
XCFun Version 0.99 
----- Orbital basis set information -----
Your calculation utilizes the basis: def2-SVP
   F. Weigend and R. Ahlrichs, Phys. Chem. Chem. Phys. 7, 3297 (2005).

----- AuxJ basis set information -----
Your calculation utilizes the auxiliary basis: def2/J
   F. Weigend, Phys. Chem. Chem. Phys. 8, 1057 (2006).

================================================================================
                                        WARNINGS
                       Please study these warnings very carefully!
================================================================================

INFO   : Checking CIS options ...

WARNING: CIS/ROCIS methods need fully converged wavefunctions
  ===> : Setting SCFConvForced true
         You can overwrite this default with %scf ConvForced false 


INFO   : the flag for use of LIBINT has been found!

================================================================================
                                       INPUT FILE
================================================================================
NAME = xtbopt.inp
|  1> # ORCA input file
|  2> # SCF done       -243.054493367148          0.000898943905
|  3> ! CAM-B3LYP def2-SVP def2/J RIJCOSX Grid4 TightSCF
|  4> %maxcore 5000
|  5> %tddft
|  6>     Mode sTDDFT
|  7>     Ethresh 5.0
|  8>     maxcore 5000
|  9> end
| 10> 
| 11> %pal
| 12>   nprocs 6
| 13>   end
| 14> * xyz 0 1
| 15>    C        3.90071        -1.37693        -0.27675
| 16>    C        3.29400        -0.41023         0.48281
| 17>    C        3.82409         0.88524         0.67479
| 18>    N        4.20437         1.94827         0.87840
| 19>    C        2.06039        -0.52902         1.15860
| 20>    N        1.06265        -0.53198         1.72937
| 21>    C        5.14262        -1.20715        -1.02667
| 22>    C        5.37024        -2.36099        -1.79746
| 23>    C        6.46599        -2.47876        -2.62757
| 24>    C        7.36858        -1.42401        -2.68267
| 25>    C        7.15495        -0.27381        -1.91260
| 26>    C        6.04371        -0.15603        -1.08477
| 27>   Cl        8.27805         1.02107        -1.98694
| 28>   Cl        8.74746        -1.53358        -3.69701
| 29>    C        4.28096        -3.33391        -1.57463
| 30>    O        4.10011        -4.36485        -2.18538
| 31>    C        3.42500        -2.72896        -0.52528
| 32>    C        2.34007        -3.28499         0.08739
| 33>    C        1.85449        -4.62539         0.04935
| 34>    C        2.77082        -5.72709        -0.28252
| 35>    C        2.43507        -6.64505        -1.27640
| 36>    C        3.31289        -7.64987        -1.62372
| 37>    C        4.53086        -7.77428        -0.95904
| 38>    C        4.84989        -6.88308         0.06139
| 39>    C        3.98624        -5.85834         0.38515
| 40>    C        5.50925        -8.85248        -1.28566
| 41>    O        6.23810        -9.34342        -0.46895
| 42>    O        5.53757        -9.25115        -2.57060
| 43>    C        0.53039        -4.84990         0.37068
| 44>    C       -0.37498        -3.68980         0.42687
| 45>    C       -0.41388        -2.77469        -0.62696
| 46>    C       -1.20736        -1.65184        -0.54330
| 47>    C       -1.96696        -1.40018         0.59829
| 48>    C       -1.93178        -2.31455         1.64835
| 49>    C       -1.15886        -3.45446         1.55467
| 50>    C       -2.77408        -0.13821         0.59642
| 51>    O       -2.79041         0.59797        -0.35389
| 52>    O       -3.50136         0.14543         1.68160
| 53>    C       -0.04987        -6.13362         0.65688
| 54>    C       -1.38571        -6.37756         0.41964
| 55>    C       -2.03470        -7.57942         0.68103
| 56>    C       -1.32467        -8.71829         1.26567
| 57>    C       -0.01638        -8.69283         1.61035
| 58>    S        1.00151        -7.33565         1.39403
| 59>    C       -2.28562        -9.76051         1.34863
| 60>    C       -3.51351        -9.32050         0.84004
| 61>    C       -4.50523       -10.32296         0.94126
| 62>    C       -4.01239       -11.46389         1.49103
| 63>    S       -2.33867       -11.37783         1.91748
| 64>    C       -3.37143        -7.95294         0.41230
| 65>    C       -4.35201        -7.11815        -0.16743
| 66>    C       -5.50572        -7.56690        -0.73356
| 67>    C       -6.51397        -6.76794        -1.34710
| 68>    C       -7.27634        -7.40270        -2.42798
| 69>    C       -6.60944        -8.11692        -3.42498
| 70>    C       -7.29223        -8.56253        -4.53856
| 71>    C       -8.64957        -8.29475        -4.67331
| 72>    C       -9.34021        -7.67349        -3.63775
| 73>    C       -8.66002        -7.24206        -2.51811
| 74>    C       -9.35282        -8.61566        -5.95968
| 75>    O       -9.32563        -9.69691        -6.47905
| 76>    O      -10.00072        -7.57893        -6.48979
| 77>    C       -6.82010        -5.45722        -1.00482
| 78>    C       -6.29079        -4.84626         0.22532
| 79>    C       -5.70678        -3.57995         0.18912
| 80>    C       -5.28795        -2.96216         1.34858
| 81>    C       -5.41973        -3.61511         2.57228
| 82>    C       -5.97915        -4.89404         2.60924
| 83>    C       -6.41093        -5.50029         1.45234
| 84>    C       -5.04275        -2.99484         3.85410
| 85>    O       -5.22519        -3.48310         4.93903
| 86>    O       -4.43983        -1.78415         3.73152
| 87>    C       -7.64591        -4.68216        -1.86802
| 88>    C       -8.35766        -3.54904        -1.57816
| 89>    C       -8.97751        -2.68323        -2.56122
| 90>    C       -9.30189        -2.98770        -3.86039
| 91>    C       -9.88845        -2.06669        -4.75750
| 92>    N      -10.35271        -1.36471        -5.53709
| 93>    C       -9.21725        -4.25092        -4.46871
| 94>    N       -9.26469        -5.24584        -5.04567
| 95>    C       -9.30339        -1.42663        -1.88956
| 96>    C       -9.10820        -1.59317        -0.50697
| 97>    C       -8.61733        -2.96289        -0.23990
| 98>    O       -8.54006        -3.50694         0.83873
| 99>    C       -9.36882        -0.58102         0.39214
|100>    C       -9.81785         0.63878        -0.10106
|101>    C      -10.00354         0.81772        -1.47729
|102>    C       -9.75352        -0.21182        -2.37897
|103>   Cl      -10.55271         2.32977        -2.07336
|104>   Cl      -10.14355         1.92704         0.98240
|105>    H        6.61656        -3.37018        -3.21560
|106>    H        5.91301         0.74564        -0.50964
|107>    H        1.76772        -2.62707         0.72771
|108>    H        1.49289        -6.54561        -1.79538
|109>    H        3.02816        -8.35304        -2.39541
|110>    H        5.78997        -7.00246         0.57763
|111>    H        4.24463        -5.15543         1.16361
|112>    H        4.95712        -8.72025        -3.13222
|113>    H        0.17618        -2.96072        -1.51247
|114>    H       -1.24779        -0.93650        -1.35051
|115>    H       -2.49028        -2.15832         2.55785
|116>    H       -1.12887        -4.15248         2.37842
|117>    H       -3.47129        -0.52862         2.37797
|118>    H       -1.95251        -5.57748        -0.03791
|119>    H        0.48652        -9.54309         2.04360
|120>    H       -5.53306       -10.22099         0.64616
|121>    H       -4.54055       -12.37759         1.68167
|122>    H       -4.12851        -6.06025        -0.20357
|123>    H       -5.64348        -8.63489        -0.82886
|124>    H       -5.54228        -8.26639        -3.34677
|125>    H       -6.77703        -9.08312        -5.33117
|126>    H      -10.40670        -7.52023        -3.71507
|127>    H       -9.19364        -6.76324        -1.70999
|128>    H       -9.83321        -6.74363        -6.00302
|129>    H       -5.60332        -3.06512        -0.75613
|130>    H       -4.89842        -1.95886         1.30315
|131>    H       -6.09012        -5.38027         3.56631
|132>    H       -6.88096        -6.47092         1.49211
|133>    H       -4.30220        -1.41414         4.61885
|134>    H       -7.66499        -5.00713        -2.90292
|135>    H       -9.22307        -0.73357         1.44974
|136>    H       -9.90826        -0.03650        -3.43086
|137> *
|138> 
|139>                          ****END OF INPUT****
================================================================================

                       ****************************
                       * Single Point Calculation *
                       ****************************

---------------------------------
CARTESIAN COORDINATES (ANGSTROEM)
---------------------------------
  C      3.900710   -1.376930   -0.276750
  C      3.294000   -0.410230    0.482810
  C      3.824090    0.885240    0.674790
  N      4.204370    1.948270    0.878400
  C      2.060390   -0.529020    1.158600
  N      1.062650   -0.531980    1.729370
  C      5.142620   -1.207150   -1.026670
  C      5.370240   -2.360990   -1.797460
  C      6.465990   -2.478760   -2.627570
  C      7.368580   -1.424010   -2.682670
  C      7.154950   -0.273810   -1.912600
  C      6.043710   -0.156030   -1.084770
  Cl     8.278050    1.021070   -1.986940
  Cl     8.747460   -1.533580   -3.697010
  C      4.280960   -3.333910   -1.574630
  O      4.100110   -4.364850   -2.185380
  C      3.425000   -2.728960   -0.525280
  C      2.340070   -3.284990    0.087390
  C      1.854490   -4.625390    0.049350
  C      2.770820   -5.727090   -0.282520
  C      2.435070   -6.645050   -1.276400
  C      3.312890   -7.649870   -1.623720
  C      4.530860   -7.774280   -0.959040
  C      4.849890   -6.883080    0.061390
  C      3.986240   -5.858340    0.385150
  C      5.509250   -8.852480   -1.285660
  O      6.238100   -9.343420   -0.468950
  O      5.537570   -9.251150   -2.570600
  C      0.530390   -4.849900    0.370680
  C     -0.374980   -3.689800    0.426870
  C     -0.413880   -2.774690   -0.626960
  C     -1.207360   -1.651840   -0.543300
  C     -1.966960   -1.400180    0.598290
  C     -1.931780   -2.314550    1.648350
  C     -1.158860   -3.454460    1.554670
  C     -2.774080   -0.138210    0.596420
  O     -2.790410    0.597970   -0.353890
  O     -3.501360    0.145430    1.681600
  C     -0.049870   -6.133620    0.656880
  C     -1.385710   -6.377560    0.419640
  C     -2.034700   -7.579420    0.681030
  C     -1.324670   -8.718290    1.265670
  C     -0.016380   -8.692830    1.610350
  S      1.001510   -7.335650    1.394030
  C     -2.285620   -9.760510    1.348630
  C     -3.513510   -9.320500    0.840040
  C     -4.505230  -10.322960    0.941260
  C     -4.012390  -11.463890    1.491030
  S     -2.338670  -11.377830    1.917480
  C     -3.371430   -7.952940    0.412300
  C     -4.352010   -7.118150   -0.167430
  C     -5.505720   -7.566900   -0.733560
  C     -6.513970   -6.767940   -1.347100
  C     -7.276340   -7.402700   -2.427980
  C     -6.609440   -8.116920   -3.424980
  C     -7.292230   -8.562530   -4.538560
  C     -8.649570   -8.294750   -4.673310
  C     -9.340210   -7.673490   -3.637750
  C     -8.660020   -7.242060   -2.518110
  C     -9.352820   -8.615660   -5.959680
  O     -9.325630   -9.696910   -6.479050
  O    -10.000720   -7.578930   -6.489790
  C     -6.820100   -5.457220   -1.004820
  C     -6.290790   -4.846260    0.225320
  C     -5.706780   -3.579950    0.189120
  C     -5.287950   -2.962160    1.348580
  C     -5.419730   -3.615110    2.572280
  C     -5.979150   -4.894040    2.609240
  C     -6.410930   -5.500290    1.452340
  C     -5.042750   -2.994840    3.854100
  O     -5.225190   -3.483100    4.939030
  O     -4.439830   -1.784150    3.731520
  C     -7.645910   -4.682160   -1.868020
  C     -8.357660   -3.549040   -1.578160
  C     -8.977510   -2.683230   -2.561220
  C     -9.301890   -2.987700   -3.860390
  C     -9.888450   -2.066690   -4.757500
  N    -10.352710   -1.364710   -5.537090
  C     -9.217250   -4.250920   -4.468710
  N     -9.264690   -5.245840   -5.045670
  C     -9.303390   -1.426630   -1.889560
  C     -9.108200   -1.593170   -0.506970
  C     -8.617330   -2.962890   -0.239900
  O     -8.540060   -3.506940    0.838730
  C     -9.368820   -0.581020    0.392140
  C     -9.817850    0.638780   -0.101060
  C    -10.003540    0.817720   -1.477290
  C     -9.753520   -0.211820   -2.378970
  Cl   -10.552710    2.329770   -2.073360
  Cl   -10.143550    1.927040    0.982400
  H      6.616560   -3.370180   -3.215600
  H      5.913010    0.745640   -0.509640
  H      1.767720   -2.627070    0.727710
  H      1.492890   -6.545610   -1.795380
  H      3.028160   -8.353040   -2.395410
  H      5.789970   -7.002460    0.577630
  H      4.244630   -5.155430    1.163610
  H      4.957120   -8.720250   -3.132220
  H      0.176180   -2.960720   -1.512470
  H     -1.247790   -0.936500   -1.350510
  H     -2.490280   -2.158320    2.557850
  H     -1.128870   -4.152480    2.378420
  H     -3.471290   -0.528620    2.377970
  H     -1.952510   -5.577480   -0.037910
  H      0.486520   -9.543090    2.043600
  H     -5.533060  -10.220990    0.646160
  H     -4.540550  -12.377590    1.681670
  H     -4.128510   -6.060250   -0.203570
  H     -5.643480   -8.634890   -0.828860
  H     -5.542280   -8.266390   -3.346770
  H     -6.777030   -9.083120   -5.331170
  H    -10.406700   -7.520230   -3.715070
  H     -9.193640   -6.763240   -1.709990
  H     -9.833210   -6.743630   -6.003020
  H     -5.603320   -3.065120   -0.756130
  H     -4.898420   -1.958860    1.303150
  H     -6.090120   -5.380270    3.566310
  H     -6.880960   -6.470920    1.492110
  H     -4.302200   -1.414140    4.618850
  H     -7.664990   -5.007130   -2.902920
  H     -9.223070   -0.733570    1.449740
  H     -9.908260   -0.036500   -3.430860

----------------------------
CARTESIAN COORDINATES (A.U.)
----------------------------
  NO LB      ZA    FRAG     MASS         X           Y           Z
   0 C     6.0000    0    12.011    7.371274   -2.602021   -0.522982
   1 C     6.0000    0    12.011    6.224758   -0.775222    0.912379
   2 C     6.0000    0    12.011    7.226483    1.672861    1.275168
   3 N     7.0000    0    14.007    7.945108    3.681697    1.659935
   4 C     6.0000    0    12.011    3.893573   -0.999703    2.189437
   5 N     7.0000    0    14.007    2.008117   -1.005297    3.268036
   6 C     6.0000    0    12.011    9.718143   -2.281183   -1.940125
   7 C     6.0000    0    12.011   10.148283   -4.461625   -3.396707
   8 C     6.0000    0    12.011   12.218950   -4.684178   -4.965388
   9 C     6.0000    0    12.011   13.924598   -2.690989   -5.069512
  10 C     6.0000    0    12.011   13.520896   -0.517426   -3.614290
  11 C     6.0000    0    12.011   11.420957   -0.294854   -2.049918
  12 Cl   17.0000    0    35.453   15.643247    1.929543   -3.754772
  13 Cl   17.0000    0    35.453   16.530304   -2.898046   -6.986336
  14 C     6.0000    0    12.011    8.089842   -6.300177   -2.975619
  15 O     8.0000    0    15.999    7.748085   -8.248371   -4.129770
  16 C     6.0000    0    12.011    6.472312   -5.156987   -0.992635
  17 C     6.0000    0    12.011    4.422091   -6.207731    0.165143
  18 C     6.0000    0    12.011    3.504478   -8.740720    0.093258
  19 C     6.0000    0    12.011    5.236091  -10.822632   -0.533885
  20 C     6.0000    0    12.011    4.601615  -12.557325   -2.412046
  21 C     6.0000    0    12.011    6.260455  -14.456159   -3.068386
  22 C     6.0000    0    12.011    8.562085  -14.691260   -1.812323
  23 C     6.0000    0    12.011    9.164964  -13.007136    0.116010
  24 C     6.0000    0    12.011    7.532902  -11.070658    0.727828
  25 C     6.0000    0    12.011   10.410974  -16.728763   -2.429545
  26 O     8.0000    0    15.999   11.788301  -17.656505   -0.886187
  27 O     8.0000    0    15.999   10.464491  -17.482140   -4.857730
  28 C     6.0000    0    12.011    1.002292   -9.164983    0.700484
  29 C     6.0000    0    12.011   -0.708610   -6.972711    0.806667
  30 C     6.0000    0    12.011   -0.782120   -5.243404   -1.184783
  31 C     6.0000    0    12.011   -2.281580   -3.121525   -1.026688
  32 C     6.0000    0    12.011   -3.717016   -2.645957    1.130604
  33 C     6.0000    0    12.011   -3.650535   -4.373866    3.114930
  34 C     6.0000    0    12.011   -2.189928   -6.527983    2.937901
  35 C     6.0000    0    12.011   -5.242251   -0.261179    1.127070
  36 O     8.0000    0    15.999   -5.273111    1.130000   -0.668755
  37 O     8.0000    0    15.999   -6.616611    0.274823    3.177763
  38 C     6.0000    0    12.011   -0.094241  -11.590862    1.241323
  39 C     6.0000    0    12.011   -2.618612  -12.051842    0.793005
  40 C     6.0000    0    12.011   -3.845026  -14.323028    1.286960
  41 C     6.0000    0    12.011   -2.503264  -16.475180    2.391770
  42 C     6.0000    0    12.011   -0.030954  -16.427068    3.043120
  43 S    16.0000    0    32.060    1.892580  -13.862370    2.634335
  44 C     6.0000    0    12.011   -4.319196  -18.444691    2.548541
  45 C     6.0000    0    12.011   -6.639572  -17.613192    1.587446
  46 C     6.0000    0    12.011   -8.513651  -19.507567    1.778724
  47 C     6.0000    0    12.011   -7.582318  -21.663613    2.817638
  48 S    16.0000    0    32.060   -4.419446  -21.500983    3.623512
  49 C     6.0000    0    12.011   -6.371079  -15.028879    0.779134
  50 C     6.0000    0    12.011   -8.224107  -13.451354   -0.316397
  51 C     6.0000    0    12.011  -10.404303  -14.299369   -1.386228
  52 C     6.0000    0    12.011  -12.309619  -12.789553   -2.545650
  53 C     6.0000    0    12.011  -13.750290  -13.989076   -4.588217
  54 C     6.0000    0    12.011  -12.490031  -15.338756   -6.472274
  55 C     6.0000    0    12.011  -13.780318  -16.180837   -8.576635
  56 C     6.0000    0    12.011  -16.345318  -15.674806   -8.831276
  57 C     6.0000    0    12.011  -17.650439  -14.500795   -6.874351
  58 C     6.0000    0    12.011  -16.365066  -13.685510   -4.758538
  59 C     6.0000    0    12.011  -17.674268  -16.281238  -11.262163
  60 O     8.0000    0    15.999  -17.622887  -18.324504  -12.243630
  61 O     8.0000    0    15.999  -18.898622  -14.322102  -12.263926
  62 C     6.0000    0    12.011  -12.888121  -10.312651   -1.898835
  63 C     6.0000    0    12.011  -11.887870   -9.158104    0.425793
  64 C     6.0000    0    12.011  -10.784251   -6.765125    0.357385
  65 C     6.0000    0    12.011   -9.992777   -5.597671    2.548447
  66 C     6.0000    0    12.011  -10.241805   -6.831568    4.860905
  67 C     6.0000    0    12.011  -11.298956   -9.248395    4.930749
  68 C     6.0000    0    12.011  -12.114902  -10.394042    2.744525
  69 C     6.0000    0    12.011   -9.529416   -5.659427    7.283193
  70 O     8.0000    0    15.999   -9.874178   -6.582105    9.333414
  71 O     8.0000    0    15.999   -8.390063   -3.371555    7.051551
  72 C     6.0000    0    12.011  -14.448676   -8.848000   -3.530046
  73 C     6.0000    0    12.011  -15.793689   -6.706714   -2.982290
  74 C     6.0000    0    12.011  -16.965035   -5.070570   -4.840004
  75 C     6.0000    0    12.011  -17.578025   -5.645935   -7.295080
  76 C     6.0000    0    12.011  -18.686462   -3.905478   -8.990372
  77 N     7.0000    0    14.007  -19.563787   -2.578928  -10.463584
  78 C     6.0000    0    12.011  -17.418078   -8.033075   -8.444638
  79 N     7.0000    0    14.007  -17.507727   -9.913201   -9.534934
  80 C     6.0000    0    12.011  -17.580859   -2.695940   -3.570751
  81 C     6.0000    0    12.011  -17.212004   -3.010655   -0.958034
  82 C     6.0000    0    12.011  -16.284394   -5.599051   -0.453345
  83 O     8.0000    0    15.999  -16.138375   -6.627156    1.584970
  84 C     6.0000    0    12.011  -17.704504   -1.097969    0.741037
  85 C     6.0000    0    12.011  -18.553048    1.207119   -0.190976
  86 C     6.0000    0    12.011  -18.903951    1.545267   -2.791674
  87 C     6.0000    0    12.011  -18.431482   -0.400282   -4.495602
  88 Cl   17.0000    0    35.453  -19.941732    4.402627   -3.918083
  89 Cl   17.0000    0    35.453  -19.168532    3.641578    1.856467
  90 H     1.0000    0     1.008   12.503486   -6.368717   -6.076603
  91 H     1.0000    0     1.008   11.173970    1.409055   -0.963080
  92 H     1.0000    0     1.008    3.340507   -4.964443    1.375173
  93 H     1.0000    0     1.008    2.821153  -12.369410   -3.392777
  94 H     1.0000    0     1.008    5.722393  -15.784958   -4.526669
  95 H     1.0000    0     1.008   10.941458  -13.232732    1.091563
  96 H     1.0000    0     1.008    8.021188   -9.742351    2.198904
  97 H     1.0000    0     1.008    9.367599  -16.478884   -5.919038
  98 H     1.0000    0     1.008    0.332932   -5.594950   -2.858154
  99 H     1.0000    0     1.008   -2.357981   -1.769729   -2.552094
 100 H     1.0000    0     1.008   -4.705947   -4.078634    4.833636
 101 H     1.0000    0     1.008   -2.133255   -7.847050    4.494562
 102 H     1.0000    0     1.008   -6.559787   -0.998947    4.493712
 103 H     1.0000    0     1.008   -3.689709  -10.539910   -0.071640
 104 H     1.0000    0     1.008    0.919390  -18.033827    3.861844
 105 H     1.0000    0     1.008  -10.455968  -19.314872    1.221065
 106 H     1.0000    0     1.008   -8.580396  -23.390255    3.177896
 107 H     1.0000    0     1.008   -7.801753  -11.452213   -0.384692
 108 H     1.0000    0     1.008  -10.664632  -16.317577   -1.566318
 109 H     1.0000    0     1.008  -10.473391  -15.621213   -6.324479
 110 H     1.0000    0     1.008  -12.806731  -17.164609  -10.074451
 111 H     1.0000    0     1.008  -19.665813  -14.211175   -7.020465
 112 H     1.0000    0     1.008  -17.373462  -12.780671   -3.231413
 113 H     1.0000    0     1.008  -18.582074  -12.743614  -11.344064
 114 H     1.0000    0     1.008  -10.588740   -5.792237   -1.428879
 115 H     1.0000    0     1.008   -9.256672   -3.701709    2.462597
 116 H     1.0000    0     1.008  -11.508659  -10.167237    6.739349
 117 H     1.0000    0     1.008  -13.003130  -12.228267    2.819679
 118 H     1.0000    0     1.008   -8.129980   -2.672337    8.728362
 119 H     1.0000    0     1.008  -14.484732   -9.462104   -5.485724
 120 H     1.0000    0     1.008  -17.429076   -1.386246    2.739612
 121 H     1.0000    0     1.008  -18.723898   -0.068975   -6.483386

--------------------------------
INTERNAL COORDINATES (ANGSTROEM)
--------------------------------
 C      0   0   0     0.000000000000     0.00000000     0.00000000
 C      1   0   0     1.370962183176     0.00000000     0.00000000
 C      2   1   0     1.412831996169   123.76545893     0.00000000
 N      3   2   1     1.147215189666   176.49767360   188.23032789
 C      2   1   3     1.411593716443   126.34496853   178.56667276
 N      5   2   1     1.149466076968   175.20246501   187.08275480
 C      1   2   3     1.460666184623   125.36283974   357.89956354
 C      7   1   2     1.406156048986   108.88565550   186.52662447
 C      8   7   1     1.379717524532   121.89723826   179.05780843
 C      9   8   7     1.389317199418   118.36013584     0.65023717
 C     10   9   8     1.400573318966   120.17021619   359.74993067
 C      7   1   2     1.385709945299   131.49696427     6.11070849
 Cl    11  10   9     1.715690607307   119.74484876   179.89269607
 Cl    10   9   8     1.715284604636   119.81547670   179.73570674
 C      8   7   1     1.477415802576   109.77586798   359.82854099
 O     15   8   7     1.211841395811   126.45853207   171.80195223
 C      1   2   3     1.454665695581   127.25108578   180.01989164
 C     17   1   2     1.364407195342   124.20055382   353.08874644
 C     18  17   1     1.426151162395   129.92501434   187.58619785
 C     19  18  17     1.470898111971   119.85912081    23.27232118
 C     20  19  18     1.393978507187   120.26809572   231.23367887
 C     21  20  19     1.378717653184   120.41048067   177.62379577
 C     22  21  20     1.393100237384   120.10220051     1.57374618
 C     23  22  21     1.391867438300   119.53869596     0.38596037
 C     24  23  22     1.378696459595   120.29732858   357.97987388
 C     23  22  21     1.492126957233   122.23291183   179.30567842
 O     26  23  22     1.199691472921   123.02760720   211.94327127
 O     26  23  22     1.345663626208   115.90591193    32.21387979
 C     19  18  17     1.380904963783   118.23416043   201.27710589
 C     29  19  18     1.472645294360   118.05401845    13.94798824
 C     30  29  19     1.396243958268   120.30734827    49.69795527
 C     31  30  29     1.377462024340   120.29619931   183.48782787
 C     32  31  30     1.394113569154   120.71367381     0.95985973
 C     33  32  31     1.392815900577   119.01784734   358.86384772
 C     34  33  32     1.380426049052   120.33715770   359.76814749
 C     33  32  31     1.498003495390   116.39910014   178.85904928
 O     36  33  32     1.202213274507   121.61262213     1.85830592
 O     36  33  32     1.336788495013   118.09060420   180.86939163
 C     29  19  18     1.437549702097   125.34876310   193.84516197
 C     39  29  19     1.378498475443   120.99179357   207.53414766
 C     40  39  29     1.390676170717   124.94691327   180.86584522
 C     41  40  39     1.463889137674   121.40362015     0.73953532
 C     42  41  40     1.353172286924   123.78191851     0.98119496
 S     43  42  41     1.710214006170   123.92823109   359.14139964
 C     42  41  40     1.420045700849   105.43191398   181.62892225
 C     45  42  41     1.399995157242   109.97563401     0.60128828
 C     46  45  42     1.413746829669   111.49246297   181.62636768
 C     47  46  45     1.358992120433   111.70775064   359.26162586
 S     45  42  41     1.715263422160   137.08204387   181.63844041
 C     41  40  39     1.413711461438   129.33629967   183.68599912
 C     50  41  40     1.412267097046   125.33643583   358.07409649
 C     51  50  41     1.361222429840   124.35657418   162.18507041
 C     52  51  50     1.425249618734   126.42778240   180.98351547
 C     53  52  51     1.467116167486   116.24530055   150.30262830
 C     54  53  52     1.396021066603   119.95183437   313.82153474
 C     55  54  53     1.380156104432   120.33662558   188.78484910
 C     56  55  54     1.390048764073   119.94020309     0.29729991
 C     57  56  55     1.391162143965   119.90975368   354.81333624
 C     58  57  56     1.379269375648   119.94224610     4.43874628
 C     57  56  55     1.500763661440   119.96471176   171.86698271
 O     60  57  56     1.199827510728   123.58074437    53.42917056
 O     60  57  56     1.332516459561   113.73267656   234.35190272
 C     53  52  51     1.388833357066   125.37219946   330.41606262
 C     63  53  52     1.471966581584   121.22625205   347.81569326
 C     64  63  53     1.394962055470   120.37405433   132.23570252
 C     65  64  63     1.378923690637   120.80013840   175.69722227
 C     66  65  64     1.393252080888   119.98821140     1.38231091
 C     67  66  65     1.396416385932   119.36427460   359.92526010
 C     68  67  66     1.375641901405   120.47138507   359.26865990
 C     67  66  65     1.473061881151   122.86998765   182.46297928
 O     70  67  66     1.203642507599   125.08216712   174.53065087
 O     70  67  66     1.358053260701   114.23355184   354.10094140
 C     63  53  52     1.424006460554   119.47889575   166.92224505
 C     73  63  53     1.369148573567   128.57878644   160.36030677
 C     74  73  63     1.449223220280   124.97193212   168.16447457
 C     75  74  73     1.373232338026   127.61285099    19.78172241
 C     76  75  74     1.413194397739   123.65001848   181.04735807
 N     77  76  75     1.147202613360   176.51655327   169.52395303
 C     76  75  74     1.404614509536   126.50506467     6.71886152
 N     79  76  75     1.151086096519   172.71030430   146.94655100
 C     75  74  73     1.461632132241   107.29384502   195.39496190
 C     81  75  74     1.406196933505   108.60520776   350.28438040
 C     82  81  75     1.479328435541   109.46436602     1.26550335
 O     83  82  81     1.210538612478   126.73902652   192.07972221
 C     82  81  75     1.378683864778   121.87155239   181.63191571
 C     85  82  81     1.390246820137   118.28355892   359.03265393
 C     86  85  82     1.400181885542   120.24190463     0.36865218
 C     81  75  74     1.384883569510   131.62227866   171.20225764
 Cl    87  86  85     1.715570557074   119.77483862   180.21968429
 Cl    86  85  82     1.714520308774   119.76443430   180.40876371
 H      9   8   7     1.078461970679   120.62950201   180.47572814
 H     12   7   1     1.077434822066   122.24468658     0.69719569
 H     18  17   1     1.081874739191   116.01528372     5.48172672
 H     21  20  19     1.080246132324   119.47149178   359.50235522
 H     22  21  20     1.082138936505   119.05808197   179.74874530
 H     24  23  22     1.079122666058   118.65719014   179.00684428
 H     25  24  23     1.080207309640   120.20174241   181.26119846
 H     28  26  23     0.966537136845   112.30105812     4.82492186
 H     31  30  29     1.080234198959   119.38125752     4.11406821
 H     32  31  30     1.079321029444   121.09218567   180.04927508
 H     34  33  32     1.078665987644   121.83770095   179.11758576
 H     35  34  33     1.080136742732   119.83004873   179.30786403
 H     38  36  33     0.969628168062   114.74845749   357.40657327
 H     40  39  29     1.082008432915   116.71510920     3.19984974
 H     43  42  41     1.078682548343   122.56323776   179.76241429
 H     47  46  45     1.074205008274   125.74793838   178.20312262
 H     48  47  46     1.072447800688   127.48708409   180.14210245
 H     51  50  41     1.081855239669   116.63351972   345.70367140
 H     52  51  50     1.081046968314   118.05730150   354.15402011
 H     55  54  53     1.080411287705   119.40214951     5.10308056
 H     56  55  54     1.079201371478   120.80764590   177.69694530
 H     58  57  56     1.080216612583   120.01440760   183.81920112
 H     59  58  57     1.080313302334   120.15091306   180.27768912
 H     62  60  57     0.981188423800   112.45588691     6.24435079
 H     65  64  63     1.081319315928   119.66609536   357.24416769
 H     66  65  64     1.077222537733   119.44911587   183.93077789
 H     68  67  66     1.079220523665   118.50901416   181.02610594
 H     69  68  67     1.079181379889   120.13827036   182.62558430
 H     72  70  67     0.971186874860   108.66855814   174.79903229
 H     73  63  53     1.084890573883   115.17656567   336.63978481
 H     85  82  81     1.078439764196   120.67403846   179.28739651
 H     88  81  75     1.077568625239   122.30096723   358.41572620

---------------------------
INTERNAL COORDINATES (A.U.)
---------------------------
 C      0   0   0     0.000000000000     0.00000000     0.00000000
 C      1   0   0     2.590743066166     0.00000000     0.00000000
 C      2   1   0     2.669865546001   123.76545893     0.00000000
 N      3   2   1     2.167922525143   176.49767360   188.23032789
 C      2   1   3     2.667525536440   126.34496853   178.56667276
 N      5   2   1     2.172176085702   175.20246501   187.08275480
 C      1   2   3     2.760259062016   125.36283974   357.89956354
 C      7   1   2     2.657249834140   108.88565550   186.52662447
 C      8   7   1     2.607288263537   121.89723826   179.05780843
 C      9   8   7     2.625429020047   118.36013584     0.65023717
 C     10   9   8     2.646700003323   120.17021619   359.74993067
 C      7   1   2     2.618612297666   131.49696427     6.11070849
 Cl    11  10   9     3.242185378350   119.74484876   179.89269607
 Cl    10   9   8     3.241418144493   119.81547670   179.73570674
 C      8   7   1     2.791911252795   109.77586798   359.82854099
 O     15   8   7     2.290048355831   126.45853207   171.80195223
 C      1   2   3     2.748919781058   127.25108578   180.01989164
 C     17   1   2     2.578355934347   124.20055382   353.08874644
 C     18  17   1     2.695035122500   129.92501434   187.58619785
 C     19  18  17     2.779594602527   119.85912081    23.27232118
 C     20  19  18     2.634237615156   120.26809572   231.23367887
 C     21  20  19     2.605398780520   120.41048067   177.62379577
 C     22  21  20     2.632577925757   120.10220051     1.57374618
 C     23  22  21     2.630248273110   119.53869596     0.38596037
 C     24  23  22     2.605358730442   120.29732858   357.97987388
 C     23  22  21     2.819711306211   122.23291183   179.30567842
 O     26  23  22     2.267088329022   123.02760720   211.94327127
 O     26  23  22     2.542935721913   115.90591193    32.21387979
 C     19  18  17     2.609532198522   118.23416043   201.27710589
 C     29  19  18     2.782896298748   118.05401845    13.94798824
 C     30  29  19     2.638518697269   120.30734827    49.69795527
 C     31  30  29     2.603025985880   120.29619931   183.48782787
 C     32  31  30     2.634492845285   120.71367381     0.95985973
 C     33  32  31     2.632040607061   119.01784734   358.86384772
 C     34  33  32     2.608627180838   120.33715770   359.76814749
 C     33  32  31     2.830816353943   116.39910014   178.85904928
 O     36  33  32     2.271853843382   121.61262213     1.85830592
 O     36  33  32     2.526164154552   118.09060420   180.86939163
 C     29  19  18     2.716575240864   125.34876310   193.84516197
 C     39  29  19     2.604984594616   120.99179357   207.53414766
 C     40  39  29     2.627997103625   124.94691327   180.86584522
 C     41  40  39     2.766349560626   121.40362015     0.73953532
 C     42  41  40     2.557125034299   123.78191851     0.98119496
 S     43  42  41     3.231836102058   123.92823109   359.14139964
 C     42  41  40     2.683497472257   105.43191398   181.62892225
 C     45  42  41     2.645607436003   109.97563401     0.60128828
 C     46  45  42     2.671594330774   111.49246297   181.62636768
 C     47  46  45     2.568122925776   111.70775064   359.26162586
 S     45  42  41     3.241378115415   137.08204387   181.63844041
 C     41  40  39     2.671527494503   129.33629967   183.68599912
 C     50  41  40     2.668798041366   125.33643583   358.07409649
 C     51  50  41     2.572337599749   124.35657418   162.18507041
 C     52  51  50     2.693331451882   126.42778240   180.98351547
 C     53  52  51     2.772447763197   116.24530055   150.30262830
 C     54  53  52     2.638097493065   119.95183437   313.82153474
 C     55  54  53     2.608117059435   120.33662558   188.78484910
 C     56  55  54     2.626811476893   119.94020309     0.29729991
 C     57  56  55     2.628915459972   119.90975368   354.81333624
 C     58  57  56     2.606441384879   119.94224610     4.43874628
 C     57  56  55     2.836032311863   119.96471176   171.86698271
 O     60  57  56     2.267345403221   123.58074437    53.42917056
 O     60  57  56     2.518091177512   113.73267656   234.35190272
 C     53  52  51     2.624514690510   125.37219946   330.41606262
 C     63  53  52     2.781613717478   121.22625205   347.81569326
 C     64  63  53     2.636096252049   120.37405433   132.23570252
 C     65  64  63     2.605788134880   120.80013840   175.69722227
 C     66  65  64     2.632864868395   119.98821140     1.38231091
 C     67  66  65     2.638844538332   119.36427460   359.92526010
 C     68  67  66     2.599586452001   120.47138507   359.26865990
 C     67  66  65     2.783683533694   122.86998765   182.46297928
 O     70  67  66     2.274554702509   125.08216712   174.53065087
 O     70  67  66     2.566348738003   114.23355184   354.10094140
 C     63  53  52     2.690982223382   119.47889575   166.92224505
 C     73  63  53     2.587315840690   128.57878644   160.36030677
 C     74  73  63     2.738634993249   124.97193212   168.16447457
 C     75  74  73     2.595033037113   127.61285099    19.78172241
 C     76  75  74     2.670550385718   123.65001848   181.04735807
 N     77  76  75     2.167898759369   176.51655327   169.52395303
 C     76  75  74     2.654336746756   126.50506467     6.71886152
 N     79  76  75     2.175237478986   172.71030430   146.94655100
 C     75  74  73     2.762084438475   107.29384502   195.39496190
 C     81  75  74     2.657327094685   108.60520776   350.28438040
 C     82  81  75     2.795525605295   109.46436602     1.26550335
 O     83  82  81     2.287586452120   126.73902652   192.07972221
 C     82  81  75     2.605334929687   121.87155239   181.63191571
 C     85  82  81     2.627185748613   118.28355892   359.03265393
 C     86  85  82     2.645960301352   120.24190463     0.36865218
 C     81  75  74     2.617050673742   131.62227866   171.20225764
 Cl    87  86  85     3.241958516289   119.77483862   180.21968429
 Cl    86  85  82     3.239973834630   119.76443430   180.40876371
 H      9   8   7     2.037997770432   120.62950201   180.47572814
 H     12   7   1     2.036056740855   122.24468658     0.69719569
 H     18  17   1     2.044446968279   116.01528372     5.48172672
 H     21  20  19     2.041369347319   119.47149178   359.50235522
 H     22  21  20     2.044946228847   119.05808197   179.74874530
 H     24  23  22     2.039246303756   118.65719014   179.00684428
 H     25  24  23     2.041295983080   120.20174241   181.26119846
 H     28  26  23     1.826490486901   112.30105812     4.82492186
 H     31  30  29     2.041346796528   119.38125752     4.11406821
 H     32  31  30     2.039621156231   121.09218567   180.04927508
 H     34  33  32     2.038383306623   121.83770095   179.11758576
 H     35  34  33     2.041162630950   119.83004873   179.30786403
 H     38  36  33     1.832331689374   114.74845749   357.40657327
 H     40  39  29     2.044699612803   116.71510920     3.19984974
 H     43  42  41     2.038414601809   122.56323776   179.76241429
 H     47  46  45     2.029953277324   125.74793838   178.20312262
 H     48  47  46     2.026632636226   127.48708409   180.14210245
 H     51  50  41     2.044410119523   116.63351972   345.70367140
 H     52  51  50     2.042882708019   118.05730150   354.15402011
 H     55  54  53     2.041681445759   119.40214951     5.10308056
 H     56  55  54     2.039395035446   120.80764590   177.69694530
 H     58  57  56     2.041313563094   120.01440760   183.81920112
 H     59  58  57     2.041496280244   120.15091306   180.27768912
 H     62  60  57     1.854177406757   112.45588691     6.24435079
 H     65  64  63     2.043397370424   119.66609536   357.24416769
 H     66  65  64     2.035655581603   119.44911587   183.93077789
 H     68  67  66     2.039431227834   118.50901416   181.02610594
 H     69  68  67     2.039357256818   120.13827036   182.62558430
 H     72  70  67     1.835277218344   108.66855814   174.79903229
 H     73  63  53     2.050146069911   115.17656567   336.63978481
 H     85  82  81     2.037955806262   120.67403846   179.28739651
 H     88  81  75     2.036309592208   122.30096723   358.41572620

---------------------
BASIS SET INFORMATION
---------------------
There are 6 groups of distinct atoms

 Group   1 Type C   : 7s4p1d contracted to 3s2p1d pattern {511/31/1}
 Group   2 Type N   : 7s4p1d contracted to 3s2p1d pattern {511/31/1}
 Group   3 Type Cl  : 10s7p1d contracted to 4s3p1d pattern {5311/511/1}
 Group   4 Type O   : 7s4p1d contracted to 3s2p1d pattern {511/31/1}
 Group   5 Type S   : 10s7p1d contracted to 4s3p1d pattern {5311/511/1}
 Group   6 Type H   : 4s1p contracted to 2s1p pattern {31/1}

Atom   0C    basis set group =>   1
Atom   1C    basis set group =>   1
Atom   2C    basis set group =>   1
Atom   3N    basis set group =>   2
Atom   4C    basis set group =>   1
Atom   5N    basis set group =>   2
Atom   6C    basis set group =>   1
Atom   7C    basis set group =>   1
Atom   8C    basis set group =>   1
Atom   9C    basis set group =>   1
Atom  10C    basis set group =>   1
Atom  11C    basis set group =>   1
Atom  12Cl   basis set group =>   3
Atom  13Cl   basis set group =>   3
Atom  14C    basis set group =>   1
Atom  15O    basis set group =>   4
Atom  16C    basis set group =>   1
Atom  17C    basis set group =>   1
Atom  18C    basis set group =>   1
Atom  19C    basis set group =>   1
Atom  20C    basis set group =>   1
Atom  21C    basis set group =>   1
Atom  22C    basis set group =>   1
Atom  23C    basis set group =>   1
Atom  24C    basis set group =>   1
Atom  25C    basis set group =>   1
Atom  26O    basis set group =>   4
Atom  27O    basis set group =>   4
Atom  28C    basis set group =>   1
Atom  29C    basis set group =>   1
Atom  30C    basis set group =>   1
Atom  31C    basis set group =>   1
Atom  32C    basis set group =>   1
Atom  33C    basis set group =>   1
Atom  34C    basis set group =>   1
Atom  35C    basis set group =>   1
Atom  36O    basis set group =>   4
Atom  37O    basis set group =>   4
Atom  38C    basis set group =>   1
Atom  39C    basis set group =>   1
Atom  40C    basis set group =>   1
Atom  41C    basis set group =>   1
Atom  42C    basis set group =>   1
Atom  43S    basis set group =>   5
Atom  44C    basis set group =>   1
Atom  45C    basis set group =>   1
Atom  46C    basis set group =>   1
Atom  47C    basis set group =>   1
Atom  48S    basis set group =>   5
Atom  49C    basis set group =>   1
Atom  50C    basis set group =>   1
Atom  51C    basis set group =>   1
Atom  52C    basis set group =>   1
Atom  53C    basis set group =>   1
Atom  54C    basis set group =>   1
Atom  55C    basis set group =>   1
Atom  56C    basis set group =>   1
Atom  57C    basis set group =>   1
Atom  58C    basis set group =>   1
Atom  59C    basis set group =>   1
Atom  60O    basis set group =>   4
Atom  61O    basis set group =>   4
Atom  62C    basis set group =>   1
Atom  63C    basis set group =>   1
Atom  64C    basis set group =>   1
Atom  65C    basis set group =>   1
Atom  66C    basis set group =>   1
Atom  67C    basis set group =>   1
Atom  68C    basis set group =>   1
Atom  69C    basis set group =>   1
Atom  70O    basis set group =>   4
Atom  71O    basis set group =>   4
Atom  72C    basis set group =>   1
Atom  73C    basis set group =>   1
Atom  74C    basis set group =>   1
Atom  75C    basis set group =>   1
Atom  76C    basis set group =>   1
Atom  77N    basis set group =>   2
Atom  78C    basis set group =>   1
Atom  79N    basis set group =>   2
Atom  80C    basis set group =>   1
Atom  81C    basis set group =>   1
Atom  82C    basis set group =>   1
Atom  83O    basis set group =>   4
Atom  84C    basis set group =>   1
Atom  85C    basis set group =>   1
Atom  86C    basis set group =>   1
Atom  87C    basis set group =>   1
Atom  88Cl   basis set group =>   3
Atom  89Cl   basis set group =>   3
Atom  90H    basis set group =>   6
Atom  91H    basis set group =>   6
Atom  92H    basis set group =>   6
Atom  93H    basis set group =>   6
Atom  94H    basis set group =>   6
Atom  95H    basis set group =>   6
Atom  96H    basis set group =>   6
Atom  97H    basis set group =>   6
Atom  98H    basis set group =>   6
Atom  99H    basis set group =>   6
Atom 100H    basis set group =>   6
Atom 101H    basis set group =>   6
Atom 102H    basis set group =>   6
Atom 103H    basis set group =>   6
Atom 104H    basis set group =>   6
Atom 105H    basis set group =>   6
Atom 106H    basis set group =>   6
Atom 107H    basis set group =>   6
Atom 108H    basis set group =>   6
Atom 109H    basis set group =>   6
Atom 110H    basis set group =>   6
Atom 111H    basis set group =>   6
Atom 112H    basis set group =>   6
Atom 113H    basis set group =>   6
Atom 114H    basis set group =>   6
Atom 115H    basis set group =>   6
Atom 116H    basis set group =>   6
Atom 117H    basis set group =>   6
Atom 118H    basis set group =>   6
Atom 119H    basis set group =>   6
Atom 120H    basis set group =>   6
Atom 121H    basis set group =>   6
---------------------------------
AUXILIARY/J BASIS SET INFORMATION
---------------------------------
There are 6 groups of distinct atoms

 Group   1 Type C   : 12s5p4d2f1g contracted to 6s4p3d1f1g pattern {711111/2111/211/2/1}
 Group   2 Type N   : 12s5p4d2f1g contracted to 6s4p3d1f1g pattern {711111/2111/211/2/1}
 Group   3 Type Cl  : 14s5p5d2f1g contracted to 8s4p3d1f1g pattern {71111111/2111/311/2/1}
 Group   4 Type O   : 12s5p4d2f1g contracted to 6s4p3d1f1g pattern {711111/2111/211/2/1}
 Group   5 Type S   : 14s5p5d2f1g contracted to 8s4p3d1f1g pattern {71111111/2111/311/2/1}
 Group   6 Type H   : 5s2p1d contracted to 3s1p1d pattern {311/2/1}

Atom   0C    basis set group =>   1
Atom   1C    basis set group =>   1
Atom   2C    basis set group =>   1
Atom   3N    basis set group =>   2
Atom   4C    basis set group =>   1
Atom   5N    basis set group =>   2
Atom   6C    basis set group =>   1
Atom   7C    basis set group =>   1
Atom   8C    basis set group =>   1
Atom   9C    basis set group =>   1
Atom  10C    basis set group =>   1
Atom  11C    basis set group =>   1
Atom  12Cl   basis set group =>   3
Atom  13Cl   basis set group =>   3
Atom  14C    basis set group =>   1
Atom  15O    basis set group =>   4
Atom  16C    basis set group =>   1
Atom  17C    basis set group =>   1
Atom  18C    basis set group =>   1
Atom  19C    basis set group =>   1
Atom  20C    basis set group =>   1
Atom  21C    basis set group =>   1
Atom  22C    basis set group =>   1
Atom  23C    basis set group =>   1
Atom  24C    basis set group =>   1
Atom  25C    basis set group =>   1
Atom  26O    basis set group =>   4
Atom  27O    basis set group =>   4
Atom  28C    basis set group =>   1
Atom  29C    basis set group =>   1
Atom  30C    basis set group =>   1
Atom  31C    basis set group =>   1
Atom  32C    basis set group =>   1
Atom  33C    basis set group =>   1
Atom  34C    basis set group =>   1
Atom  35C    basis set group =>   1
Atom  36O    basis set group =>   4
Atom  37O    basis set group =>   4
Atom  38C    basis set group =>   1
Atom  39C    basis set group =>   1
Atom  40C    basis set group =>   1
Atom  41C    basis set group =>   1
Atom  42C    basis set group =>   1
Atom  43S    basis set group =>   5
Atom  44C    basis set group =>   1
Atom  45C    basis set group =>   1
Atom  46C    basis set group =>   1
Atom  47C    basis set group =>   1
Atom  48S    basis set group =>   5
Atom  49C    basis set group =>   1
Atom  50C    basis set group =>   1
Atom  51C    basis set group =>   1
Atom  52C    basis set group =>   1
Atom  53C    basis set group =>   1
Atom  54C    basis set group =>   1
Atom  55C    basis set group =>   1
Atom  56C    basis set group =>   1
Atom  57C    basis set group =>   1
Atom  58C    basis set group =>   1
Atom  59C    basis set group =>   1
Atom  60O    basis set group =>   4
Atom  61O    basis set group =>   4
Atom  62C    basis set group =>   1
Atom  63C    basis set group =>   1
Atom  64C    basis set group =>   1
Atom  65C    basis set group =>   1
Atom  66C    basis set group =>   1
Atom  67C    basis set group =>   1
Atom  68C    basis set group =>   1
Atom  69C    basis set group =>   1
Atom  70O    basis set group =>   4
Atom  71O    basis set group =>   4
Atom  72C    basis set group =>   1
Atom  73C    basis set group =>   1
Atom  74C    basis set group =>   1
Atom  75C    basis set group =>   1
Atom  76C    basis set group =>   1
Atom  77N    basis set group =>   2
Atom  78C    basis set group =>   1
Atom  79N    basis set group =>   2
Atom  80C    basis set group =>   1
Atom  81C    basis set group =>   1
Atom  82C    basis set group =>   1
Atom  83O    basis set group =>   4
Atom  84C    basis set group =>   1
Atom  85C    basis set group =>   1
Atom  86C    basis set group =>   1
Atom  87C    basis set group =>   1
Atom  88Cl   basis set group =>   3
Atom  89Cl   basis set group =>   3
Atom  90H    basis set group =>   6
Atom  91H    basis set group =>   6
Atom  92H    basis set group =>   6
Atom  93H    basis set group =>   6
Atom  94H    basis set group =>   6
Atom  95H    basis set group =>   6
Atom  96H    basis set group =>   6
Atom  97H    basis set group =>   6
Atom  98H    basis set group =>   6
Atom  99H    basis set group =>   6
Atom 100H    basis set group =>   6
Atom 101H    basis set group =>   6
Atom 102H    basis set group =>   6
Atom 103H    basis set group =>   6
Atom 104H    basis set group =>   6
Atom 105H    basis set group =>   6
Atom 106H    basis set group =>   6
Atom 107H    basis set group =>   6
Atom 108H    basis set group =>   6
Atom 109H    basis set group =>   6
Atom 110H    basis set group =>   6
Atom 111H    basis set group =>   6
Atom 112H    basis set group =>   6
Atom 113H    basis set group =>   6
Atom 114H    basis set group =>   6
Atom 115H    basis set group =>   6
Atom 116H    basis set group =>   6
Atom 117H    basis set group =>   6
Atom 118H    basis set group =>   6
Atom 119H    basis set group =>   6
Atom 120H    basis set group =>   6
Atom 121H    basis set group =>   6


           ************************************************************
           *        Program running with 6 parallel MPI-processes     *
           *              working on a common directory               *
           ************************************************************
------------------------------------------------------------------------------
                           ORCA GTO INTEGRAL CALCULATION
                           -- RI-GTO INTEGRALS CHOSEN --
------------------------------------------------------------------------------

                         BASIS SET STATISTICS AND STARTUP INFO

Gaussian basis set:
 # of primitive gaussian shells          ... 1276
 # of primitive gaussian functions       ... 2456
 # of contracted shells                  ...  648
 # of contracted basis functions         ... 1444
 Highest angular momentum                ...    2
 Maximum contraction depth               ...    5
Auxiliary gaussian basis set:
 # of primitive gaussian shells          ... 2434
 # of primitive gaussian functions       ... 6854
 # of contracted shells                  ... 1522
 # of contracted aux-basis functions     ... 4774
 Highest angular momentum                ...    4
 Maximum contraction depth               ...    7
Ratio of auxiliary to basis functions    ...  3.31
Integral package used                  ... LIBINT
 One Electron integrals                  ... done
 Ordering auxiliary basis shells         ... done
 Integral threshhold             Thresh  ...  2.500e-11
 Primitive cut-off               TCut    ...  2.500e-12
 Pre-screening matrix                    ... done
 Shell pair data                         ... 
 Ordering of the shell pairs             ... done (   0.016 sec) 73846 of 210276 pairs
 Determination of significant pairs      ... done (   0.000 sec)
 Creation of shell pair data             ... done (   0.009 sec)
 Storage of shell pair data              ... done (   0.054 sec)
 Shell pair data done in (   0.079 sec)
 Computing two index integrals           ... done
 Cholesky decomposition of the V-matrix  ... done


Timings:
 Total evaluation time                   ...   3.617 sec (  0.060 min)
 One electron matrix time                ...   1.024 sec (  0.017 min) = 28.3%
 Schwartz matrix evaluation time         ...   0.959 sec (  0.016 min) = 26.5%
 Two index repulsion integral time       ...   0.549 sec (  0.009 min) = 15.2%
 Cholesky decomposition of V             ...   0.988 sec (  0.016 min) = 27.3%
 Three index repulsion integral time     ...   0.000 sec (  0.000 min) =  0.0%



           ************************************************************
           *        Program running with 6 parallel MPI-processes     *
           *              working on a common directory               *
           ************************************************************
-------------------------------------------------------------------------------
                                 ORCA SCF
-------------------------------------------------------------------------------

------------
SCF SETTINGS
------------
Hamiltonian:
 Density Functional     Method          .... DFT(GTOs)
 Exchange Functional    Exchange        .... WB88
 Correlation Functional Correlation     .... LYP
 LDA part of GGA corr.  LDAOpt          .... VWN-5
 Gradients option       PostSCFGGA      .... off
 Hybrid DFT is turned on
   Fraction HF Exchange ScalHFX         ....  0.190000
   Scaling of DF-GGA-X  ScalDFX         ....  0.350000
   Scaling of DF-GGA-C  ScalDFC         ....  0.810000
   Scaling of DF-LDA-C  ScalLDAC        ....  1.000000
   Perturbative correction              ....  0.000000
   Density functional embedding theory  .... OFF
 Long-range corrected/Screened/Range-Separated Hybrid DFT is turned on
   Amount of maximum screened exact exchange              ....  0.460000
   Range separation parameter mu (erf(mu*r12)/r12)        ....  0.330000
 RI-approximation to the Coulomb term is turned on
   Number of auxiliary basis functions  .... 4774
   RIJ-COSX (HFX calculated with COS-X)).... on


General Settings:
 Integral files         IntName         .... xtbopt
 Hartree-Fock type      HFTyp           .... RHF
 Total Charge           Charge          ....    0
 Multiplicity           Mult            ....    1
 Number of Electrons    NEL             ....  660
 Basis Dimension        Dim             .... 1444
 Nuclear Repulsion      ENuc            ....  16597.9922316015 Eh

Convergence Acceleration:
 DIIS                   CNVDIIS         .... on
   Start iteration      DIISMaxIt       ....    12
   Startup error        DIISStart       ....  0.200000
   # of expansion vecs  DIISMaxEq       ....     5
   Bias factor          DIISBfac        ....   1.050
   Max. coefficient     DIISMaxC        ....  10.000
 Newton-Raphson         CNVNR           .... off
 SOSCF                  CNVSOSCF        .... on
   Start iteration      SOSCFMaxIt      ....   150
   Startup grad/error   SOSCFStart      ....  0.003300
 Level Shifting         CNVShift        .... on
   Level shift para.    LevelShift      ....    0.2500
   Turn off err/grad.   ShiftErr        ....    0.0010
 Zerner damping         CNVZerner       .... off
 Static damping         CNVDamp         .... on
   Fraction old density DampFac         ....    0.7000
   Max. Damping (<1)    DampMax         ....    0.9800
   Min. Damping (>=0)   DampMin         ....    0.0000
   Turn off err/grad.   DampErr         ....    0.1000
 Fernandez-Rico         CNVRico         .... off

SCF Procedure:
 Maximum # iterations   MaxIter         ....   125
 SCF integral mode      SCFMode         .... Direct
   Integral package                     .... LIBINT
 Reset frequency        DirectResetFreq ....    20
 Integral Threshold     Thresh          ....  2.500e-11 Eh
 Primitive CutOff       TCut            ....  2.500e-12 Eh

Convergence Tolerance:
 Convergence Check Mode ConvCheckMode   .... Total+1el-Energy
 Convergence forced     ConvForced      .... 1
 Energy Change          TolE            ....  1.000e-08 Eh
 1-El. energy change                    ....  1.000e-05 Eh
 Orbital Gradient       TolG            ....  1.000e-05
 Orbital Rotation angle TolX            ....  1.000e-05
 DIIS Error             TolErr          ....  5.000e-07


Diagonalization of the overlap matrix:
Smallest eigenvalue                        ... 1.989e-04
Time for diagonalization                   ...    0.341 sec
Threshold for overlap eigenvalues          ... 1.000e-08
Number of eigenvalues below threshold      ... 0
Time for construction of square roots      ...    0.232 sec
Total time needed                          ...    0.578 sec

-------------------
DFT GRID GENERATION
-------------------

General Integration Accuracy     IntAcc      ...  4.670
Radial Grid Type                 RadialGrid  ... Gauss-Chebyshev
Angular Grid (max. acc.)         AngularGrid ... Lebedev-302
Angular grid pruning method      GridPruning ... 3 (G Style)
Weight generation scheme         WeightScheme... Becke
Basis function cutoff            BFCut       ...    1.0000e-11
Integration weight cutoff        WCut        ...    1.0000e-14
Grids for H and He will be reduced by one unit

# of grid points (after initial pruning)     ... 671060 (   0.0 sec)
# of grid points (after weights+screening)   ... 560986 (  10.6 sec)
nearest neighbour list constructed           ...    0.0 sec
Grid point re-assignment to atoms done       ...    0.1 sec
Grid point division into batches done        ...    2.0 sec
Reduced shell lists constructed in    3.4 sec

Total number of grid points                  ...   560986
Total number of batches                      ...     8825
Average number of points per batch           ...       63
Average number of grid points per atom       ...     4598
Average number of shells per batch           ...   101.83 (15.71%)
Average number of basis functions per batch  ...   213.37 (14.78%)
Average number of large shells per batch     ...    59.82 (58.75%)
Average number of large basis fcns per batch ...   127.96 (59.97%)
Maximum spatial batch extension              ...  16.44, 19.66, 21.55 au
Average spatial batch extension              ...   0.35,  0.35,  0.36 au

Time for grid setup =   14.943 sec

------------------------------
INITIAL GUESS: MODEL POTENTIAL
------------------------------
Loading Hartree-Fock densities                     ... done
Calculating cut-offs                               ... done
Setting up the integral package                    ... done
Initializing the effective Hamiltonian             ... done
Starting the Coulomb interaction                   ... done (   2.7 sec)
Reading the grid                                   ... done
Mapping shells                                     ... done
Starting the XC term evaluation                    ... done (   2.2 sec)
  promolecular density results
     # of electrons  =    659.982277421
     EX              =   -634.782574312
     EC              =    -22.982304004
     EX+EC           =   -657.764878315
Transforming the Hamiltonian                       ... done (   0.1 sec)
Diagonalizing the Hamiltonian                      ... done (   0.3 sec)
Back transforming the eigenvectors                 ... done (   0.1 sec)
Now organizing SCF variables                       ... done
                      ------------------
                      INITIAL GUESS DONE (  20.5 sec)
                      ------------------
--------------------
COSX GRID GENERATION
--------------------

General Integration Accuracy     IntAcc      ...  3.340
Radial Grid Type                 RadialGrid  ... Gauss-Chebyshev
Angular Grid (max. acc.)         AngularGrid ... Lebedev-50
Angular grid pruning method      GridPruning ... 3 (G Style)
Weight generation scheme         WeightScheme... Becke
Basis function cutoff            BFCut       ...    1.0000e-11
Integration weight cutoff        WCut        ...    1.0000e-14
Grids for H and He will be reduced by one unit

# of grid points (after initial pruning)     ...  63140 (   0.0 sec)
# of grid points (after weights+screening)   ...  55621 (   1.0 sec)
nearest neighbour list constructed           ...    0.0 sec
Grid point re-assignment to atoms done       ...    0.0 sec
Grid point division into batches done        ...    0.0 sec
Reduced shell lists constructed in    0.2 sec

Total number of grid points                  ...    55621
Total number of batches                      ...      934
Average number of points per batch           ...       59
Average number of grid points per atom       ...      456
Average number of shells per batch           ...   123.28 (19.02%)
Average number of basis functions per batch  ...   261.01 (18.08%)
Average number of large shells per batch     ...    71.84 (58.27%)
Average number of large basis fcns per batch ...   155.79 (59.69%)
Maximum spatial batch extension              ...  19.72, 19.54, 17.70 au
Average spatial batch extension              ...   0.71,  0.69,  0.76 au

Overlap Fitting                  UseSFitting ... on
Constructing numerical overlap ... done (      0.2 sec)
Inverting numerical overlap    ... done (      0.1 sec)
Obtaining analytic overlap     ... done (      0.0 sec)
Final contraction and storage  ... done (      0.1 sec)


General Integration Accuracy     IntAcc      ...  3.670
Radial Grid Type                 RadialGrid  ... Gauss-Chebyshev
Angular Grid (max. acc.)         AngularGrid ... Lebedev-50
Angular grid pruning method      GridPruning ... 3 (G Style)
Weight generation scheme         WeightScheme... Becke
Basis function cutoff            BFCut       ...    1.0000e-11
Integration weight cutoff        WCut        ...    1.0000e-14
Grids for H and He will be reduced by one unit

# of grid points (after initial pruning)     ...  78620 (   0.0 sec)
# of grid points (after weights+screening)   ...  68928 (   1.2 sec)
nearest neighbour list constructed           ...    0.0 sec
Grid point re-assignment to atoms done       ...    0.0 sec
Grid point division into batches done        ...    0.0 sec
Reduced shell lists constructed in    0.3 sec

Total number of grid points                  ...    68928
Total number of batches                      ...     1139
Average number of points per batch           ...       60
Average number of grid points per atom       ...      565
Average number of shells per batch           ...   122.65 (18.93%)
Average number of basis functions per batch  ...   259.20 (17.95%)
Average number of large shells per batch     ...    71.23 (58.07%)
Average number of large basis fcns per batch ...   154.16 (59.47%)
Maximum spatial batch extension              ...  19.85, 24.11, 19.30 au
Average spatial batch extension              ...   0.67,  0.63,  0.72 au

Overlap Fitting                  UseSFitting ... on
Constructing numerical overlap ... done (      0.2 sec)
Inverting numerical overlap    ... done (      0.1 sec)
Obtaining analytic overlap     ... done (      0.0 sec)
Final contraction and storage  ... done (      0.1 sec)


General Integration Accuracy     IntAcc      ...  4.010
Radial Grid Type                 RadialGrid  ... Gauss-Chebyshev
Angular Grid (max. acc.)         AngularGrid ... Lebedev-110
Angular grid pruning method      GridPruning ... 3 (G Style)
Weight generation scheme         WeightScheme... Becke
Basis function cutoff            BFCut       ...    1.0000e-11
Integration weight cutoff        WCut        ...    1.0000e-14
Grids for H and He will be reduced by one unit

# of grid points (after initial pruning)     ... 154116 (   0.0 sec)
# of grid points (after weights+screening)   ... 133479 (   2.5 sec)
nearest neighbour list constructed           ...    0.0 sec
Grid point re-assignment to atoms done       ...    0.0 sec
Grid point division into batches done        ...    0.1 sec
Reduced shell lists constructed in    0.5 sec

Total number of grid points                  ...   133479
Total number of batches                      ...     2143
Average number of points per batch           ...       62
Average number of grid points per atom       ...     1094
Average number of shells per batch           ...   112.74 (17.40%)
Average number of basis functions per batch  ...   237.94 (16.48%)
Average number of large shells per batch     ...    66.35 (58.86%)
Average number of large basis fcns per batch ...   143.22 (60.19%)
Maximum spatial batch extension              ...  19.95, 20.22, 22.79 au
Average spatial batch extension              ...   0.57,  0.55,  0.61 au

Overlap Fitting                  UseSFitting ... on
Constructing numerical overlap ... done (      0.3 sec)
Inverting numerical overlap    ... done (      0.1 sec)
Obtaining analytic overlap     ... done (      0.0 sec)
Final contraction and storage  ... done (      0.1 sec)

Time for X-Grid setup             =    7.559 sec
--------------
SCF ITERATIONS
--------------
ITER       Energy         Delta-E        Max-DP      RMS-DP      [F,P]     Damp
               ***  Starting incremental Fock matrix formation  ***
  0  -6288.0439712296   0.000000000000 0.07893104  0.00092918  0.2460859 0.7000
  1  -6288.8034452093  -0.759473979675 0.05508679  0.00064834  0.1098812 0.7000
                               ***Turning on DIIS***
  2  -6289.1195916172  -0.316146407895 0.11719329  0.00114701  0.0403255 0.0000
  3  -6289.6530108540  -0.533419236830 0.06843227  0.00048450  0.0556133 0.0000
  4  -6289.7464667251  -0.093455871129 0.01577092  0.00014517  0.0224848 0.0000
  5  -6289.7541764745  -0.007709749347 0.00621024  0.00006128  0.0066656 0.0000
  6  -6289.7553951394  -0.001218664906 0.00339753  0.00003288  0.0024272 0.0000
                      *** Initiating the SOSCF procedure ***
                           *** Shutting down DIIS ***
                      *** Re-Reading the Fockian *** 
                      *** Removing any level shift *** 
ITER      Energy       Delta-E        Grad      Rot      Max-DP    RMS-DP
  7  -6289.75595023  -0.0005550945  0.003066  0.003066  0.002645  0.000022
               *** Restarting incremental Fock matrix formation ***
  8  -6289.75616856  -0.0002183238  0.002265  0.015222  0.003116  0.000030
  9  -6289.75639594  -0.0002273837  0.000726  0.015714  0.004113  0.000039
 10  -6289.75642611  -0.0000301730  0.000440  0.003465  0.001060  0.000012
 11  -6289.75647478  -0.0000486622  0.000157  0.001494  0.001877  0.000008
 12  -6289.75647528  -0.0000005060  0.000140  0.000749  0.000711  0.000004
 13  -6289.75647920  -0.0000039178  0.000038  0.000378  0.000522  0.000002
 14  -6289.75647907   0.0000001340  0.000039  0.000192  0.000256  0.000001
 15  -6289.75647947  -0.0000004071  0.000008  0.000071  0.000063  0.000000
 16  -6289.75647957  -0.0000000936  0.000008  0.000060  0.000032  0.000000
                  ***Gradient check signals convergence***
              ***Rediagonalizing the Fockian in SOSCF/NRSCF***

               *****************************************************
               *                     SUCCESS                       *
               *           SCF CONVERGED AFTER  17 CYCLES          *
               *****************************************************

Setting up the final grid:

General Integration Accuracy     IntAcc      ...  5.010
Radial Grid Type                 RadialGrid  ... Gauss-Chebyshev
Angular Grid (max. acc.)         AngularGrid ... Lebedev-434
Angular grid pruning method      GridPruning ... 3 (G Style)
Weight generation scheme         WeightScheme... Becke
Basis function cutoff            BFCut       ...    1.0000e-11
Integration weight cutoff        WCut        ...    1.0000e-14
Grids for H and He will be reduced by one unit

# of grid points (after initial pruning)     ... 1184800 (   0.1 sec)
# of grid points (after weights+screening)   ... 986932 (  18.2 sec)
nearest neighbour list constructed           ...    0.0 sec
Grid point re-assignment to atoms done       ...    0.1 sec
Grid point division into batches done        ...    6.3 sec
Reduced shell lists constructed in    8.7 sec

Total number of grid points                  ...   986932
Total number of batches                      ...    15486
Average number of points per batch           ...       63
Average number of grid points per atom       ...     8090
Average number of shells per batch           ...    99.83 (15.41%)
Average number of basis functions per batch  ...   208.70 (14.45%)
Average number of large shells per batch     ...    58.73 (58.83%)
Average number of large basis fcns per batch ...   125.31 (60.04%)
Maximum spatial batch extension              ...  21.26, 19.84, 20.80 au
Average spatial batch extension              ...   0.29,  0.28,  0.30 au

Final grid set up in   28.6 sec
Final integration                            ... done (   5.3 sec)
Change in XC energy                          ...    -0.000109844
Integrated number of electrons               ...   659.999778596
Previous integrated no of electrons          ...   659.998972512
Old exchange energy                            =   -174.108867786 Eh
New exchange energy                            =   -174.105931489 Eh
Exchange energy change after final integration =      0.002936297 Eh
Total energy after final integration           =  -6289.753653033 Eh
Final COS-X integration done in                =   111.982 sec

----------------
TOTAL SCF ENERGY
----------------

Total Energy       :        -6289.75365303 Eh         -171152.89814 eV

Components:
Nuclear Repulsion  :        16597.99223160 Eh          451654.33028 eV
Electronic Energy  :       -22887.74588463 Eh         -622807.22843 eV
One Electron Energy:       -41695.89897301 Eh        -1134603.09316 eV
Two Electron Energy:        18808.15308838 Eh          511795.86473 eV

Virial components:
Potential Energy   :       -12540.91658201 Eh         -341255.68930 eV
Kinetic Energy     :         6251.16292898 Eh          170102.79116 eV
Virial Ratio       :            2.00617337


DFT components:
N(Alpha)           :      329.999889298036 electrons
N(Beta)            :      329.999889298036 electrons
N(Total)           :      659.999778596073 electrons
E(XC)              :     -493.835613151700 Eh       
DFET-embed. en.    :        0.000000000000 Eh       

---------------
SCF CONVERGENCE
---------------

  Last Energy change         ...    8.0614e-08  Tolerance :   1.0000e-08
  Last MAX-Density change    ...    7.9936e-15  Tolerance :   1.0000e-07
  Last RMS-Density change    ...    3.6002e-17  Tolerance :   5.0000e-09
  Last Orbital Gradient      ...    2.0473e-06  Tolerance :   1.0000e-05
  Last Orbital Rotation      ...    2.5844e-05  Tolerance :   1.0000e-05

             **** THE GBW FILE WAS UPDATED (xtbopt.gbw) ****
             **** DENSITY FILE WAS UPDATED (xtbopt.scfp) ****
             **** ENERGY FILE WAS UPDATED (xtbopt.en.tmp) ****
             **** THE GBW FILE WAS UPDATED (xtbopt.gbw) ****
             **** DENSITY FILE WAS UPDATED (xtbopt.scfp) ****
----------------
ORBITAL ENERGIES
----------------

  NO   OCC          E(Eh)            E(eV) 
   0   2.0000    -101.609178     -2764.9263 
   1   2.0000    -101.607233     -2764.8734 
   2   2.0000    -101.604192     -2764.7906 
   3   2.0000    -101.601942     -2764.7294 
   4   2.0000     -89.000473     -2421.8260 
   5   2.0000     -88.976292     -2421.1680 
   6   2.0000     -19.293251      -524.9960 
   7   2.0000     -19.264779      -524.2213 
   8   2.0000     -19.262684      -524.1643 
   9   2.0000     -19.232932      -523.3547 
  10   2.0000     -19.232775      -523.3504 
  11   2.0000     -19.225440      -523.1508 
  12   2.0000     -19.222849      -523.0803 
  13   2.0000     -19.201521      -522.5000 
  14   2.0000     -19.200612      -522.4752 
  15   2.0000     -19.181430      -521.9532 
  16   2.0000     -14.444218      -393.0472 
  17   2.0000     -14.434162      -392.7735 
  18   2.0000     -14.427622      -392.5956 
  19   2.0000     -14.423083      -392.4720 
  20   2.0000     -10.423170      -283.6289 
  21   2.0000     -10.406595      -283.1778 
  22   2.0000     -10.405297      -283.1425 
  23   2.0000     -10.385074      -282.5922 
  24   2.0000     -10.384550      -282.5780 
  25   2.0000     -10.376851      -282.3685 
  26   2.0000     -10.366236      -282.0796 
  27   2.0000     -10.365701      -282.0651 
  28   2.0000     -10.361117      -281.9403 
  29   2.0000     -10.360089      -281.9124 
  30   2.0000     -10.359730      -281.9026 
  31   2.0000     -10.358058      -281.8571 
  32   2.0000     -10.357101      -281.8310 
  33   2.0000     -10.354001      -281.7467 
  34   2.0000     -10.351808      -281.6870 
  35   2.0000     -10.350967      -281.6641 
  36   2.0000     -10.348988      -281.6103 
  37   2.0000     -10.337822      -281.3064 
  38   2.0000     -10.336549      -281.2718 
  39   2.0000     -10.330943      -281.1193 
  40   2.0000     -10.329909      -281.0911 
  41   2.0000     -10.327198      -281.0173 
  42   2.0000     -10.326844      -281.0077 
  43   2.0000     -10.326286      -280.9925 
  44   2.0000     -10.326229      -280.9910 
  45   2.0000     -10.322913      -280.9007 
  46   2.0000     -10.321620      -280.8656 
  47   2.0000     -10.321586      -280.8646 
  48   2.0000     -10.320626      -280.8385 
  49   2.0000     -10.319466      -280.8070 
  50   2.0000     -10.318894      -280.7914 
  51   2.0000     -10.316070      -280.7145 
  52   2.0000     -10.315263      -280.6926 
  53   2.0000     -10.315212      -280.6912 
  54   2.0000     -10.314583      -280.6741 
  55   2.0000     -10.313964      -280.6572 
  56   2.0000     -10.313845      -280.6540 
  57   2.0000     -10.312347      -280.6132 
  58   2.0000     -10.310993      -280.5764 
  59   2.0000     -10.310210      -280.5551 
  60   2.0000     -10.307383      -280.4782 
  61   2.0000     -10.307269      -280.4751 
  62   2.0000     -10.306989      -280.4674 
  63   2.0000     -10.306342      -280.4498 
  64   2.0000     -10.305509      -280.4272 
  65   2.0000     -10.304716      -280.4056 
  66   2.0000     -10.304232      -280.3924 
  67   2.0000     -10.303558      -280.3741 
  68   2.0000     -10.302677      -280.3501 
  69   2.0000     -10.302110      -280.3347 
  70   2.0000     -10.301327      -280.3133 
  71   2.0000     -10.300784      -280.2986 
  72   2.0000     -10.299651      -280.2678 
  73   2.0000     -10.297417      -280.2069 
  74   2.0000     -10.296996      -280.1955 
  75   2.0000     -10.296128      -280.1719 
  76   2.0000     -10.295533      -280.1557 
  77   2.0000     -10.295181      -280.1461 
  78   2.0000     -10.294185      -280.1190 
  79   2.0000     -10.293946      -280.1125 
  80   2.0000     -10.293827      -280.1093 
  81   2.0000     -10.293472      -280.0996 
  82   2.0000     -10.292135      -280.0632 
  83   2.0000     -10.291862      -280.0558 
  84   2.0000     -10.291600      -280.0487 
  85   2.0000     -10.289660      -279.9959 
  86   2.0000     -10.289516      -279.9920 
[...]
  62   4.898     253.1   0.125859   0.105011  16.010547  13.199340     0.16 ( 109-> 126)    0.06 ( 119-> 126)    0.05 ( 110-> 126)
  63   4.927     251.6   0.037576   0.029378  27.815937  24.202102     0.24 ( 110-> 127)    0.21 ( 110-> 126)    0.04 ( 103-> 127)
  64   4.934     251.3   0.019303   0.016527  12.851790  10.983978     0.10 ( 124-> 140)    0.07 ( 124-> 135)    0.05 ( 124-> 141)
  65   4.957     250.1   0.054546   0.045494  -38.519174  -32.354097     0.14 ( 122-> 131)    0.08 ( 110-> 126)    0.08 ( 110-> 127)
  66   4.961     249.9   0.032483   0.027086  -53.289139  -47.444349     0.08 ( 122-> 131)    0.06 ( 110-> 127)    0.06 ( 124-> 135)
  67   4.994     248.3   0.090915   0.074633  -39.942114  -36.480406     0.09 ( 113-> 126)    0.07 ( 124-> 140)    0.07 ( 118-> 128)

-----------------------------------------------------------------------------
         ABSORPTION SPECTRUM VIA TRANSITION ELECTRIC DIPOLE MOMENTS
-----------------------------------------------------------------------------
State   Energy  Wavelength   fosc         T2         TX        TY        TZ  
        (cm-1)    (nm)                  (au**2)     (au)      (au)      (au) 
-----------------------------------------------------------------------------
   0   13191.7    758.1   0.948347855  23.66700   4.81007  -0.11499   0.71905
   1   18188.8    549.8   0.575595835  10.41814   0.20441  -3.04857   1.04046
   2   20021.5    499.5   0.304581940   5.00821  -1.09262  -1.88069   0.52668
   3   22295.1    448.5   0.010680534   0.15771  -0.25450  -0.29909   0.05903
   4   22973.8    435.3   0.065392051   0.93706   0.17229  -0.74121  -0.59832
   5   23602.5    423.7   0.073756712   1.02877  -0.21764   0.98576   0.09843
   6   24162.0    413.9   0.011055724   0.15064   0.11650  -0.06498   0.36448
   7   25244.9    396.1   0.132041731   1.72192   1.14928  -0.48591   0.40616
   8   26444.7    378.1   0.155484058   1.93563   0.93485   1.00629  -0.22148
   9   26991.3    370.5   0.027714269   0.33803   0.03937  -0.35951   0.45523
  10   27127.9    368.6   0.080918046   0.98198  -0.49241   0.85995   0.00234
  11   27222.4    367.3   0.000789012   0.00954   0.05994   0.07635  -0.01092
  12   27879.9    358.7   0.065752796   0.77642  -0.85333   0.11164   0.18917
  13   28270.2    353.7   0.031924208   0.37176   0.23513   0.32367   0.46012
  14   28479.6    351.1   0.183303309   2.11890  -0.00211   1.07714   0.97912
  15   28730.8    348.1   0.099474286   1.13983   0.84819   0.16422  -0.62725
  16   29577.3    338.1   0.097160478   1.08145  -1.02816   0.07608   0.13618
  17   29748.4    336.2   0.031304154   0.34643   0.56282   0.11423  -0.12889
  18   30078.1    332.5   0.025276279   0.27665  -0.19422  -0.12396  -0.47283
  19   30374.9    329.2   0.052306134   0.56691   0.13306   0.68519   0.28235
  20   30507.8    327.8   0.023930890   0.25824  -0.37679   0.17668   0.29164
  21   30653.9    326.2   0.090580178   0.97280  -0.61796  -0.48920  -0.59296
  22   31042.4    322.1   0.022670436   0.24043  -0.10105   0.38814  -0.28207
  23   31186.8    320.6   0.021121006   0.22296   0.30535  -0.18226  -0.31064
  24   31287.3    319.6   0.004052997   0.04265  -0.18550  -0.05756  -0.07017
  25   32089.6    311.6   0.034372928   0.35264  -0.34486   0.13831  -0.46323
  26   32440.3    308.3   0.162075056   1.64478   1.07605  -0.60065  -0.35511
  27   32496.1    307.7   0.014231160   0.14417  -0.18119  -0.33343   0.01292
  28   32925.1    303.7   0.041327901   0.41323   0.36757   0.22379  -0.47754
  29   33113.0    302.0   0.152866388   1.51981  -0.88650  -0.85586  -0.03790
  30   33612.5    297.5   0.127996034   1.25364  -1.11930   0.00986   0.02652
  31   33698.0    296.8   0.026010934   0.25411  -0.25403  -0.33876  -0.27354
  32   33934.3    294.7   0.093647284   0.90851  -0.03896  -0.94044  -0.15026
  33   34405.3    290.7   0.183159588   1.75259  -0.70082  -0.71002  -0.87023
  34   34706.2    288.1   0.397848703   3.77387  -0.84666   0.32398   1.71816
  35   34745.1    287.8   0.494287711   4.68340  -1.89449   0.80536   0.66761
  36   35003.4    285.7   0.023422024   0.22029  -0.13668  -0.38878  -0.22461
  37   35090.5    285.0   0.094418834   0.88582   0.87258   0.31539   0.15794
  38   35315.4    283.2   0.044005679   0.41022  -0.06416   0.13705  -0.62235
  39   35512.7    281.6   0.495585787   4.59421   0.13078  -1.76155  -1.21410
  40   35692.1    280.2   0.087758373   0.80945   0.47806   0.70977   0.27774
  41   36048.8    277.4   0.151847947   1.38674   0.12690  -0.40827   1.09725
  42   36279.7    275.6   0.135022732   1.22523  -0.37990  -0.52125  -0.89956
  43   36366.8    275.0   0.005652789   0.05117  -0.00898  -0.10737  -0.19890
  44   36537.0    273.7   0.078235315   0.70493  -0.60949  -0.16081  -0.55460
  45   36639.0    272.9   0.179204597   1.61020   1.22792  -0.15008   0.28264
  46   36754.7    272.1   0.005664045   0.05073   0.05514   0.18605   0.11435
  47   36874.3    271.2   0.108466053   0.96838  -0.15309  -0.63842  -0.73305
  48   37024.1    270.1   0.055211089   0.49093  -0.54057  -0.23247  -0.38036
  49   37234.0    268.6   0.010873204   0.09614  -0.17466  -0.25167   0.04789
  50   37512.8    266.6   0.009643617   0.08463   0.28114   0.06992  -0.02658
  51   37579.6    266.1   0.027230169   0.23855   0.10767  -0.30507   0.36590
  52   37592.2    266.0   0.079370572   0.69509   0.49978  -0.06374   0.66426
  53   37685.4    265.4   0.000891301   0.00779  -0.05677   0.05437  -0.04010
  54   37837.6    264.3   0.065679083   0.57145   0.67504  -0.33304  -0.06974
  55   38180.0    261.9   0.234531728   2.02228  -0.28722  -1.27116   0.56915
  56   38388.7    260.5   0.006948460   0.05959  -0.19836  -0.00590  -0.14215
  57   38605.3    259.0   0.071633328   0.61086   0.01614  -0.61043   0.48783
  58   38718.3    258.3   0.021626220   0.18388  -0.05978   0.29574   0.30470
  59   39008.8    256.4   0.076035221   0.64169  -0.03937   0.79806  -0.05700
  60   39063.8    256.0   0.024617055   0.20746  -0.44396   0.01425  -0.10079
  61   39428.3    253.6   0.008064925   0.06734   0.06274   0.24582   0.05454
  62   39506.9    253.1   0.125859408   1.04879  -0.69845  -0.72664   0.18150
  63   39740.2    251.6   0.037575779   0.31128  -0.43130  -0.32012   0.15096
  64   39798.0    251.3   0.019302922   0.15968  -0.37552   0.07701  -0.11284
  65   39979.3    250.1   0.054545513   0.44916  -0.46758   0.39622  -0.27117
  66   40012.8    249.9   0.032482673   0.26726   0.15553  -0.45186   0.19720
  67   40279.5    248.3   0.090914843   0.74306  -0.01003  -0.84442   0.17296

-----------------------------------------------------------------------------
         ABSORPTION SPECTRUM VIA TRANSITION VELOCITY DIPOLE MOMENTS
-----------------------------------------------------------------------------
State   Energy  Wavelength   fosc         P2         PX        PY        PZ  
        (cm-1)    (nm)                  (au**2)     (au)      (au)      (au) 
-----------------------------------------------------------------------------
   0   13191.7    758.1   1.419827926   0.12801   0.35360  -0.00745   0.05407
   1   18188.8    549.8   0.699955340   0.08701   0.01753  -0.27842   0.09584
   2   20021.5    499.5   0.339550591   0.04646  -0.10323  -0.18225   0.05092
   3   22295.1    448.5   0.013289361   0.00202  -0.03311  -0.02999   0.00541
   4   22973.8    435.3   0.069546185   0.01092   0.02050  -0.08161  -0.06196
   5   23602.5    423.7   0.075845768   0.01223  -0.02048   0.10788   0.01329
   6   24162.0    413.9   0.011331981   0.00187   0.01080  -0.00695   0.04131
   7   25244.9    396.1   0.128234318   0.02213   0.13406  -0.04895   0.04192
   8   26444.7    378.1   0.155681374   0.02814   0.11446   0.12029  -0.02382
   9   26991.3    370.5   0.027379801   0.00505   0.00207  -0.04388   0.05587
  10   27127.9    368.6   0.074582168   0.01383  -0.05812   0.10223   0.00024
  11   27222.4    367.3   0.001229284   0.00023   0.00490   0.01427  -0.00107
  12   27879.9    358.7   0.060198315   0.01147  -0.10368   0.01370   0.02308
  13   28270.2    353.7   0.029538787   0.00571   0.02683   0.04086   0.05760
  14   28479.6    351.1   0.173903992   0.03385   0.00228   0.13396   0.12609
  15   28730.8    348.1   0.088703777   0.01742   0.10464   0.01954  -0.07801
  16   29577.3    338.1   0.090034997   0.01820  -0.13304   0.01080   0.01957
  17   29748.4    336.2   0.030485001   0.00620   0.07491   0.01511  -0.01892
  18   30078.1    332.5   0.023857889   0.00490  -0.02371  -0.01580  -0.06397
  19   30374.9    329.2   0.048122342   0.00999   0.01479   0.09135   0.03777
  20   30507.8    327.8   0.022248922   0.00464  -0.04701   0.02607   0.04183
  21   30653.9    326.2   0.089767270   0.01881  -0.08508  -0.06903  -0.08248
  22   31042.4    322.1   0.023506039   0.00499  -0.01442   0.05811  -0.03746
  23   31186.8    320.6   0.018544028   0.00395   0.03974  -0.02705  -0.04051
  24   31287.3    319.6   0.003861110   0.00083  -0.02430  -0.01162  -0.01002
  25   32089.6    311.6   0.034742516   0.00762  -0.04954   0.02175  -0.06850
  26   32440.3    308.3   0.147964073   0.03281   0.15198  -0.08428  -0.05102
  27   32496.1    307.7   0.013494486   0.00300  -0.02691  -0.04756   0.00326
  28   32925.1    303.7   0.035349804   0.00795   0.05214   0.03039  -0.06567
  29   33113.0    302.0   0.143308432   0.03243  -0.12674  -0.12772  -0.00754
  30   33612.5    297.5   0.117786922   0.02706  -0.16442   0.00131   0.00480
  31   33698.0    296.8   0.022378403   0.00515  -0.03341  -0.05099  -0.03791
  32   33934.3    294.7   0.082522710   0.01914  -0.00843  -0.13641  -0.02147
  33   34405.3    290.7   0.166631599   0.03918  -0.10391  -0.10792  -0.12937
  34   34706.2    288.1   0.350574280   0.08316  -0.12521   0.04894   0.25512
  35   34745.1    287.8   0.440924215   0.10470  -0.28452   0.11737   0.09988
  36   35003.4    285.7   0.020616294   0.00493  -0.02023  -0.05834  -0.03346
  37   35090.5    285.0   0.086577566   0.02076   0.13392   0.04854   0.02178
  38   35315.4    283.2   0.038547248   0.00930  -0.01259   0.01953  -0.09362
  39   35512.7    281.6   0.435101260   0.10560   0.02083  -0.26840  -0.18202
  40   35692.1    280.2   0.076104914   0.01856   0.07165   0.10690   0.04476
  41   36048.8    277.4   0.133565739   0.03291   0.02150  -0.06353   0.16855
  42   36279.7    275.6   0.118664989   0.02942  -0.05718  -0.08317  -0.13870
  43   36366.8    275.0   0.003839491   0.00095  -0.00456  -0.01408  -0.02711
  44   36537.0    273.7   0.068539141   0.01712  -0.09378  -0.02702  -0.08712
  45   36639.0    272.9   0.159516382   0.03994   0.19380  -0.02238   0.04340
  46   36754.7    272.1   0.004560231   0.00115   0.00982   0.02824   0.01586
  47   36874.3    271.2   0.100221840   0.02526  -0.02670  -0.10550  -0.11582
  48   37024.1    270.1   0.048734097   0.01233  -0.08553  -0.03559  -0.06124
  49   37234.0    268.6   0.009507633   0.00242  -0.03012  -0.03864   0.00444
  50   37512.8    266.6   0.008479641   0.00217   0.04521   0.01117  -0.00225
  51   37579.6    266.1   0.023317954   0.00599   0.01711  -0.04917   0.05726
  52   37592.2    266.0   0.066839668   0.01717   0.07806  -0.00922   0.10486
  53   37685.4    265.4   0.000632316   0.00016  -0.00601   0.00877  -0.00706
  54   37837.6    264.3   0.061546858   0.01592   0.11362  -0.05362  -0.01145
  55   38180.0    261.9   0.196465016   0.05127  -0.04698  -0.20177   0.09137
  56   38388.7    260.5   0.006962506   0.00183  -0.03384  -0.00402  -0.02579
  57   38605.3    259.0   0.065704195   0.01734  -0.00204  -0.10420   0.08046
  58   38718.3    258.3   0.019058041   0.00504  -0.00829   0.05118   0.04853
  59   39008.8    256.4   0.066745591   0.01779  -0.00337   0.13320  -0.00645
  60   39063.8    256.0   0.020137777   0.00538  -0.07210   0.00067  -0.01334
  61   39428.3    253.6   0.006174823   0.00166   0.01230   0.03807   0.00795
  62   39506.9    253.1   0.105011104   0.02835  -0.11745  -0.11598   0.03330
  63   39740.2    251.6   0.029377744   0.00798  -0.06785  -0.05299   0.02384
  64   39798.0    251.3   0.016527051   0.00450  -0.06304   0.01325  -0.01858
  65   39979.3    250.1   0.045494113   0.01243  -0.07727   0.06552  -0.04655
  66   40012.8    249.9   0.027086175   0.00741   0.02248  -0.07551   0.03465
  67   40279.5    248.3   0.074633142   0.02055  -0.00307  -0.14042   0.02860

-------------------------------------------------------------------
                             CD SPECTRUM
-------------------------------------------------------------------
State   Energy Wavelength       R         MX        MY        MZ   
        (cm-1)   (nm)       (1e40*cgs)   (au)      (au)      (au)  
-------------------------------------------------------------------
   0   13191.7    758.1    -402.17136   1.27386  -0.61900  -6.24772
   1   18188.8    549.8    162.32165   1.30102  -0.47263  -2.30227
   2   20021.5    499.5    147.84026   0.56050   0.01448   0.02368
   3   22295.1    448.5    -22.99042  -0.03160  -0.23407   0.33004
   4   22973.8    435.3    -19.22340  -0.47360   0.75104  -1.20308
   5   23602.5    423.7     62.53640  -0.02670  -0.38442   1.09557
   6   24162.0    413.9     73.88257   0.41317   0.05783  -0.98170
   7   25244.9    396.1    -45.28909   0.51039  -0.40698  -1.45805
   8   26444.7    378.1     -0.06053  -0.29370  -0.11431  -1.76021
   9   26991.3    370.5    -12.94883   0.20735  -0.63382  -0.39781
  10   27127.9    368.6     14.04514   0.17101   0.02375   1.79831
  11   27222.4    367.3     -9.79450  -0.14138   0.57367  -0.57001
  12   27879.9    358.7    -58.16727  -0.11173   0.63728   0.42437
  13   28270.2    353.7     67.28140   0.70810   0.06242  -1.02609
  14   28479.6    351.1    150.80454   0.30898  -2.20372   1.77161
  15   28730.8    348.1    -150.81666  -0.39731   0.23632  -1.49542
  16   29577.3    338.1    -27.87516   0.01022   0.30380   0.77578
  17   29748.4    336.2     20.66510  -0.21547  -0.21009  -0.44693
  18   30078.1    332.5    -49.73458  -0.67485   0.95249  -0.41873
  19   30374.9    329.2     20.34737  -0.05838  -0.59078   1.15548
  20   30507.8    327.8    -68.37329   0.13751  -0.52183   1.48838
  21   30653.9    326.2     39.44370  -0.77922   0.68180   0.53178
  22   31042.4    322.1    -26.90772  -0.43336   0.51873   0.46435
  23   31186.8    320.6      5.91342  -0.28701  -0.04807  -0.17316
  24   31287.3    319.6      1.28436  -0.14120  -0.24589   0.65258
  25   32089.6    311.6    -53.51403  -0.69807   0.67867   0.23224
  26   32440.3    308.3    -111.70261  -0.26627   0.24334  -2.55286
  27   32496.1    307.7     85.49500   0.43451   0.82111  -0.78800
  28   32925.1    303.7      1.84708  -0.19600  -0.07275  -0.16855
  29   33113.0    302.0     34.36276  -0.47140   0.58100   1.75242
  30   33612.5    297.5    -170.60647  -0.58626  -0.14679   2.60231
  31   33698.0    296.8    -39.09857  -0.78050  -0.05839   0.19076
  32   33934.3    294.7    169.76751   0.38983   1.10191  -2.20464
  33   34405.3    290.7    391.26935  -0.21669   3.21781  -0.54352
  34   34706.2    288.1     70.21916   0.40010  -0.58160   0.13345
  35   34745.1    287.8    -502.85184   0.04694   2.31517   0.53568
  36   35003.4    285.7     23.54704   0.10780  -0.58590   1.39327
  37   35090.5    285.0     52.14416   0.12764   0.11048  -2.32634
  38   35315.4    283.2    -385.07889  -0.73925   2.53125  -1.99127
  39   35512.7    281.6    667.32109  -0.02120   2.21789  -0.88851
  40   35692.1    280.2    -34.68122   0.77519   0.44620  -1.94485
  41   36048.8    277.4    -412.97153   0.45166  -2.31779   0.68202
  42   36279.7    275.6    343.77516  -0.88153   1.46039   1.14729
  43   36366.8    275.0      7.01834  -0.07714  -0.27516   0.30170
  44   36537.0    273.7    209.76947  -0.67656   0.90014   2.08708
  45   36639.0    272.9    -88.22231   0.69338  -0.90793  -2.17031
  46   36754.7    272.1     40.16092  -0.50567  -0.82007   0.08820
  47   36874.3    271.2    260.50653  -0.98951   1.39676   0.49778
  48   37024.1    270.1    -53.22509  -0.96311   0.33845   0.56830
  49   37234.0    268.6     19.46397  -0.14811   0.33165  -0.52149
  50   37512.8    266.6     10.51260  -0.14309  -0.30635  -0.64147
  51   37579.6    266.1      4.32055   0.25094  -0.59918  -0.62349
  52   37592.2    266.0    -63.14051   0.91336  -1.41514  -0.41973
  53   37685.4    265.4      9.35978   0.08071  -0.14257   0.68270
  54   37837.6    264.3    -66.95904   0.28505   0.05087  -1.55688
  55   38180.0    261.9    -389.09324   0.85908  -1.05383   0.98006
  56   38388.7    260.5    -23.33141  -0.60274   0.61870   0.11906
  57   38605.3    259.0    -176.00599   0.90356  -1.12563   0.09217
  58   38718.3    258.3     41.87369   0.52414  -0.23857  -0.24860
  59   39008.8    256.4      0.20287  -0.09026   0.11512   1.68910
  60   39063.8    256.0     21.81786  -0.10750   0.15007   1.41306
  61   39428.3    253.6    -17.00420   0.30139   0.07413   0.64185
  62   39506.9    253.1     16.01055   0.46637  -0.15005   0.81972
  63   39740.2    251.6     27.81594   0.30608   0.01466   0.12388
  64   39798.0    251.3     12.85179  -0.31167   0.27007   1.70472
  65   39979.3    250.1    -38.51917  -0.55501   0.55743   1.16890
  66   40012.8    249.9    -53.28914   0.35869  -0.33097   0.10510
  67   40279.5    248.3    -39.94211  -0.03074  -0.42453  -1.09472

sTD-DFT done

Total run time:        6.100 sec

           *** ORCA-CIS/TD-DFT FINISHED WITHOUT ERROR ***

-------------------------   --------------------
FINAL SINGLE POINT ENERGY     -6289.753653032927
-------------------------   --------------------


                            ***************************************
                            *     ORCA property calculations      *
                            ***************************************

                                    ---------------------
                                    Active property flags
                                    ---------------------
   (+) Dipole Moment


------------------------------------------------------------------------------
                       ORCA ELECTRIC PROPERTIES CALCULATION
------------------------------------------------------------------------------

Dipole Moment Calculation                       ... on
Quadrupole Moment Calculation                   ... off
Polarizability Calculation                      ... off
GBWName                                         ... xtbopt.gbw
Electron density file                           ... xtbopt.scfp
The origin for moment calculation is the CENTER OF MASS  = (-4.519147, -7.699275 -1.356425)

-------------
DIPOLE MOMENT
-------------
                                X             Y             Z
Electronic contribution:     24.28226      59.38160      -9.38199
Nuclear contribution   :    -22.60412     -60.64866      11.99197
                        -----------------------------------------
Total Dipole Moment    :      1.67814      -1.26705       2.60997
                        -----------------------------------------
Magnitude (a.u.)       :      3.35165
Magnitude (Debye)      :      8.51921



--------------------
Rotational spectrum 
--------------------
 
Rotational constants in cm-1:     0.000685     0.000319     0.000264 
Rotational constants in MHz :    20.535007     9.548836     7.922298 

 Dipole components along the rotational axes: 
x,y,z [a.u.] :     1.801490     1.191735     2.562800 
x,y,z [Debye]:     4.579024     3.029149     6.514120 

 

Timings for individual modules:

Sum of individual times         ...     1106.253 sec (=  18.438 min)
GTO integral calculation        ...        4.378 sec (=   0.073 min)   0.4 %
SCF iterations                  ...     1094.968 sec (=  18.249 min)  99.0 %
CIS module                      ...        6.907 sec (=   0.115 min)   0.6 %
                             ****ORCA TERMINATED NORMALLY****
TOTAL RUN TIME: 0 days 0 hours 18 minutes 27 seconds 432 msec
