
                                 *****************
                                 * O   R   C   A *
                                 *****************

           --- An Ab Initio, DFT and Semiempirical electronic structure package ---

                  #######################################################
                  #                        -***-                        #
                  #          Department of theory and spectroscopy      #
                  #               Directorship: Frank Neese             #
                  #        Max Planck Institute fuer Kohlenforschung    #
                  #                Kaiser Wilhelm Platz 1               #
                  #                 D-45470 Muelheim/Ruhr               #
                  #                      Germany                        #
                  #                                                     #
                  #                  All rights reserved                #
                  #                        -***-                        #
                  #######################################################


                         Program Version 4.2.0 -  RELEASE  -


 With contributions from (in alphabetic order):
   Daniel Aravena         : Magnetic Suceptibility
   Michael Atanasov       : Ab Initio Ligand Field Theory (pilot matlab implementation)
   Alexander A. Auer      : GIAO ZORA, VPT2
   Ute Becker             : Parallelization
   Giovanni Bistoni       : ED, misc. LED, open-shell LED, HFLED
   Martin Brehm           : Molecular dynamics
   Dmytro Bykov           : SCF Hessian
   Vijay G. Chilkuri      : MRCI spin determinant printing, contributions to CSF-ICE
   Dipayan Datta          : RHF DLPNO-CCSD density
   Achintya Kumar Dutta   : EOM-CC, STEOM-CC
   Dmitry Ganyushin       : Spin-Orbit,Spin-Spin,Magnetic field MRCI
   Miquel Garcia          : C-PCM Hessian, Gaussian charge scheme
   Yang Guo               : DLPNO-NEVPT2, CIM, IAO-localization
   Andreas Hansen         : Spin unrestricted coupled pair/coupled cluster methods
   Benjamin Helmich-Paris : CASSCF linear response (MC-RPA)
   Lee Huntington         : MR-EOM, pCC
   Robert Izsak           : Overlap fitted RIJCOSX, COSX-SCS-MP3, EOM
   Christian Kollmar      : KDIIS, OOCD, Brueckner-CCSD(T), CCSD density
   Simone Kossmann        : Meta GGA functionals, TD-DFT gradient, OOMP2, MP2 Hessian
   Martin Krupicka        : AUTO-CI
   Lucas Lang             : DCDCAS
   Dagmar Lenk            : GEPOL surface, SMD
   Dimitrios Liakos       : Extrapolation schemes; Compound Job, initial MDCI parallelization
   Dimitrios Manganas     : Further ROCIS development; embedding schemes
   Dimitrios Pantazis     : SARC Basis sets
   Taras Petrenko         : DFT Hessian,TD-DFT gradient, ASA, ECA, R-Raman, ABS, FL, XAS/XES, NRVS
   Peter Pinski           : DLPNO-MP2, DLPNO-MP2 Gradient
   Christoph Reimann      : Effective Core Potentials
   Marius Retegan         : Local ZFS, SOC
   Christoph Riplinger    : Optimizer, TS searches, QM/MM, DLPNO-CCSD(T), (RO)-DLPNO pert. Triples
   Tobias Risthaus        : Range-separated hybrids, TD-DFT gradient, RPA, STAB
   Michael Roemelt        : Original ROCIS implementation
   Masaaki Saitow         : Open-shell DLPNO-CCSD energy and density
   Barbara Sandhoefer     : DKH picture change effects
   Avijit Sen             : IP-ROCIS
   Kantharuban Sivalingam : CASSCF convergence, NEVPT2, FIC-MRCI
   Bernardo de Souza      : ESD, SOC TD-DFT
   Georgi Stoychev        : AutoAux, RI-MP2 NMR
   Willem Van den Heuvel  : Paramagnetic NMR
   Boris Wezisla          : Elementary symmetry handling
   Frank Wennmohs         : Technical directorship


 We gratefully acknowledge several colleagues who have allowed us to
 interface, adapt or use parts of their codes:
   Stefan Grimme, W. Hujo, H. Kruse,             : VdW corrections, initial TS optimization,
                  C. Bannwarth                     DFT functionals, gCP, sTDA/sTD-DF
   Ed Valeev, F. Pavosevic, A. Kumar             : LibInt (2-el integral package), F12 methods
   Garnet Chan, S. Sharma, J. Yang, R. Olivares  : DMRG
   Ulf Ekstrom                                   : XCFun DFT Library
   Mihaly Kallay                                 : mrcc  (arbitrary order and MRCC methods)
   Andreas Klamt, Michael Diedenhofen            : otool_cosmo (COSMO solvation model)
   Jiri Pittner, Ondrej Demel                    : Mk-CCSD
   Frank Weinhold                                : gennbo (NPA and NBO analysis)
   Christopher J. Cramer and Donald G. Truhlar   : smd solvation model
   Lars Goerigk                                  : TD-DFT with DH, B97 family of functionals
   V. Asgeirsson, H. Jonsson                     : NEB implementation
   FAccTs GmbH                                   : IRC, NEB, NEB-TS, Multilevel, MM, QM/MM, CI optimization
   S Lehtola, MJT Oliveira, MAL Marques          : LibXC Library


 Your calculation uses the libint2 library for the computation of 2-el integrals
 For citations please refer to: http://libint.valeyev.net

 Your ORCA version has been built with support for libXC version: 4.2.3
 For citations please refer to: https://tddft.org/programs/libxc/

 This ORCA versions uses:
   CBLAS   interface :  Fast vector & matrix operations
   LAPACKE interface :  Fast linear algebra routines
   SCALAPACK package :  Parallel linear algebra routines


XCFun DFT library Copyright 2009-2010 Ulf Ekstrom and contributors.
See http://admol.org/xcfun for more information. This is free soft-
ware; see the source code for copying conditions. There is ABSOLUTELY
NO WARRANTY; not even for MERCHANTABILITY or FITNESS FOR A PARTICULAR
PURPOSE. For details see the documentation. Scientific users of this 
library should cite U. Ekstrom, L. Visscher, R. Bast, A. J. Thorvald-
sen and K. Ruud; J.Chem.Theor.Comp. 2010, DOI: 10.1021/ct100117s
XCFun Version 0.99 
----- Orbital basis set information -----
Your calculation utilizes the basis: def2-SVP
   F. Weigend and R. Ahlrichs, Phys. Chem. Chem. Phys. 7, 3297 (2005).

----- AuxJ basis set information -----
Your calculation utilizes the auxiliary basis: def2/J
   F. Weigend, Phys. Chem. Chem. Phys. 8, 1057 (2006).

================================================================================
                                        WARNINGS
                       Please study these warnings very carefully!
================================================================================

INFO   : Checking CIS options ...

WARNING: CIS/ROCIS methods need fully converged wavefunctions
  ===> : Setting SCFConvForced true
         You can overwrite this default with %scf ConvForced false 


INFO   : the flag for use of LIBINT has been found!

================================================================================
                                       INPUT FILE
================================================================================
NAME = xtbopt.inp
|  1> # ORCA input file
|  2> # SCF done       -219.702553440756          0.000959646408
|  3> ! CAM-B3LYP def2-SVP def2/J RIJCOSX Grid4 TightSCF
|  4> %maxcore 5000
|  5> %tddft
|  6>     Mode sTDDFT
|  7>     Ethresh 5.0
|  8>     maxcore 5000
|  9> end
| 10> 
| 11> %pal
| 12>   nprocs 6
| 13>   end
| 14> * xyz 0 1
| 15>    C       -1.99345        -3.12677        -0.42461
| 16>    C       -2.60916        -2.69245        -1.55900
| 17>    C       -2.57315        -1.28814        -1.65526
| 18>    C       -1.91868        -0.69519        -0.56993
| 19>    S       -1.35496        -1.84826         0.55476
| 20>    C       -1.93132         0.71879        -0.74833
| 21>    C       -2.59405         1.00882        -1.94783
| 22>    C       -3.02136        -0.24365        -2.55899
| 23>    C       -3.70185        -0.39446        -3.73141
| 24>    C       -4.08379         0.70712        -4.52597
| 25>    N       -4.39757         1.59833        -5.17532
| 26>    C       -4.06956        -1.66242        -4.22903
| 27>    N       -4.37154        -2.69091        -4.63635
| 28>    C       -2.66465         2.37856        -2.21212
| 29>    C       -2.06289         3.12613        -1.22057
| 30>    S       -1.39421         2.12332         0.05762
| 31>    C       -1.95725         4.54152        -1.14687
| 32>    C       -1.39732         5.28652        -0.14689
| 33>    C       -1.47258         6.67995        -0.36738
| 34>    C       -0.99161         7.71726         0.45920
| 35>    C       -0.24704         7.46013         1.67551
| 36>    C       -0.32042         8.13031         2.86288
| 37>    C        0.59256         7.64368         3.82348
| 38>    C        1.37820         6.61656         3.38834
| 39>    S        0.98032         6.22243         1.75062
| 40>    C        2.43357         5.87397         4.12191
| 41>   Cl        0.69298         8.30526         5.40999
| 42>    C       -1.26334         9.01547         0.04350
| 43>    C       -1.94909         9.32297        -1.16153
| 44>    C       -2.36804         8.28244        -2.02307
| 45>    C       -2.14548         6.98598        -1.57837
| 46>    S       -2.61259         5.53723        -2.42759
| 47>    C       -2.97033         8.57396        -3.30550
| 48>    C       -2.60995         9.54673        -4.19621
| 49>    C       -3.40310         9.53749        -5.36267
| 50>    C       -4.37264         8.57540        -5.37802
| 51>    S       -4.30762         7.64213        -3.92279
| 52>    C       -5.37841         8.28455        -6.42941
| 53>   Cl       -3.15326        10.65253        -6.65122
| 54>    C       -2.14604        10.70943        -1.31772
| 55>    C       -1.59851        11.46623        -0.31030
| 56>    S       -0.80842        10.46394         0.89139
| 57>    C       -1.64618        12.87305        -0.14865
| 58>    C       -2.33833        13.78767        -0.90920
| 59>    C       -2.14959        15.08480        -0.35389
| 60>    C       -1.25475        14.88703         0.79490
| 61>    C       -0.95734        13.58772         0.93003
| 62>    F       -0.82401        15.88537         1.57285
| 63>    C       -2.72222        16.27355        -0.74296
| 64>    C       -2.59493        17.55461        -0.13204
| 65>    C       -3.41293        18.45355        -0.78595
| 66>    C       -4.08201        17.74811        -1.88305
| 67>    C       -3.66241        16.47409        -1.84863
| 68>    F       -4.03054        15.49605        -2.68476
| 69>    C       -3.58895        19.80716        -0.41770
| 70>    C       -4.49427        20.65346        -0.97827
| 71>    C       -4.72576        21.99983        -0.57701
| 72>    C       -3.96991        22.73404         0.33125
| 73>    C       -4.28958        24.03506         0.71297
| 74>    C       -5.42515        24.71399         0.28160
| 75>    C       -6.20077        24.02624        -0.69196
| 76>    C       -5.83801        22.70140        -1.12679
| 77>    N       -6.70148        22.34506        -2.05367
| 78>    O       -7.53954        23.36382        -2.20024
| 79>    N       -7.25961        24.38825        -1.38938
| 80>    C       -5.70237        26.03439         0.74729
| 81>    C       -6.89393        26.69252         0.79558
| 82>    C       -7.02269        28.14471         0.92428
| 83>    C       -6.07348        29.02603         1.36386
| 84>    C       -6.27321        30.42078         1.45910
| 85>    N       -6.36643        31.55965         1.56555
| 86>    C       -4.78637        28.68192         1.83039
| 87>    N       -3.72807        28.48031         2.22814
| 88>    C       -8.37425        28.48292         0.50092
| 89>    C       -9.10103        27.28799         0.29544
| 90>    C      -10.41763        27.32622        -0.13206
| 91>    C      -11.00692        28.56285        -0.34824
| 92>    C      -10.29898        29.73782        -0.13673
| 93>    C       -8.97900        29.71218         0.28781
| 94>    C       -8.24277        26.16335         0.62788
| 95>    C       -8.67069        24.91106         0.97031
| 96>    C       -7.84767        23.92143         1.54543
| 97>    N       -7.22874        23.09228         2.04306
| 98>    C      -10.01177        24.48256         0.87328
| 99>    N      -11.08207        24.07373         0.81324
|100>    H       -1.86983        -4.13728        -0.09022
|101>    H       -3.06215        -3.34734        -2.28055
|102>    H       -3.12874         2.82517        -3.07307
|103>    H       -0.96071         4.83859         0.72695
|104>    H       -1.02060         8.91752         3.07080
|105>    H        2.55274         6.29632         5.11642
|106>    H        3.38446         5.93501         3.59387
|107>    H        2.16881         4.82087         4.21453
|108>    H       -1.78036        10.21481        -4.05626
|109>    H       -5.21911         8.94056        -7.28145
|110>    H       -6.38772         8.43908        -6.04868
|111>    H       -5.29991         7.24877        -6.75716
|112>    H       -2.69561        11.14333        -2.13166
|113>    H       -2.94698        13.57308        -1.76434
|114>    H       -0.33455        13.12457         1.67029
|115>    H       -1.97927        17.77175         0.71875
|116>    H       -4.77054        18.18134        -2.58072
|117>    H       -2.96865        20.14817         0.40054
|118>    H       -5.14362        20.29850        -1.76556
|119>    H       -3.09131        22.28499         0.76675
|120>    H       -3.64683        24.53065         1.42633
|121>    H       -4.82102        26.58401         1.05156
|122>    H      -10.97227        26.41931        -0.30925
|123>    H      -12.03038        28.60973        -0.68758
|124>    H      -10.77917        30.68898        -0.30887
|125>    H       -8.44311        30.63472         0.43927
|126> *
|127> 
|128>                          ****END OF INPUT****
================================================================================

                       ****************************
                       * Single Point Calculation *
                       ****************************

---------------------------------
CARTESIAN COORDINATES (ANGSTROEM)
---------------------------------
  C     -1.993450   -3.126770   -0.424610
  C     -2.609160   -2.692450   -1.559000
  C     -2.573150   -1.288140   -1.655260
  C     -1.918680   -0.695190   -0.569930
  S     -1.354960   -1.848260    0.554760
  C     -1.931320    0.718790   -0.748330
  C     -2.594050    1.008820   -1.947830
  C     -3.021360   -0.243650   -2.558990
  C     -3.701850   -0.394460   -3.731410
  C     -4.083790    0.707120   -4.525970
  N     -4.397570    1.598330   -5.175320
  C     -4.069560   -1.662420   -4.229030
  N     -4.371540   -2.690910   -4.636350
  C     -2.664650    2.378560   -2.212120
  C     -2.062890    3.126130   -1.220570
  S     -1.394210    2.123320    0.057620
  C     -1.957250    4.541520   -1.146870
  C     -1.397320    5.286520   -0.146890
  C     -1.472580    6.679950   -0.367380
  C     -0.991610    7.717260    0.459200
  C     -0.247040    7.460130    1.675510
  C     -0.320420    8.130310    2.862880
  C      0.592560    7.643680    3.823480
  C      1.378200    6.616560    3.388340
  S      0.980320    6.222430    1.750620
  C      2.433570    5.873970    4.121910
  Cl     0.692980    8.305260    5.409990
  C     -1.263340    9.015470    0.043500
  C     -1.949090    9.322970   -1.161530
  C     -2.368040    8.282440   -2.023070
  C     -2.145480    6.985980   -1.578370
  S     -2.612590    5.537230   -2.427590
  C     -2.970330    8.573960   -3.305500
  C     -2.609950    9.546730   -4.196210
  C     -3.403100    9.537490   -5.362670
  C     -4.372640    8.575400   -5.378020
  S     -4.307620    7.642130   -3.922790
  C     -5.378410    8.284550   -6.429410
  Cl    -3.153260   10.652530   -6.651220
  C     -2.146040   10.709430   -1.317720
  C     -1.598510   11.466230   -0.310300
  S     -0.808420   10.463940    0.891390
  C     -1.646180   12.873050   -0.148650
  C     -2.338330   13.787670   -0.909200
  C     -2.149590   15.084800   -0.353890
  C     -1.254750   14.887030    0.794900
  C     -0.957340   13.587720    0.930030
  F     -0.824010   15.885370    1.572850
  C     -2.722220   16.273550   -0.742960
  C     -2.594930   17.554610   -0.132040
  C     -3.412930   18.453550   -0.785950
  C     -4.082010   17.748110   -1.883050
  C     -3.662410   16.474090   -1.848630
  F     -4.030540   15.496050   -2.684760
  C     -3.588950   19.807160   -0.417700
  C     -4.494270   20.653460   -0.978270
  C     -4.725760   21.999830   -0.577010
  C     -3.969910   22.734040    0.331250
  C     -4.289580   24.035060    0.712970
  C     -5.425150   24.713990    0.281600
  C     -6.200770   24.026240   -0.691960
  C     -5.838010   22.701400   -1.126790
  N     -6.701480   22.345060   -2.053670
  O     -7.539540   23.363820   -2.200240
  N     -7.259610   24.388250   -1.389380
  C     -5.702370   26.034390    0.747290
  C     -6.893930   26.692520    0.795580
  C     -7.022690   28.144710    0.924280
  C     -6.073480   29.026030    1.363860
  C     -6.273210   30.420780    1.459100
  N     -6.366430   31.559650    1.565550
  C     -4.786370   28.681920    1.830390
  N     -3.728070   28.480310    2.228140
  C     -8.374250   28.482920    0.500920
  C     -9.101030   27.287990    0.295440
  C    -10.417630   27.326220   -0.132060
  C    -11.006920   28.562850   -0.348240
  C    -10.298980   29.737820   -0.136730
  C     -8.979000   29.712180    0.287810
  C     -8.242770   26.163350    0.627880
  C     -8.670690   24.911060    0.970310
  C     -7.847670   23.921430    1.545430
  N     -7.228740   23.092280    2.043060
  C    -10.011770   24.482560    0.873280
  N    -11.082070   24.073730    0.813240
  H     -1.869830   -4.137280   -0.090220
  H     -3.062150   -3.347340   -2.280550
  H     -3.128740    2.825170   -3.073070
  H     -0.960710    4.838590    0.726950
  H     -1.020600    8.917520    3.070800
  H      2.552740    6.296320    5.116420
  H      3.384460    5.935010    3.593870
  H      2.168810    4.820870    4.214530
  H     -1.780360   10.214810   -4.056260
  H     -5.219110    8.940560   -7.281450
  H     -6.387720    8.439080   -6.048680
  H     -5.299910    7.248770   -6.757160
  H     -2.695610   11.143330   -2.131660
  H     -2.946980   13.573080   -1.764340
  H     -0.334550   13.124570    1.670290
  H     -1.979270   17.771750    0.718750
  H     -4.770540   18.181340   -2.580720
  H     -2.968650   20.148170    0.400540
  H     -5.143620   20.298500   -1.765560
  H     -3.091310   22.284990    0.766750
  H     -3.646830   24.530650    1.426330
  H     -4.821020   26.584010    1.051560
  H    -10.972270   26.419310   -0.309250
  H    -12.030380   28.609730   -0.687580
  H    -10.779170   30.688980   -0.308870
  H     -8.443110   30.634720    0.439270

----------------------------
CARTESIAN COORDINATES (A.U.)
----------------------------
  NO LB      ZA    FRAG     MASS         X           Y           Z
   0 C     6.0000    0    12.011   -3.767075   -5.908739   -0.802397
   1 C     6.0000    0    12.011   -4.930598   -5.087993   -2.946083
   2 C     6.0000    0    12.011   -4.862549   -2.434232   -3.127988
   3 C     6.0000    0    12.011   -3.625780   -1.313719   -1.077012
   4 S    16.0000    0    32.060   -2.560503   -3.492705    1.048344
   5 C     6.0000    0    12.011   -3.649666    1.358316   -1.414139
   6 C     6.0000    0    12.011   -4.902044    1.906394   -3.680865
   7 C     6.0000    0    12.011   -5.709543   -0.460432   -4.835790
   8 C     6.0000    0    12.011   -6.995483   -0.745421   -7.051343
   9 C     6.0000    0    12.011   -7.717245    1.336263   -8.552844
  10 N     7.0000    0    14.007   -8.310203    3.020406   -9.779937
  11 C     6.0000    0    12.011   -7.690354   -3.141519   -7.991709
  12 N     7.0000    0    14.007   -8.261013   -5.085083   -8.761432
  13 C     6.0000    0    12.011   -5.035459    4.494827   -4.180301
  14 C     6.0000    0    12.011   -3.898297    5.907530   -2.306543
  15 S    16.0000    0    32.060   -2.634675    4.012493    0.108886
  16 C     6.0000    0    12.011   -3.698666    8.582229   -2.167270
  17 C     6.0000    0    12.011   -2.640552    9.990075   -0.277582
  18 C     6.0000    0    12.011   -2.782773   12.623276   -0.694248
  19 C     6.0000    0    12.011   -1.873871   14.583508    0.867762
  20 C     6.0000    0    12.011   -0.466838   14.097603    3.166255
  21 C     6.0000    0    12.011   -0.605506   15.364059    5.410059
  22 C     6.0000    0    12.011    1.119776   14.444462    7.225330
  23 C     6.0000    0    12.011    2.604421   12.503486    6.403035
  24 S    16.0000    0    32.060    1.852536   11.758689    3.308192
  25 C     6.0000    0    12.011    4.598781   11.100195    7.789281
  26 Cl   17.0000    0    35.453    1.309542   15.694667   10.223399
  27 C     6.0000    0    12.011   -2.387367   17.036769    0.082203
  28 C     6.0000    0    12.011   -3.683246   17.617860   -2.194974
  29 C     6.0000    0    12.011   -4.474947   15.651543   -3.823048
  30 C     6.0000    0    12.011   -4.054370   13.201589   -2.982687
  31 S    16.0000    0    32.060   -4.937080   10.463848   -4.587480
  32 C     6.0000    0    12.011   -5.613110   16.202436   -6.246490
  33 C     6.0000    0    12.011   -4.932091   18.040705   -7.929688
  34 C     6.0000    0    12.011   -6.430927   18.023244  -10.133978
  35 C     6.0000    0    12.011   -8.263092   16.205157  -10.162985
  36 S    16.0000    0    32.060   -8.140222   14.441533   -7.412999
  37 C     6.0000    0    12.011  -10.163722   15.655531  -12.149824
  38 Cl   17.0000    0    35.453   -5.958798   20.130364  -12.568984
  39 C     6.0000    0    12.011   -4.055428   20.237890   -2.490130
  40 C     6.0000    0    12.011   -3.020746   21.668034   -0.586382
  41 S    16.0000    0    32.060   -1.527692   19.773981    1.684483
  42 C     6.0000    0    12.011   -3.110829   24.326539   -0.280908
  43 C     6.0000    0    12.011   -4.418803   26.054920   -1.718139
  44 C     6.0000    0    12.011   -4.062136   28.506141   -0.668755
  45 C     6.0000    0    12.011   -2.371134   28.132410    1.502143
  46 C     6.0000    0    12.011   -1.809110   25.677070    1.757502
  47 F     9.0000    0    18.998   -1.557153   30.018999    2.972256
  48 C     6.0000    0    12.011   -5.144250   30.752553   -1.403991
  49 C     6.0000    0    12.011   -4.903707   33.173405   -0.249519
  50 C     6.0000    0    12.011   -6.449503   34.872156   -1.485230
  51 C     6.0000    0    12.011   -7.713881   33.539067   -3.558449
  52 C     6.0000    0    12.011   -6.920952   31.131518   -3.493404
  53 F     9.0000    0    18.998   -7.616617   29.283291   -5.073461
  54 C     6.0000    0    12.011   -6.782133   37.430108   -0.789339
  55 C     6.0000    0    12.011   -8.492939   39.029383   -1.848662
  56 C     6.0000    0    12.011   -8.930392   41.573654   -1.090391
  57 C     6.0000    0    12.011   -7.502043   42.961110    0.625972
  58 C     6.0000    0    12.011   -8.106131   45.419681    1.347318
  59 C     6.0000    0    12.011  -10.252048   46.702673    0.532147
  60 C     6.0000    0    12.011  -11.717757   45.403014   -1.307615
  61 C     6.0000    0    12.011  -11.032240   42.899429   -2.129325
  62 N     7.0000    0    14.007  -12.663962   42.226044   -3.880874
  63 O     8.0000    0    15.999  -14.247666   44.151221   -4.157851
  64 N     7.0000    0    14.007  -13.718675   46.087113   -2.625548
  65 C     6.0000    0    12.011  -10.775918   49.197867    1.412173
  66 C     6.0000    0    12.011  -13.027640   50.441553    1.503428
  67 C     6.0000    0    12.011  -13.270961   53.185794    1.746636
  68 C     6.0000    0    12.011  -11.477214   54.851247    2.577322
  69 C     6.0000    0    12.011  -11.854649   57.486943    2.757299
  70 N     7.0000    0    14.007  -12.030809   59.639095    2.958461
  71 C     6.0000    0    12.011   -9.044928   54.200974    3.458936
  72 N     7.0000    0    14.007   -7.045031   53.819986    4.210574
  73 C     6.0000    0    12.011  -15.825039   53.824918    0.946602
  74 C     6.0000    0    12.011  -17.198454   51.566828    0.558301
  75 C     6.0000    0    12.011  -19.686468   51.639072   -0.249557
  76 C     6.0000    0    12.011  -20.800064   53.975964   -0.658078
  77 C     6.0000    0    12.011  -19.462252   56.196336   -0.258382
  78 C     6.0000    0    12.011  -16.967851   56.147883    0.543882
  79 C     6.0000    0    12.011  -15.576578   49.441566    1.186521
  80 C     6.0000    0    12.011  -16.385229   47.075081    1.833620
  81 C     6.0000    0    12.011  -14.829947   45.204951    2.920439
  82 N     7.0000    0    14.007  -13.660339   43.638085    3.860824
  83 C     6.0000    0    12.011  -18.919503   46.265333    1.650260
  84 N     7.0000    0    14.007  -20.942077   45.492757    1.536801
  85 H     1.0000    0     1.008   -3.533467   -7.818326   -0.170491
  86 H     1.0000    0     1.008   -5.786625   -6.325556   -4.309615
  87 H     1.0000    0     1.008   -5.912462    5.338798   -5.807261
  88 H     1.0000    0     1.008   -1.815479    9.143610    1.373736
  89 H     1.0000    0     1.008   -1.928654   16.851671    5.802971
  90 H     1.0000    0     1.008    4.823979   11.898320    9.668633
  91 H     1.0000    0     1.008    6.395703   11.215544    6.791430
  92 H     1.0000    0     1.008    4.098457    9.110124    7.964307
  93 H     1.0000    0     1.008   -3.364393   19.303193   -7.665221
  94 H     1.0000    0     1.008   -9.862689   16.895210  -13.759946
  95 H     1.0000    0     1.008  -12.071041   15.947550  -11.430349
  96 H     1.0000    0     1.008  -10.015378   13.698190  -12.769182
  97 H     1.0000    0     1.008   -5.093965   21.057842   -4.028254
  98 H     1.0000    0     1.008   -5.568985   25.649404   -3.334119
  99 H     1.0000    0     1.008   -0.632208   24.801843    3.156391
 100 H     1.0000    0     1.008   -3.740278   33.583740    1.358241
 101 H     1.0000    0     1.008   -9.015014   34.357753   -4.876854
 102 H     1.0000    0     1.008   -5.609935   38.074523    0.756911
 103 H     1.0000    0     1.008   -9.720033   38.358606   -3.336425
 104 H     1.0000    0     1.008   -5.841729   42.112528    1.448948
 105 H     1.0000    0     1.008   -6.891510   46.356210    2.695373
 106 H     1.0000    0     1.008   -9.110407   50.236498    1.987160
 107 H     1.0000    0     1.008  -20.734585   49.925261   -0.584398
 108 H     1.0000    0     1.008  -22.734123   54.064554   -1.299338
 109 H     1.0000    0     1.008  -20.369679   57.993768   -0.583680
 110 H     1.0000    0     1.008  -15.955166   57.891231    0.830100

--------------------------------
INTERNAL COORDINATES (ANGSTROEM)
--------------------------------
 C      0   0   0     0.000000000000     0.00000000     0.00000000
 C      1   0   0     1.361827205852     0.00000000     0.00000000
 C      2   1   0     1.408065795267   111.31266778     0.00000000
 C      3   2   1     1.399236181743   112.43108126     0.00000000
 S      4   3   2     1.706539849930   112.29480039     0.00000000
 C      4   3   2     1.425245863000   108.61326842   180.09722551
 C      6   4   3     1.400760045047   108.46939463   359.95485819
 C      3   2   1     1.452094858162   138.76679807   180.14427217
 C      8   3   2     1.363957093387   127.54829790     0.06841442
 C      9   8   3     1.410915395621   122.19482967   180.00313506
 N     10   9   8     1.146459146677   179.68094333   188.16178251
 C      9   8   3     1.410871670316   122.17936202     0.00000000
 N     12   9   8     1.146687918703   179.76442524   162.77797737
 C      7   6   4     1.396789616120   112.89120012   179.75136292
 C     14   7   6     1.379908477038   111.91676573   359.87937575
 S      6   4   3     1.706091168578   139.00917492   179.57984762
 C     15  14   7     1.421239019905   127.53166352   180.74798099
 C     17  15  14     1.366933284875   127.67308163   177.86252220
 C     18  17  15     1.412772831208   113.67574845   180.99919226
 C     19  18  17     1.410878688407   127.99272475   180.23104911
 C     20  19  18     1.449106737925   122.44198149     3.85107906
 C     21  20  19     1.365420584911   127.96611037   218.32086501
 C     22  21  20     1.411769668643   112.81500659   182.48714249
 C     23  22  21     1.364387233743   114.51056519     0.63867274
 S     24  23  22     1.730830364218   109.92714077   359.57379788
 C     24  23  22     1.484375521861   128.93177583   179.94668981
 Cl    23  22  21     1.721855468063   122.15513459   180.61015662
 C     20  19  18     1.389961469610   116.41251136   183.54701394
 C     28  20  19     1.420178373797   123.39388623   358.12599467
 C     29  28  20     1.414380767332   120.03877578   358.60696505
 C     30  29  28     1.388560252636   116.38028412     3.92365657
 S     31  30  29     1.743055628200   125.24281108   177.99018218
 C     30  29  28     1.446500556308   121.00461051   185.07158955
 C     33  30  29     1.367303741456   127.67511612    40.02641813
 C     34  33  30     1.410603144651   112.69510399   179.10905111
 C     35  34  33     1.365965080886   114.39352196     0.31589741
 S     36  35  34     1.730004290804   110.11036617   359.60533626
 C     36  35  34     1.483774897853   128.84012766   179.70887357
 Cl    35  34  33     1.722235561618   122.20038161   180.41926834
 C     29  28  20     1.409062081741   111.99925859   177.38657492
 C     40  29  28     1.373837835154   113.89370815     2.21856221
 S     28  20  19     1.738946519994   125.52143415   178.88534879
 C     41  40  29     1.416878845844   128.11240493   181.74853534
 C     43  41  40     1.376240411193   127.85988391     5.45274784
 C     44  43  41     1.423565320103   108.86275417   177.38826147
 C     45  44  43     1.469547570717   105.25093043     1.30680994
 C     46  45  44     1.339745983797   110.15364057   358.87193594
 F     46  45  44     1.336946485728   123.40593137   179.06478841
 C     45  44  43     1.375647899828   128.45309325   184.39394720
 C     49  45  44     1.424970425693   128.20147352   175.68237387
 C     50  49  45     1.380150503279   109.23741799   184.37623442
 C     51  50  49     1.465927027515   108.15969705   358.81587194
 C     52  51  50     1.341780852748   107.15709343     0.44444818
 F     53  52  51     1.338355451814   126.28694936   180.25539639
 C     51  50  49     1.413807318909   125.02851947   177.11032133
 C     55  51  50     1.360171576420   124.83595669   186.97728729
 C     56  55  51     1.423836150897   125.47987405   176.92911174
 C     57  56  55     1.391154115905   126.49224920     8.47676496
 C     58  57  56     1.393037008733   123.17038138   182.52911079
 C     59  58  57     1.391598090937   123.91535421     3.21779295
 C     60  59  58     1.422113047722   114.91810794   354.53004938
 C     57  56  55     1.425327532815   118.92108225   189.03122192
 N     62  57  56     1.315927494545   130.57453751   355.12576772
 O     63  62  57     1.327290196641   106.51373053   180.13810835
 N     61  60  59     1.318555285947   131.85852357   185.76433717
 C     60  59  58     1.427296137632   120.57679919   178.26262685
 C     66  60  59     1.362087462170   128.93723309   202.45489582
 C     67  66  60     1.463556839928   124.02160733   198.30483849
 C     68  67  66     1.367828623366   127.33860324   341.17259580
 C     69  68  67     1.412193433280   124.04804122   179.92625434
 N     70  69  68     1.147626440877   176.24757776   177.11487032
 C     69  68  67     1.411635252146   125.58311098   357.43120281
 N     72  69  68     1.148412184105   175.94801331   184.80816146
 C     68  67  66     1.456136713121   106.65174007   161.62147844
 C     74  68  67     1.413608469025   108.85256707     7.51217948
 C     75  74  68     1.384793610218   120.68715888   180.90918773
 C     76  75  74     1.386812984292   118.47261056   359.74274143
 C     77  76  75     1.387973351545   120.95559694   359.72572386
 C     74  68  67     1.386440976818   130.95650538   187.84243136
 C     75  74  68     1.453252115361   108.49828792     1.94419026
 C     80  75  74     1.366968937248   125.54785832   157.81343464
 C     81  80  75     1.409784547972   124.23044147   193.43136787
 N     82  81  80     1.148128775138   176.83189292   150.44490577
 C     81  80  75     1.411213179254   123.94716707     9.00087731
 N     84  81  80     1.147296326369   176.68301183   175.98099153
 H      1   2   3     1.071554495394   127.79648716   179.94595669
 H      2   1   3     1.074576779342   123.74919949   180.07010812
 H     14   7   6     1.075209246007   125.49630927   180.12412008
 H     18  17  15     1.074646882748   122.28328911   359.96143858
 H     22  21  20     1.073863279426   124.27849965     4.89580080
 H     26  24  23     1.087028588171   109.61535996   357.59014117
 H     26  24  23     1.089377765194   110.67249618   237.30050942
 H     26  24  23     1.089814631944   110.65195374   117.74096330
 H     34  33  30     1.074307431325   124.13183861     2.29107039
 H     38  36  35     1.087059230999   109.74107379     3.05352467
 H     38  36  35     1.089743790944   110.63740790   242.85609246
 H     38  36  35     1.089230242373   110.53411293   123.44579521
 H     40  29  28     1.073682782995   123.58790318   183.82517342
 H     44  43  41     1.071339400097   126.42107694   359.03358222
 H     47  46  45     1.072548448416   128.11954452   180.23596988
 H     50  49  45     1.072394815028   124.99091403     2.80897958
 H     52  51  50     1.071683359346   125.86763654   180.85103963
 H     55  51  50     1.081931886812   115.30087676     4.39752470
 H     56  55  51     1.080498759000   119.72874766     0.03672396
 H     58  57  56     1.078537951349   119.11032981     2.58748698
 H     59  58  57     1.080564435932   118.21268442   179.90081981
 H     66  60  59     1.082330910489   113.78728871    25.83659070
 H     76  75  74     1.077732607746   121.11896755   178.80376203
 H     77  76  75     1.079268150925   119.38636576   179.61330863
 H     78  77  76     1.079314579398   119.65609643   180.17365575
 H     79  74  68     1.077589103184   121.36805466   359.59474379

---------------------------
INTERNAL COORDINATES (A.U.)
---------------------------
 C      0   0   0     0.000000000000     0.00000000     0.00000000
 C      1   0   0     2.573480460784     0.00000000     0.00000000
 C      2   1   0     2.660858731596   111.31266778     0.00000000
 C      3   2   1     2.644173180169   112.43108126     0.00000000
 S      4   3   2     3.224892952991   112.29480039     0.00000000
 C      4   3   2     2.693324354575   108.61326842   180.09722551
 C      6   4   3     2.647052864478   108.46939463   359.95485819
 C      3   2   1     2.744061602401   138.76679807   180.14427217
 C      8   3   2     2.577505364920   127.54829790     0.06841442
 C      9   8   3     2.666243695857   122.19482967   180.00313506
 N     10   9   8     2.166493810949   179.68094333   188.16178251
 C      9   8   3     2.666161067005   122.17936202     0.00000000
 N     12   9   8     2.166926127425   179.76442524   162.77797737
 C      7   6   4     2.639549841171   112.89120012   179.75136292
 C     14   7   6     2.607649111477   111.91676573   359.87937575
 S      6   4   3     3.224045068114   139.00917492   179.57984762
 C     15  14   7     2.685752518463   127.53166352   180.74798099
 C     17  15  14     2.583129551756   127.67308163   177.86252220
 C     18  17  15     2.669753740428   113.67574845   180.99919226
 C     19  18  17     2.666174329275   127.99272475   180.23104911
 C     20  19  18     2.738414873498   122.44198149     3.85107906
 C     21  20  19     2.580270963101   127.96611037   218.32086501
 C     22  21  20     2.667858037912   112.81500659   182.48714249
 C     23  22  21     2.578318212392   114.51056519     0.63867274
 S     24  23  22     3.270795372648   109.92714077   359.57379788
 C     24  23  22     2.805063216214   128.93177583   179.94668981
 Cl    23  22  21     3.253835276835   122.15513459   180.61015662
 C     20  19  18     2.626646514265   116.41251136   183.54701394
 C     28  20  19     2.683748187794   123.39388623   358.12599467
 C     29  28  20     2.672792299344   120.03877578   358.60696505
 C     30  29  28     2.623998597930   116.38028412     3.92365657
 S     31  30  29     3.293897773488   125.24281108   177.99018218
 C     30  29  28     2.733489903987   121.00461051   185.07158955
 C     33  30  29     2.583829613238   127.67511612    40.02641813
 C     34  33  30     2.665653627039   112.69510399   179.10905111
 C     35  34  33     2.581299911374   114.39352196     0.31589741
 S     36  35  34     3.269234320128   110.11036617   359.60533626
 C     36  35  34     2.803928201330   128.84012766   179.70887357
 Cl    35  34  33     3.254553549557   122.20038161   180.41926834
 C     29  28  20     2.662741440183   111.99925859   177.38657492
 C     40  29  28     2.596177260860   113.89370815     2.21856221
 S     28  20  19     3.286132684324   125.52143415   178.88534879
 C     41  40  29     2.677512983591   128.11240493   181.74853534
 C     43  41  40     2.600717471589   127.85988391     5.45274784
 C     44  43  41     2.690148588743   108.86275417   177.38826147
 C     45  44  43     2.777042449424   105.25093043     1.30680994
 C     46  45  44     2.531752998397   110.15364057   358.87193594
 F     46  45  44     2.526462713734   123.40593137   179.06478841
 C     45  44  43     2.599597787378   128.45309325   184.39394720
 C     49  45  44     2.692803853497   128.20147352   175.68237387
 C     50  49  45     2.608106474790   109.23741799   184.37623442
 C     51  50  49     2.770200614317   108.15969705   358.81587194
 C     52  51  50     2.535598343432   107.15709343     0.44444818
 F     53  52  51     2.529125273769   126.28694936   180.25539639
 C     51  50  49     2.671708638871   125.02851947   177.11032133
 C     55  51  50     2.570351774577   124.83595669   186.97728729
 C     56  55  51     2.690660384771   125.47987405   176.92911174
 C     57  56  55     2.628900289138   126.49224920     8.47676496
 C     58  57  56     2.632458440922   123.17038138   182.52911079
 C     59  58  57     2.629739280359   123.91535421     3.21779295
 C     60  59  58     2.687404191670   114.91810794   354.53004938
 C     57  56  55     2.693478688158   118.92108225   189.03122192
 N     62  57  56     2.486742576788   130.57453751   355.12576772
 O     63  62  57     2.508214971890   106.51373053   180.13810835
 N     61  60  59     2.491708382875   131.85852357   185.76433717
 C     60  59  58     2.697198812129   120.57679919   178.26262685
 C     66  60  59     2.573972273949   128.93723309   202.45489582
 C     67  66  60     2.765721608891   124.02160733   198.30483849
 C     68  67  66     2.584821496301   127.33860324   341.17259580
 C     69  68  67     2.668658837022   124.04804122   179.92625434
 N     70  69  68     2.168699677304   176.24757776   177.11487032
 C     69  68  67     2.667604027544   125.58311098   357.43120281
 N     72  69  68     2.170184516816   175.94801331   184.80816146
 C     68  67  66     2.751699601348   106.65174007   161.62147844
 C     74  68  67     2.671332867049   108.85256707     7.51217948
 C     75  74  68     2.616880675316   120.68715888   180.90918773
 C     76  75  74     2.620696739277   118.47261056   359.74274143
 C     77  76  75     2.622889515601   120.95559694   359.72572386
 C     74  68  67     2.619993747032   130.95650538   187.84243136
 C     75  74  68     2.746248501573   108.49828792     1.94419026
 C     80  75  74     2.583196924975   125.54785832   157.81343464
 C     81  80  75     2.664106703501   124.23044147   193.43136787
 N     82  81  80     2.169648951485   176.83189292   150.44490577
 C     81  80  75     2.666806425370   123.94716707     9.00087731
 N     84  81  80     2.168075851292   176.68301183   175.98099153
 H      1   2   3     2.024944533868   127.79648716   179.94595669
 H      2   1   3     2.030655822827   123.74919949   180.07010812
 H     14   7   6     2.031851011614   125.49630927   180.12412008
 H     18  17  15     2.030788299066   122.28328911   359.96143858
 H     22  21  20     2.029307503390   124.27849965     4.89580080
 H     26  24  23     2.054186331385   109.61535996   357.59014117
 H     26  24  23     2.058625632601   110.67249618   237.30050942
 H     26  24  23     2.059451191115   110.65195374   117.74096330
 H     34  33  30     2.030146828841   124.13183861     2.29107039
 H     38  36  35     2.054244237939   109.74107379     3.05352467
 H     38  36  35     2.059317321024   110.63740790   242.85609246
 H     38  36  35     2.058346854870   110.53411293   123.44579521
 H     40  29  28     2.028966414567   123.58790318   183.82517342
 H     44  43  41     2.024538062663   126.42107694   359.03358222
 H     47  46  45     2.026822832869   128.11954452   180.23596988
 H     50  49  45     2.026532507841   124.99091403     2.80897958
 H     52  51  50     2.025188051445   125.86763654   180.85103963
 H     55  51  50     2.044554961631   115.30087676     4.39752470
 H     56  55  51     2.041846742551   119.72874766     0.03672396
 H     58  57  56     2.038141353090   119.11032981     2.58748698
 H     59  58  57     2.041970853966   118.21268442   179.90081981
 H     66  60  59     2.045309007102   113.78728871    25.83659070
 H     76  75  74     2.036619474238   121.11896755   178.80376203
 H     77  76  75     2.039521230311   119.38636576   179.61330863
 H     78  77  76     2.039608967410   119.65609643   180.17365575
 H     79  74  68     2.036348289915   121.36805466   359.59474379

---------------------
BASIS SET INFORMATION
---------------------
There are 7 groups of distinct atoms

 Group   1 Type C   : 7s4p1d contracted to 3s2p1d pattern {511/31/1}
 Group   2 Type S   : 10s7p1d contracted to 4s3p1d pattern {5311/511/1}
 Group   3 Type N   : 7s4p1d contracted to 3s2p1d pattern {511/31/1}
 Group   4 Type Cl  : 10s7p1d contracted to 4s3p1d pattern {5311/511/1}
 Group   5 Type F   : 7s4p1d contracted to 3s2p1d pattern {511/31/1}
 Group   6 Type O   : 7s4p1d contracted to 3s2p1d pattern {511/31/1}
 Group   7 Type H   : 4s1p contracted to 2s1p pattern {31/1}

Atom   0C    basis set group =>   1
Atom   1C    basis set group =>   1
Atom   2C    basis set group =>   1
Atom   3C    basis set group =>   1
Atom   4S    basis set group =>   2
Atom   5C    basis set group =>   1
Atom   6C    basis set group =>   1
Atom   7C    basis set group =>   1
Atom   8C    basis set group =>   1
Atom   9C    basis set group =>   1
Atom  10N    basis set group =>   3
Atom  11C    basis set group =>   1
Atom  12N    basis set group =>   3
Atom  13C    basis set group =>   1
Atom  14C    basis set group =>   1
Atom  15S    basis set group =>   2
Atom  16C    basis set group =>   1
Atom  17C    basis set group =>   1
Atom  18C    basis set group =>   1
Atom  19C    basis set group =>   1
Atom  20C    basis set group =>   1
Atom  21C    basis set group =>   1
Atom  22C    basis set group =>   1
Atom  23C    basis set group =>   1
Atom  24S    basis set group =>   2
Atom  25C    basis set group =>   1
Atom  26Cl   basis set group =>   4
Atom  27C    basis set group =>   1
Atom  28C    basis set group =>   1
Atom  29C    basis set group =>   1
Atom  30C    basis set group =>   1
Atom  31S    basis set group =>   2
Atom  32C    basis set group =>   1
Atom  33C    basis set group =>   1
Atom  34C    basis set group =>   1
Atom  35C    basis set group =>   1
Atom  36S    basis set group =>   2
Atom  37C    basis set group =>   1
Atom  38Cl   basis set group =>   4
Atom  39C    basis set group =>   1
Atom  40C    basis set group =>   1
Atom  41S    basis set group =>   2
Atom  42C    basis set group =>   1
Atom  43C    basis set group =>   1
Atom  44C    basis set group =>   1
Atom  45C    basis set group =>   1
Atom  46C    basis set group =>   1
Atom  47F    basis set group =>   5
Atom  48C    basis set group =>   1
Atom  49C    basis set group =>   1
Atom  50C    basis set group =>   1
Atom  51C    basis set group =>   1
Atom  52C    basis set group =>   1
Atom  53F    basis set group =>   5
Atom  54C    basis set group =>   1
Atom  55C    basis set group =>   1
Atom  56C    basis set group =>   1
Atom  57C    basis set group =>   1
Atom  58C    basis set group =>   1
Atom  59C    basis set group =>   1
Atom  60C    basis set group =>   1
Atom  61C    basis set group =>   1
Atom  62N    basis set group =>   3
Atom  63O    basis set group =>   6
Atom  64N    basis set group =>   3
Atom  65C    basis set group =>   1
Atom  66C    basis set group =>   1
Atom  67C    basis set group =>   1
Atom  68C    basis set group =>   1
Atom  69C    basis set group =>   1
Atom  70N    basis set group =>   3
Atom  71C    basis set group =>   1
Atom  72N    basis set group =>   3
Atom  73C    basis set group =>   1
Atom  74C    basis set group =>   1
Atom  75C    basis set group =>   1
Atom  76C    basis set group =>   1
Atom  77C    basis set group =>   1
Atom  78C    basis set group =>   1
Atom  79C    basis set group =>   1
Atom  80C    basis set group =>   1
Atom  81C    basis set group =>   1
Atom  82N    basis set group =>   3
Atom  83C    basis set group =>   1
Atom  84N    basis set group =>   3
Atom  85H    basis set group =>   7
Atom  86H    basis set group =>   7
Atom  87H    basis set group =>   7
Atom  88H    basis set group =>   7
Atom  89H    basis set group =>   7
Atom  90H    basis set group =>   7
Atom  91H    basis set group =>   7
Atom  92H    basis set group =>   7
Atom  93H    basis set group =>   7
Atom  94H    basis set group =>   7
Atom  95H    basis set group =>   7
Atom  96H    basis set group =>   7
Atom  97H    basis set group =>   7
Atom  98H    basis set group =>   7
Atom  99H    basis set group =>   7
Atom 100H    basis set group =>   7
Atom 101H    basis set group =>   7
Atom 102H    basis set group =>   7
Atom 103H    basis set group =>   7
Atom 104H    basis set group =>   7
Atom 105H    basis set group =>   7
Atom 106H    basis set group =>   7
Atom 107H    basis set group =>   7
Atom 108H    basis set group =>   7
Atom 109H    basis set group =>   7
Atom 110H    basis set group =>   7
---------------------------------
AUXILIARY/J BASIS SET INFORMATION
---------------------------------
There are 7 groups of distinct atoms

 Group   1 Type C   : 12s5p4d2f1g contracted to 6s4p3d1f1g pattern {711111/2111/211/2/1}
 Group   2 Type S   : 14s5p5d2f1g contracted to 8s4p3d1f1g pattern {71111111/2111/311/2/1}
 Group   3 Type N   : 12s5p4d2f1g contracted to 6s4p3d1f1g pattern {711111/2111/211/2/1}
 Group   4 Type Cl  : 14s5p5d2f1g contracted to 8s4p3d1f1g pattern {71111111/2111/311/2/1}
 Group   5 Type F   : 12s5p4d2f1g contracted to 6s4p3d1f1g pattern {711111/2111/211/2/1}
 Group   6 Type O   : 12s5p4d2f1g contracted to 6s4p3d1f1g pattern {711111/2111/211/2/1}
 Group   7 Type H   : 5s2p1d contracted to 3s1p1d pattern {311/2/1}

Atom   0C    basis set group =>   1
Atom   1C    basis set group =>   1
Atom   2C    basis set group =>   1
Atom   3C    basis set group =>   1
Atom   4S    basis set group =>   2
Atom   5C    basis set group =>   1
Atom   6C    basis set group =>   1
Atom   7C    basis set group =>   1
Atom   8C    basis set group =>   1
Atom   9C    basis set group =>   1
Atom  10N    basis set group =>   3
Atom  11C    basis set group =>   1
Atom  12N    basis set group =>   3
Atom  13C    basis set group =>   1
Atom  14C    basis set group =>   1
Atom  15S    basis set group =>   2
Atom  16C    basis set group =>   1
Atom  17C    basis set group =>   1
Atom  18C    basis set group =>   1
Atom  19C    basis set group =>   1
Atom  20C    basis set group =>   1
Atom  21C    basis set group =>   1
Atom  22C    basis set group =>   1
Atom  23C    basis set group =>   1
Atom  24S    basis set group =>   2
Atom  25C    basis set group =>   1
Atom  26Cl   basis set group =>   4
Atom  27C    basis set group =>   1
Atom  28C    basis set group =>   1
Atom  29C    basis set group =>   1
Atom  30C    basis set group =>   1
Atom  31S    basis set group =>   2
Atom  32C    basis set group =>   1
Atom  33C    basis set group =>   1
Atom  34C    basis set group =>   1
Atom  35C    basis set group =>   1
Atom  36S    basis set group =>   2
Atom  37C    basis set group =>   1
Atom  38Cl   basis set group =>   4
Atom  39C    basis set group =>   1
Atom  40C    basis set group =>   1
Atom  41S    basis set group =>   2
Atom  42C    basis set group =>   1
Atom  43C    basis set group =>   1
Atom  44C    basis set group =>   1
Atom  45C    basis set group =>   1
Atom  46C    basis set group =>   1
Atom  47F    basis set group =>   5
Atom  48C    basis set group =>   1
Atom  49C    basis set group =>   1
Atom  50C    basis set group =>   1
Atom  51C    basis set group =>   1
Atom  52C    basis set group =>   1
Atom  53F    basis set group =>   5
Atom  54C    basis set group =>   1
Atom  55C    basis set group =>   1
Atom  56C    basis set group =>   1
Atom  57C    basis set group =>   1
Atom  58C    basis set group =>   1
Atom  59C    basis set group =>   1
Atom  60C    basis set group =>   1
Atom  61C    basis set group =>   1
Atom  62N    basis set group =>   3
Atom  63O    basis set group =>   6
Atom  64N    basis set group =>   3
Atom  65C    basis set group =>   1
Atom  66C    basis set group =>   1
Atom  67C    basis set group =>   1
Atom  68C    basis set group =>   1
Atom  69C    basis set group =>   1
Atom  70N    basis set group =>   3
Atom  71C    basis set group =>   1
Atom  72N    basis set group =>   3
Atom  73C    basis set group =>   1
Atom  74C    basis set group =>   1
Atom  75C    basis set group =>   1
Atom  76C    basis set group =>   1
Atom  77C    basis set group =>   1
Atom  78C    basis set group =>   1
Atom  79C    basis set group =>   1
Atom  80C    basis set group =>   1
Atom  81C    basis set group =>   1
Atom  82N    basis set group =>   3
Atom  83C    basis set group =>   1
Atom  84N    basis set group =>   3
Atom  85H    basis set group =>   7
Atom  86H    basis set group =>   7
Atom  87H    basis set group =>   7
Atom  88H    basis set group =>   7
Atom  89H    basis set group =>   7
Atom  90H    basis set group =>   7
Atom  91H    basis set group =>   7
Atom  92H    basis set group =>   7
Atom  93H    basis set group =>   7
Atom  94H    basis set group =>   7
Atom  95H    basis set group =>   7
Atom  96H    basis set group =>   7
Atom  97H    basis set group =>   7
Atom  98H    basis set group =>   7
Atom  99H    basis set group =>   7
Atom 100H    basis set group =>   7
Atom 101H    basis set group =>   7
Atom 102H    basis set group =>   7
Atom 103H    basis set group =>   7
Atom 104H    basis set group =>   7
Atom 105H    basis set group =>   7
Atom 106H    basis set group =>   7
Atom 107H    basis set group =>   7
Atom 108H    basis set group =>   7
Atom 109H    basis set group =>   7
Atom 110H    basis set group =>   7


           ************************************************************
           *        Program running with 6 parallel MPI-processes     *
           *              working on a common directory               *
           ************************************************************
------------------------------------------------------------------------------
                           ORCA GTO INTEGRAL CALCULATION
                           -- RI-GTO INTEGRALS CHOSEN --
------------------------------------------------------------------------------

                         BASIS SET STATISTICS AND STARTUP INFO

Gaussian basis set:
 # of primitive gaussian shells          ... 1198
 # of primitive gaussian functions       ... 2318
 # of contracted shells                  ...  604
 # of contracted basis functions         ... 1352
 Highest angular momentum                ...    2
 Maximum contraction depth               ...    5
Auxiliary gaussian basis set:
 # of primitive gaussian shells          ... 2272
 # of primitive gaussian functions       ... 6422
 # of contracted shells                  ... 1421
 # of contracted aux-basis functions     ... 4467
 Highest angular momentum                ...    4
 Maximum contraction depth               ...    7
Ratio of auxiliary to basis functions    ...  3.30
Integral package used                  ... LIBINT
 One Electron integrals                  ... done
 Ordering auxiliary basis shells         ... done
 Integral threshhold             Thresh  ...  2.500e-11
 Primitive cut-off               TCut    ...  2.500e-12
 Pre-screening matrix                    ... done
 Shell pair data                         ... 
 Ordering of the shell pairs             ... done (   0.010 sec) 48747 of 182710 pairs
 Determination of significant pairs      ... done (   0.000 sec)
 Creation of shell pair data             ... done (   0.005 sec)
 Storage of shell pair data              ... done (   0.007 sec)
 Shell pair data done in (   0.023 sec)
 Computing two index integrals           ... done
 Cholesky decomposition of the V-matrix  ... done


Timings:
 Total evaluation time                   ...   3.062 sec (  0.051 min)
 One electron matrix time                ...   0.589 sec (  0.010 min) = 19.2%
 Schwartz matrix evaluation time         ...   0.817 sec (  0.014 min) = 26.7%
 Two index repulsion integral time       ...   0.350 sec (  0.006 min) = 11.4%
 Cholesky decomposition of V             ...   1.267 sec (  0.021 min) = 41.4%
 Three index repulsion integral time     ...   0.000 sec (  0.000 min) =  0.0%



           ************************************************************
           *        Program running with 6 parallel MPI-processes     *
           *              working on a common directory               *
           ************************************************************
-------------------------------------------------------------------------------
                                 ORCA SCF
-------------------------------------------------------------------------------

------------
SCF SETTINGS
------------
Hamiltonian:
 Density Functional     Method          .... DFT(GTOs)
 Exchange Functional    Exchange        .... WB88
 Correlation Functional Correlation     .... LYP
 LDA part of GGA corr.  LDAOpt          .... VWN-5
 Gradients option       PostSCFGGA      .... off
 Hybrid DFT is turned on
   Fraction HF Exchange ScalHFX         ....  0.190000
   Scaling of DF-GGA-X  ScalDFX         ....  0.350000
   Scaling of DF-GGA-C  ScalDFC         ....  0.810000
   Scaling of DF-LDA-C  ScalLDAC        ....  1.000000
   Perturbative correction              ....  0.000000
   Density functional embedding theory  .... OFF
 Long-range corrected/Screened/Range-Separated Hybrid DFT is turned on
   Amount of maximum screened exact exchange              ....  0.460000
   Range separation parameter mu (erf(mu*r12)/r12)        ....  0.330000
 RI-approximation to the Coulomb term is turned on
   Number of auxiliary basis functions  .... 4467
   RIJ-COSX (HFX calculated with COS-X)).... on


General Settings:
 Integral files         IntName         .... xtbopt
 Hartree-Fock type      HFTyp           .... RHF
 Total Charge           Charge          ....    0
 Multiplicity           Mult            ....    1
 Number of Electrons    NEL             ....  634
 Basis Dimension        Dim             .... 1352
 Nuclear Repulsion      ENuc            ....  13544.0128483823 Eh

Convergence Acceleration:
 DIIS                   CNVDIIS         .... on
   Start iteration      DIISMaxIt       ....    12
   Startup error        DIISStart       ....  0.200000
   # of expansion vecs  DIISMaxEq       ....     5
   Bias factor          DIISBfac        ....   1.050
   Max. coefficient     DIISMaxC        ....  10.000
 Newton-Raphson         CNVNR           .... off
 SOSCF                  CNVSOSCF        .... on
   Start iteration      SOSCFMaxIt      ....   150
   Startup grad/error   SOSCFStart      ....  0.003300
 Level Shifting         CNVShift        .... on
   Level shift para.    LevelShift      ....    0.2500
   Turn off err/grad.   ShiftErr        ....    0.0010
 Zerner damping         CNVZerner       .... off
 Static damping         CNVDamp         .... on
   Fraction old density DampFac         ....    0.7000
   Max. Damping (<1)    DampMax         ....    0.9800
   Min. Damping (>=0)   DampMin         ....    0.0000
   Turn off err/grad.   DampErr         ....    0.1000
 Fernandez-Rico         CNVRico         .... off

SCF Procedure:
 Maximum # iterations   MaxIter         ....   125
 SCF integral mode      SCFMode         .... Direct
   Integral package                     .... LIBINT
 Reset frequency        DirectResetFreq ....    20
 Integral Threshold     Thresh          ....  2.500e-11 Eh
 Primitive CutOff       TCut            ....  2.500e-12 Eh

Convergence Tolerance:
 Convergence Check Mode ConvCheckMode   .... Total+1el-Energy
 Convergence forced     ConvForced      .... 1
 Energy Change          TolE            ....  1.000e-08 Eh
 1-El. energy change                    ....  1.000e-05 Eh
 Orbital Gradient       TolG            ....  1.000e-05
 Orbital Rotation angle TolX            ....  1.000e-05
 DIIS Error             TolErr          ....  5.000e-07


Diagonalization of the overlap matrix:
Smallest eigenvalue                        ... 1.566e-04
Time for diagonalization                   ...    0.422 sec
Threshold for overlap eigenvalues          ... 1.000e-08
Number of eigenvalues below threshold      ... 0
Time for construction of square roots      ...    0.334 sec
Total time needed                          ...    0.757 sec

-------------------
DFT GRID GENERATION
-------------------

General Integration Accuracy     IntAcc      ...  4.670
Radial Grid Type                 RadialGrid  ... Gauss-Chebyshev
Angular Grid (max. acc.)         AngularGrid ... Lebedev-302
Angular grid pruning method      GridPruning ... 3 (G Style)
Weight generation scheme         WeightScheme... Becke
Basis function cutoff            BFCut       ...    1.0000e-11
Integration weight cutoff        WCut        ...    1.0000e-14
Grids for H and He will be reduced by one unit

# of grid points (after initial pruning)     ... 621240 (   0.0 sec)
# of grid points (after weights+screening)   ... 535517 (   8.4 sec)
nearest neighbour list constructed           ...    0.0 sec
Grid point re-assignment to atoms done       ...    0.1 sec
Grid point division into batches done        ...    2.1 sec
Reduced shell lists constructed in    3.0 sec

Total number of grid points                  ...   535517
Total number of batches                      ...     8425
Average number of points per batch           ...       63
Average number of grid points per atom       ...     4824
Average number of shells per batch           ...    80.20 (13.28%)
Average number of basis functions per batch  ...   173.78 (12.85%)
Average number of large shells per batch     ...    50.33 (62.75%)
Average number of large basis fcns per batch ...   111.35 (64.07%)
Maximum spatial batch extension              ...  19.93, 19.65, 16.97 au
Average spatial batch extension              ...   0.40,  0.32,  0.37 au

Time for grid setup =   11.708 sec

------------------------------
INITIAL GUESS: MODEL POTENTIAL
------------------------------
Loading Hartree-Fock densities                     ... done
Calculating cut-offs                               ... done
Setting up the integral package                    ... done
Initializing the effective Hamiltonian             ... done
Starting the Coulomb interaction                   ... done (   1.6 sec)
Reading the grid                                   ... done
Mapping shells                                     ... done
Starting the XC term evaluation                    ... done (   1.4 sec)
  promolecular density results
     # of electrons  =    633.986428203
     EX              =   -630.088061032
     EC              =    -22.238839128
     EX+EC           =   -652.326900160
Transforming the Hamiltonian                       ... done (   0.3 sec)
Diagonalizing the Hamiltonian                      ... done (   0.4 sec)
Back transforming the eigenvectors                 ... done (   0.2 sec)
Now organizing SCF variables                       ... done
                      ------------------
                      INITIAL GUESS DONE (  15.7 sec)
                      ------------------
--------------------
COSX GRID GENERATION
--------------------

General Integration Accuracy     IntAcc      ...  3.340
Radial Grid Type                 RadialGrid  ... Gauss-Chebyshev
Angular Grid (max. acc.)         AngularGrid ... Lebedev-50
Angular grid pruning method      GridPruning ... 3 (G Style)
Weight generation scheme         WeightScheme... Becke
Basis function cutoff            BFCut       ...    1.0000e-11
Integration weight cutoff        WCut        ...    1.0000e-14
Grids for H and He will be reduced by one unit

# of grid points (after initial pruning)     ...  58516 (   0.0 sec)
# of grid points (after weights+screening)   ...  52742 (   0.8 sec)
nearest neighbour list constructed           ...    0.0 sec
Grid point re-assignment to atoms done       ...    0.0 sec
Grid point division into batches done        ...    0.0 sec
Reduced shell lists constructed in    0.1 sec

Total number of grid points                  ...    52742
Total number of batches                      ...      883
Average number of points per batch           ...       59
Average number of grid points per atom       ...      475
Average number of shells per batch           ...    97.83 (16.20%)
Average number of basis functions per batch  ...   214.03 (15.83%)
Average number of large shells per batch     ...    61.21 (62.56%)
Average number of large basis fcns per batch ...   137.15 (64.08%)
Maximum spatial batch extension              ...  26.18, 13.43, 17.95 au
Average spatial batch extension              ...   1.00,  0.55,  0.82 au

Overlap Fitting                  UseSFitting ... on
Constructing numerical overlap ... done (      0.2 sec)
Inverting numerical overlap    ... done (      0.1 sec)
Obtaining analytic overlap     ... done (      0.0 sec)
Final contraction and storage  ... done (      0.5 sec)


General Integration Accuracy     IntAcc      ...  3.670
Radial Grid Type                 RadialGrid  ... Gauss-Chebyshev
Angular Grid (max. acc.)         AngularGrid ... Lebedev-50
Angular grid pruning method      GridPruning ... 3 (G Style)
Weight generation scheme         WeightScheme... Becke
Basis function cutoff            BFCut       ...    1.0000e-11
Integration weight cutoff        WCut        ...    1.0000e-14
Grids for H and He will be reduced by one unit

# of grid points (after initial pruning)     ...  72634 (   0.0 sec)
# of grid points (after weights+screening)   ...  65216 (   1.0 sec)
nearest neighbour list constructed           ...    0.0 sec
Grid point re-assignment to atoms done       ...    0.0 sec
Grid point division into batches done        ...    0.0 sec
Reduced shell lists constructed in    0.2 sec

Total number of grid points                  ...    65216
Total number of batches                      ...     1077
Average number of points per batch           ...       60
Average number of grid points per atom       ...      588
Average number of shells per batch           ...    95.86 (15.87%)
Average number of basis functions per batch  ...   209.38 (15.49%)
Average number of large shells per batch     ...    59.98 (62.57%)
Average number of large basis fcns per batch ...   134.11 (64.05%)
Maximum spatial batch extension              ...  27.71, 14.56, 19.12 au
Average spatial batch extension              ...   0.94,  0.51,  0.75 au

Overlap Fitting                  UseSFitting ... on
Constructing numerical overlap ... done (      0.2 sec)
Inverting numerical overlap    ... done (      0.1 sec)
Obtaining analytic overlap     ... done (      0.0 sec)
Final contraction and storage  ... done (      0.5 sec)


General Integration Accuracy     IntAcc      ...  4.010
Radial Grid Type                 RadialGrid  ... Gauss-Chebyshev
Angular Grid (max. acc.)         AngularGrid ... Lebedev-110
Angular grid pruning method      GridPruning ... 3 (G Style)
Weight generation scheme         WeightScheme... Becke
Basis function cutoff            BFCut       ...    1.0000e-11
Integration weight cutoff        WCut        ...    1.0000e-14
Grids for H and He will be reduced by one unit

# of grid points (after initial pruning)     ... 143418 (   0.0 sec)
# of grid points (after weights+screening)   ... 127331 (   2.0 sec)
nearest neighbour list constructed           ...    0.0 sec
Grid point re-assignment to atoms done       ...    0.0 sec
Grid point division into batches done        ...    0.1 sec
Reduced shell lists constructed in    0.4 sec

Total number of grid points                  ...   127331
Total number of batches                      ...     2051
Average number of points per batch           ...       62
Average number of grid points per atom       ...     1147
Average number of shells per batch           ...    89.21 (14.77%)
Average number of basis functions per batch  ...   194.54 (14.39%)
Average number of large shells per batch     ...    56.22 (63.02%)
Average number of large basis fcns per batch ...   125.23 (64.37%)
Maximum spatial batch extension              ...  24.65, 13.32, 18.29 au
Average spatial batch extension              ...   0.72,  0.45,  0.62 au

Overlap Fitting                  UseSFitting ... on
Constructing numerical overlap ... done (      0.3 sec)
Inverting numerical overlap    ... done (      0.1 sec)
Obtaining analytic overlap     ... done (      0.0 sec)
Final contraction and storage  ... done (      0.5 sec)

Time for X-Grid setup             =    7.237 sec
--------------
SCF ITERATIONS
--------------
ITER       Energy         Delta-E        Max-DP      RMS-DP      [F,P]     Damp
               ***  Starting incremental Fock matrix formation  ***
  0  -6546.2204795417   0.000000000000 0.07863093  0.00086624  0.2386429 0.7000
  1  -6546.9067249630  -0.686245421235 0.04433063  0.00060393  0.0955527 0.7000
                               ***Turning on DIIS***
  2  -6547.1936382058  -0.286913242835 0.09733066  0.00111450  0.0392728 0.0000
  3  -6547.6599144893  -0.466276283532 0.05367454  0.00047489  0.0503066 0.0000
  4  -6547.7545693128  -0.094654823442 0.01670952  0.00015284  0.0236492 0.0000
  5  -6547.7625367637  -0.007967450978 0.00717501  0.00006218  0.0086216 0.0000
  6  -6547.7644331612  -0.001896397433 0.00271112  0.00003863  0.0015933 0.0000
  7  -6547.7653494247  -0.000916263492 0.00205552  0.00002834  0.0013065 0.0000
  8  -6547.7659015598  -0.000552135136 0.00187213  0.00002253  0.0010222 0.0000
                      *** Initiating the SOSCF procedure ***
                           *** Shutting down DIIS ***
                      *** Re-Reading the Fockian *** 
                      *** Removing any level shift *** 
ITER      Energy       Delta-E        Grad      Rot      Max-DP    RMS-DP
  9  -6547.76625070  -0.0003491359  0.003189  0.003189  0.004014  0.000048
               *** Restarting incremental Fock matrix formation ***
 10  -6547.76661301  -0.0003623110  0.000544  0.004676  0.001162  0.000017
 11  -6547.76664003  -0.0000270228  0.000592  0.006569  0.001213  0.000013
 12  -6547.76668272  -0.0000426874  0.000196  0.002747  0.000842  0.000007
 13  -6547.76668202   0.0000006954  0.000175  0.000905  0.000419  0.000004
 14  -6547.76668731  -0.0000052867  0.000034  0.000247  0.000168  0.000001
 15  -6547.76668720   0.0000001040  0.000043  0.000113  0.000101  0.000001
 16  -6547.76668755  -0.0000003435  0.000010  0.000045  0.000045  0.000000
 17  -6547.76668756  -0.0000000153  0.000016  0.000020  0.000024  0.000000
                  ***Gradient check signals convergence***
              ***Rediagonalizing the Fockian in SOSCF/NRSCF***

               *****************************************************
               *                     SUCCESS                       *
               *           SCF CONVERGED AFTER  18 CYCLES          *
               *****************************************************

Setting up the final grid:

General Integration Accuracy     IntAcc      ...  5.010
Radial Grid Type                 RadialGrid  ... Gauss-Chebyshev
Angular Grid (max. acc.)         AngularGrid ... Lebedev-434
Angular grid pruning method      GridPruning ... 3 (G Style)
Weight generation scheme         WeightScheme... Becke
Basis function cutoff            BFCut       ...    1.0000e-11
Integration weight cutoff        WCut        ...    1.0000e-14
Grids for H and He will be reduced by one unit

# of grid points (after initial pruning)     ... 1091466 (   0.0 sec)
# of grid points (after weights+screening)   ... 937822 (  14.3 sec)
nearest neighbour list constructed           ...    0.0 sec
Grid point re-assignment to atoms done       ...    0.1 sec
Grid point division into batches done        ...    6.8 sec
Reduced shell lists constructed in    8.3 sec

Total number of grid points                  ...   937822
Total number of batches                      ...    14717
Average number of points per batch           ...       63
Average number of grid points per atom       ...     8449
Average number of shells per batch           ...    78.50 (13.00%)
Average number of basis functions per batch  ...   169.78 (12.56%)
Average number of large shells per batch     ...    49.21 (62.68%)
Average number of large basis fcns per batch ...   108.72 (64.04%)
Maximum spatial batch extension              ...  20.62, 13.85, 17.21 au
Average spatial batch extension              ...   0.32,  0.27,  0.30 au

Final grid set up in   23.2 sec
Final integration                            ... done (   3.2 sec)
Change in XC energy                          ...    -0.000072068
Integrated number of electrons               ...   633.999920818
Previous integrated no of electrons          ...   633.999534167
Old exchange energy                            =   -170.994312915 Eh
New exchange energy                            =   -170.991317106 Eh
Exchange energy change after final integration =      0.002995809 Eh
Total energy after final integration           =  -6547.763763813 Eh
Final COS-X integration done in                =    71.056 sec

----------------
TOTAL SCF ENERGY
----------------

Total Energy       :        -6547.76376381 Eh         -178173.71019 eV

Components:
Nuclear Repulsion  :        13544.01284838 Eh          368551.32639 eV
Electronic Energy  :       -20091.77661219 Eh         -546725.03658 eV
One Electron Energy:       -35956.65239563 Eh         -978430.25412 eV
Two Electron Energy:        15864.87578344 Eh          431705.21754 eV

Virial components:
Potential Energy   :       -13058.84901134 Eh         -355349.34721 eV
Kinetic Energy     :         6511.08524753 Eh          177175.63702 eV
Virial Ratio       :            2.00563324


DFT components:
N(Alpha)           :      316.999960408772 electrons
N(Beta)            :      316.999960408772 electrons
N(Total)           :      633.999920817544 electrons
E(XC)              :     -490.522950592798 Eh       
DFET-embed. en.    :        0.000000000000 Eh       

---------------
SCF CONVERGENCE
---------------

  Last Energy change         ...    9.7407e-09  Tolerance :   1.0000e-08
  Last MAX-Density change    ...    8.8818e-15  Tolerance :   1.0000e-07
  Last RMS-Density change    ...    4.0669e-17  Tolerance :   5.0000e-09
  Last Orbital Gradient      ...    1.9602e-06  Tolerance :   1.0000e-05
  Last Orbital Rotation      ...    1.3489e-05  Tolerance :   1.0000e-05

             **** THE GBW FILE WAS UPDATED (xtbopt.gbw) ****
             **** DENSITY FILE WAS UPDATED (xtbopt.scfp) ****
             **** ENERGY FILE WAS UPDATED (xtbopt.en.tmp) ****
             **** THE GBW FILE WAS UPDATED (xtbopt.gbw) ****
             **** DENSITY FILE WAS UPDATED (xtbopt.scfp) ****
----------------
ORBITAL ENERGIES
----------------

  NO   OCC          E(Eh)            E(eV) 
   0   2.0000    -101.587849     -2764.3459 
   1   2.0000    -101.585314     -2764.2769 
   2   2.0000     -88.991070     -2421.5701 
   3   2.0000     -88.988763     -2421.5073 
   4   2.0000     -88.963977     -2420.8329 
   5   2.0000     -88.961111     -2420.7549 
   6   2.0000     -88.960974     -2420.7512 
   7   2.0000     -88.960462     -2420.7372 
   8   2.0000     -24.799042      -674.8162 
   9   2.0000     -24.794659      -674.6970 
  10   2.0000     -19.363851      -526.9172 
  11   2.0000     -14.491802      -394.3420 
  12   2.0000     -14.486194      -394.1894 
  13   2.0000     -14.429951      -392.6589 
  14   2.0000     -14.429463      -392.6457 
  15   2.0000     -14.425547      -392.5391 
  16   2.0000     -14.421480      -392.4284 
  17   2.0000     -14.421379      -392.4257 
  18   2.0000     -14.418755      -392.3543 
  19   2.0000     -10.365558      -282.0612 
  20   2.0000     -10.363781      -282.0128 
  21   2.0000     -10.361556      -281.9523 
  22   2.0000     -10.352958      -281.7183 
  23   2.0000     -10.351414      -281.6763 
  24   2.0000     -10.350394      -281.6486 
  25   2.0000     -10.349056      -281.6121 
  26   2.0000     -10.343750      -281.4677 
  27   2.0000     -10.334970      -281.2288 
  28   2.0000     -10.333936      -281.2007 
  29   2.0000     -10.332732      -281.1679 
  30   2.0000     -10.330394      -281.1043 
  31   2.0000     -10.330326      -281.1025 
  32   2.0000     -10.329813      -281.0885 
  33   2.0000     -10.327706      -281.0312 
  34   2.0000     -10.326821      -281.0071 
  35   2.0000     -10.326547      -280.9996 
  36   2.0000     -10.325361      -280.9674 
  37   2.0000     -10.323933      -280.9285 
  38   2.0000     -10.323392      -280.9138 
  39   2.0000     -10.322790      -280.8974 
  40   2.0000     -10.322283      -280.8836 
  41   2.0000     -10.321776      -280.8698 
  42   2.0000     -10.320779      -280.8427 
  43   2.0000     -10.320622      -280.8384 
  44   2.0000     -10.318370      -280.7771 
  45   2.0000     -10.316689      -280.7314 
  46   2.0000     -10.315989      -280.7123 
  47   2.0000     -10.314963      -280.6844 
  48   2.0000     -10.314726      -280.6780 
  49   2.0000     -10.314073      -280.6602 
  50   2.0000     -10.312967      -280.6301 
  51   2.0000     -10.312851      -280.6269 
  52   2.0000     -10.312054      -280.6052 
  53   2.0000     -10.311613      -280.5933 
  54   2.0000     -10.311354      -280.5862 
  55   2.0000     -10.310504      -280.5631 
  56   2.0000     -10.309289      -280.5300 
  57   2.0000     -10.306944      -280.4662 
  58   2.0000     -10.306529      -280.4549 
  59   2.0000     -10.305293      -280.4213 
  60   2.0000     -10.305198      -280.4187 
  61   2.0000     -10.304674      -280.4044 
  62   2.0000     -10.304044      -280.3873 
  63   2.0000     -10.302618      -280.3485 
  64   2.0000     -10.302144      -280.3356 
  65   2.0000     -10.300467      -280.2900 
  66   2.0000     -10.300378      -280.2875 
  67   2.0000     -10.299151      -280.2541 
  68   2.0000     -10.298735      -280.2428 
  69   2.0000     -10.298717      -280.2423 
  70   2.0000     -10.298529      -280.2372 
  71   2.0000     -10.297940      -280.2212 
  72   2.0000     -10.297675      -280.2140 
  73   2.0000     -10.297085      -280.1979 
  74   2.0000     -10.296765      -280.1892 
  75   2.0000     -10.287324      -279.9323 
  76   2.0000     -10.285131      -279.8726 
  77   2.0000     -10.284260      -279.8489 
  78   2.0000     -10.283436      -279.8265 
  79   2.0000     -10.283346      -279.8241 
  80   2.0000     -10.281565      -279.7756 
  81   2.0000     -10.279984      -279.7326 
  82   2.0000     -10.279549      -279.7207 
  83   2.0000     -10.276260      -279.6313 
  84   2.0000     -10.271244      -279.4947 
  85   2.0000      -9.542605      -259.6675 
  86   2.0000      -9.540056      -259.5981 
  87   2.0000      -8.085635      -220.0213 
  88   2.0000      -8.083874      -219.9734 
  89   2.0000      -8.059469      -219.3093 
  90   2.0000      -8.056737      -219.2350 
  91   2.0000      -8.056409      -219.2260 
  92   2.0000      -8.055666      -219.2058 
  93   2.0000      -7.312864      -198.9931 
  94   2.0000      -7.310305      -198.9235 
  95   2.0000      -7.302674      -198.7159 
  96   2.0000      -7.302586      -198.7135 
  97   2.0000      -7.300122      -198.6464 
  98   2.0000      -7.300056      -198.6446 
  99   2.0000      -6.054904      -164.7623 
 100   2.0000      -6.053115      -164.7136 
 101   2.0000      -6.050728      -164.6487 
 102   2.0000      -6.048683      -164.5930 
 103   2.0000      -6.047956      -164.5732 
 104   2.0000      -6.046466      -164.5327 
 105   2.0000      -6.028780      -164.0515 
 106   2.0000      -6.026158      -163.9801 
 107   2.0000      -6.026027      -163.9765 
 108   2.0000      -6.025291      -163.9565 
 109   2.0000      -6.024629      -163.9385 
 110   2.0000      -6.021920      -163.8648 
 111   2.0000      -6.021802      -163.8616 
 112   2.0000      -6.021573      -163.8553 
 113   2.0000      -6.021096      -163.8424 
 114   2.0000      -6.018837      -163.7809 
 115   2.0000      -6.017577      -163.7466 
 116   2.0000      -6.017125      -163.7343 
 117   2.0000      -1.316872       -35.8339 
 118   2.0000      -1.311835       -35.6968 
 119   2.0000      -1.307060       -35.5669 
 120   2.0000      -1.043875       -28.4053 
 121   2.0000      -1.037949       -28.2440 
 122   2.0000      -1.022814       -27.8322 
 123   2.0000      -1.022258       -27.8171 
 124   2.0000      -1.020138       -27.7594 
 125   2.0000      -1.018448       -27.7134 
 126   2.0000      -1.011807       -27.5327 
 127   2.0000      -1.007758       -27.4225 
 128   2.0000      -1.007418       -27.4132 
 129   2.0000      -1.006378       -27.3849 
 130   2.0000      -1.001902       -27.2631 
 131   2.0000      -1.001718       -27.2581 
 132   2.0000      -1.001358       -27.2483 
 133   2.0000      -0.997388       -27.1403 
 134   2.0000      -0.994868       -27.0717 
 135   2.0000      -0.985927       -26.8284 
 136   2.0000      -0.974931       -26.5292 
 137   2.0000      -0.959046       -26.0970 
 138   2.0000      -0.956690       -26.0329 
 139   2.0000      -0.948957       -25.8224 
 140   2.0000      -0.943919       -25.6853 
 141   2.0000      -0.940530       -25.5931 
 142   2.0000      -0.934588       -25.4314 
 143   2.0000      -0.928284       -25.2599 
 144   2.0000      -0.923193       -25.1213 
 145   2.0000      -0.906324       -24.6623 
 146   2.0000      -0.904254       -24.6060 
 147   2.0000      -0.896171       -24.3860 
 148   2.0000      -0.890987       -24.2450 
 149   2.0000      -0.870702       -23.6930 
 150   2.0000      -0.868055       -23.6210 
 151   2.0000      -0.865354       -23.5475 
 152   2.0000      -0.862990       -23.4831 
 153   2.0000      -0.857724       -23.3399 
 154   2.0000      -0.852292       -23.1920 
 155   2.0000      -0.851594       -23.1730 
 156   2.0000      -0.846704       -23.0400 
 157   2.0000      -0.838612       -22.8198 
 158   2.0000      -0.816993       -22.2315 
 159   2.0000      -0.815725       -22.1970 
 160   2.0000      -0.813529       -22.1373 
 161   2.0000      -0.811496       -22.0819 
 162   2.0000      -0.803514       -21.8647 
 163   2.0000      -0.798500       -21.7283 
 164   2.0000      -0.791483       -21.5373 
 165   2.0000      -0.783781       -21.3278 
 166   2.0000      -0.783259       -21.3136 
 167   2.0000      -0.776095       -21.1186 
 168   2.0000      -0.774768       -21.0825 
 169   2.0000      -0.764459       -20.8020 
 170   2.0000      -0.758591       -20.6423 
 171   2.0000      -0.749963       -20.4075 
 172   2.0000      -0.735417       -20.0117 
[...]
  48   4.603     269.3   0.045981   0.038173  -55.998205  -53.752965     0.42 ( 108-> 117)    0.10 ( 108-> 119)    0.09 ( 108-> 115)
  49   4.629     267.9   0.255655   0.220221  -8.451012   7.778323     0.17 ( 106-> 117)    0.13 ( 112-> 121)    0.09 (  98-> 115)
  50   4.650     266.6   0.123430   0.103666  32.529164  -2.599121     0.15 (  96-> 115)    0.15 ( 109-> 119)    0.11 (  98-> 115)
  51   4.688     264.4   0.033574   0.030611  51.827372  50.233663     0.48 ( 112-> 121)    0.10 ( 113-> 121)    0.05 ( 108-> 117)
  52   4.743     261.4   0.018908   0.015805  -8.103267  -7.387371     0.47 ( 109-> 116)    0.12 ( 107-> 116)    0.09 ( 111-> 120)
  53   4.759     260.5   0.157867   0.134999  -48.991008  -50.786132     0.13 ( 109-> 116)    0.13 ( 111-> 120)    0.12 ( 111-> 119)
  54   4.790     258.8   0.019750   0.016198  20.354336  22.390828     0.10 (  96-> 115)    0.09 (  94-> 115)    0.09 ( 109-> 119)
  55   4.823     257.1   0.007765   0.007253  -6.340068  -6.390103     0.28 ( 110-> 120)    0.16 ( 110-> 119)    0.14 ( 114-> 125)
  56   4.846     255.8   0.110862   0.092172  18.770426  13.355214     0.10 ( 113-> 122)    0.10 ( 114-> 122)    0.08 (  91-> 115)
  57   4.857     255.3   0.092713   0.076567  -93.750395  -84.172500     0.14 ( 108-> 117)    0.12 ( 108-> 120)    0.11 ( 100-> 116)
  58   4.886     253.8   0.012936   0.009468  -49.070318  -43.631086     0.13 (  96-> 115)    0.08 (  94-> 115)    0.06 ( 109-> 119)
  59   4.889     253.6   0.034299   0.028163  117.122672  103.606962     0.07 ( 109-> 116)    0.06 ( 114-> 125)    0.06 ( 107-> 116)
  60   4.926     251.7   0.013176   0.010287  -16.429135  -10.538702     0.45 ( 105-> 117)    0.11 ( 105-> 115)    0.07 ( 103-> 117)
  61   4.979     249.0   0.017738   0.014855  -8.245423  -7.772679     0.17 ( 112-> 119)    0.11 ( 112-> 120)    0.08 ( 100-> 116)
  62   4.988     248.6   0.017236   0.013947  -120.626972  -106.038897     0.11 ( 102-> 117)    0.09 ( 107-> 116)    0.08 ( 100-> 116)

-----------------------------------------------------------------------------
         ABSORPTION SPECTRUM VIA TRANSITION ELECTRIC DIPOLE MOMENTS
-----------------------------------------------------------------------------
State   Energy  Wavelength   fosc         T2         TX        TY        TZ  
        (cm-1)    (nm)                  (au**2)     (au)      (au)      (au) 
-----------------------------------------------------------------------------
   0   12234.2    817.4   1.402739394  37.74646  -1.35483   5.97263   0.48839
   1   14288.9    699.8   0.011572165   0.26662  -0.34497  -0.38113   0.04857
   2   16170.8    618.4   0.363045840   7.39102  -1.51816   2.25071  -0.14321
   3   18506.6    540.3   0.030477000   0.54215   0.26676   0.01016   0.68621
   4   19350.9    516.8   0.246611744   4.19554  -1.05840   1.66720   0.54386
   5   20667.4    483.9   0.006665412   0.10617   0.03858   0.01053  -0.32338
   6   21796.4    458.8   0.413291991   6.24233  -0.13813  -2.49366   0.07005
   7   22661.6    441.3   0.244280426   3.54873  -0.32915   1.76795   0.56102
   8   23559.8    424.5   0.065039593   0.90883   0.39801   0.86358   0.06823
   9   24171.3    413.7   0.277808625   3.78375  -0.20695   1.90441   0.33783
  10   24603.2    406.5   0.222643004   2.97915  -0.68791   1.55001  -0.32156
  11   26010.8    384.5   0.075070392   0.95014  -0.61549  -0.71275  -0.25159
  12   26302.1    380.2   0.067194249   0.84104  -0.22472  -0.86196  -0.21811
  13   26885.8    371.9   0.465762553   5.70318   1.11510   1.34342   1.62940
  14   27671.3    361.4   0.057407376   0.68299   0.01083   0.70789  -0.42634
  15   28430.8    351.7   0.003320996   0.03846   0.12159  -0.09046  -0.12445
  16   28481.8    351.1   0.213783438   2.47105   0.20175  -1.47053   0.51760
  17   28893.1    346.1   0.025268595   0.28791   0.32065   0.39058   0.18041
  18   29266.9    341.7   0.014106629   0.15868  -0.04101  -0.39566  -0.02123
  19   29800.9    335.6   0.013214348   0.14598   0.02031  -0.35134   0.14875
  20   30054.6    332.7   0.014544191   0.15931  -0.14607  -0.36667   0.05943
  21   30146.1    331.7   0.050603246   0.55261  -0.03787  -0.73369  -0.11348
  22   30555.0    327.3   0.300359732   3.23620   0.11672  -1.77256   0.28392
  23   30617.8    326.6   0.012039099   0.12945   0.00144   0.24376  -0.26462
  24   31192.8    320.6   0.408070087   4.30682   0.86342   1.88714   0.00504
  25   31255.5    319.9   0.033399389   0.35179  -0.47391  -0.21008  -0.28821
  26   31383.5    318.6   0.105735162   1.10916   0.04424  -1.05220   0.00850
  27   31600.6    316.4   0.062454281   0.65064   0.02610   0.79855   0.11078
  28   31969.5    312.8   0.101425906   1.04445   0.50162  -0.17565   0.87291
  29   32048.2    312.0   0.143297079   1.47201  -0.70988   0.17646  -0.96796
  30   32568.6    307.0   0.745661625   7.53735  -1.21609   0.98758  -2.25459
  31   32824.0    304.7   0.279204201   2.80031  -0.41076  -1.62217  -0.01232
  32   33394.3    299.5   0.114523251   1.12901  -0.45999   0.92853  -0.23505
  33   33560.8    298.0   0.063444481   0.62235   0.53786   0.56379  -0.12330
  34   33728.2    296.5   0.050278964   0.49076  -0.17578  -0.67521  -0.06284
  35   34147.5    292.8   0.040516547   0.39061   0.26891   0.51326   0.23424
  36   34151.5    292.8   0.044323964   0.42727  -0.22603   0.58176  -0.19424
  37   34247.0    292.0   0.082600480   0.79403   0.38383   0.34696   0.72548
  38   34532.7    289.6   0.016153867   0.15400  -0.08246   0.06984  -0.37726
  39   35052.3    285.3   0.022073967   0.20732   0.29696  -0.29480   0.17953
  40   35378.9    282.7   0.010689654   0.09947   0.28514   0.12826   0.04140
  41   35480.8    281.8   0.076430175   0.70916  -0.67721  -0.23692  -0.44094
  42   35550.7    281.3   0.012363352   0.11449   0.26651   0.07974   0.19263
  43   35731.0    279.9   0.062088051   0.57206  -0.62914   0.39451  -0.14352
  44   36286.2    275.6   0.126204765   1.14501  -0.67649   0.71176  -0.42518
  45   36564.8    273.5   0.013822954   0.12446   0.08234  -0.34024  -0.04369
  46   36646.2    272.9   0.112422580   1.00995  -0.49530   0.86904   0.09693
  47   36755.4    272.1   0.061566278   0.55144   0.46690   0.51034   0.27018
  48   37128.5    269.3   0.045980851   0.40770   0.48625  -0.09916   0.40179
  49   37331.5    267.9   0.255655304   2.25453  -1.25372   0.43353  -0.70339
  50   37504.6    266.6   0.123430437   1.08346   0.73470  -0.63702   0.37133
  51   37814.6    264.4   0.033574062   0.29229   0.28344   0.10042   0.44930
  52   38252.7    261.4   0.018908470   0.16273   0.19446  -0.31823   0.15378
  53   38385.8    260.5   0.157867417   1.35393  -0.50571   0.90133  -0.53460
  54   38637.1    258.8   0.019750175   0.16828   0.09290   0.22499   0.33020
  55   38898.6    257.1   0.007764987   0.06572   0.07833   0.18003   0.16483
  56   39088.6    255.8   0.110861795   0.93370   0.13463   0.94949   0.11852
  57   39174.2    255.3   0.092712717   0.77914  -0.46843  -0.24387  -0.70728
  58   39408.2    253.8   0.012935691   0.10806   0.29963   0.13282  -0.02542
  59   39434.0    253.6   0.034299008   0.28634  -0.11619   0.40662  -0.32788
  60   39731.5    251.7   0.013175996   0.10918   0.04648   0.29851  -0.13383
  61   40155.5    249.0   0.017738256   0.14543   0.04807  -0.30855   0.21889
  62   40229.0    248.6   0.017235537   0.14105   0.30541   0.20914   0.06352

-----------------------------------------------------------------------------
         ABSORPTION SPECTRUM VIA TRANSITION VELOCITY DIPOLE MOMENTS
-----------------------------------------------------------------------------
State   Energy  Wavelength   fosc         P2         PX        PY        PZ  
        (cm-1)    (nm)                  (au**2)     (au)      (au)      (au) 
-----------------------------------------------------------------------------
   0   12234.2    817.4   2.034579362   0.17012  -0.08983   0.40098   0.03557
   1   14288.9    699.8   0.011875537   0.00116  -0.02690  -0.02078   0.00217
   2   16170.8    618.4   0.476288291   0.05264  -0.12628   0.19131  -0.00965
   3   18506.6    540.3   0.031714807   0.00401   0.02339  -0.00198   0.05883
   4   19350.9    516.8   0.246972138   0.03266  -0.09805   0.14377   0.04876
   5   20667.4    483.9   0.006739769   0.00095   0.00400  -0.00655  -0.02988
   6   21796.4    458.8   0.377588542   0.05625  -0.01604  -0.23647   0.00861
   7   22661.6    441.3   0.251701251   0.03898  -0.03184   0.18568   0.05909
   8   23559.8    424.5   0.065086985   0.01048   0.04597   0.09120   0.00698
   9   24171.3    413.7   0.293126938   0.04842  -0.02731   0.21488   0.03877
  10   24603.2    406.5   0.205810402   0.03461  -0.07814   0.16415  -0.03944
  11   26010.8    384.5   0.070728360   0.01257  -0.07480  -0.07814  -0.02954
  12   26302.1    380.2   0.064431411   0.01158  -0.02884  -0.09963  -0.02872
  13   26885.8    371.9   0.452698374   0.08318   0.13572   0.16293   0.19549
  14   27671.3    361.4   0.059926843   0.01133   0.00089   0.09147  -0.05445
  15   28430.8    351.7   0.002818383   0.00055   0.01468  -0.00753  -0.01659
  16   28481.8    351.1   0.196957926   0.03834   0.02254  -0.18482   0.06061
  17   28893.1    346.1   0.023879516   0.00472   0.04189   0.04900   0.02367
  18   29266.9    341.7   0.011705949   0.00234  -0.00517  -0.04809  -0.00155
  19   29800.9    335.6   0.010531281   0.00214   0.00137  -0.04201   0.01945
  20   30054.6    332.7   0.013151309   0.00270  -0.01852  -0.04807   0.00689
  21   30146.1    331.7   0.052502161   0.01082  -0.00559  -0.10286  -0.01434
  22   30555.0    327.3   0.279204214   0.05831   0.01731  -0.23709   0.04233
  23   30617.8    326.6   0.011496587   0.00241  -0.00064   0.03235  -0.03687
  24   31192.8    320.6   0.357152206   0.07614   0.11994   0.24847   0.00436
  25   31255.5    319.9   0.032605824   0.00697  -0.06149  -0.03827  -0.04148
  26   31383.5    318.6   0.094035981   0.02017   0.00492  -0.14193   0.00097
  27   31600.6    316.4   0.058595420   0.01266   0.00237   0.11141   0.01539
  28   31969.5    312.8   0.095485665   0.02086   0.07075  -0.02774   0.12283
  29   32048.2    312.0   0.128370292   0.02812  -0.09762   0.02679  -0.13368
  30   32568.6    307.0   0.667538953   0.14859  -0.17030   0.13958  -0.31639
  31   32824.0    304.7   0.255963648   0.05742  -0.05845  -0.23239  -0.00105
  32   33394.3    299.5   0.102148123   0.02331  -0.06541   0.13375  -0.03388
  33   33560.8    298.0   0.060255292   0.01382   0.07654   0.08777  -0.01607
  34   33728.2    296.5   0.040388422   0.00931  -0.02520  -0.09295  -0.00597
  35   34147.5    292.8   0.034256208   0.00799   0.03759   0.07396   0.03334
  36   34151.5    292.8   0.034629848   0.00808  -0.03215   0.07907  -0.02824
  37   34247.0    292.0   0.070717275   0.01655   0.05522   0.05161   0.10411
  38   34532.7    289.6   0.013684881   0.00323  -0.01052   0.01072  -0.05481
  39   35052.3    285.3   0.018271160   0.00438   0.04487  -0.04074   0.02653
  40   35378.9    282.7   0.009641067   0.00233   0.04293   0.02098   0.00692
  41   35480.8    281.8   0.064941055   0.01575  -0.10081  -0.03799  -0.06435
  42   35550.7    281.3   0.010722723   0.00261   0.04082   0.01020   0.02890
  43   35731.0    279.9   0.054734225   0.01337  -0.09718   0.05898  -0.02109
  44   36286.2    275.6   0.110283944   0.02735  -0.10408   0.11159  -0.06375
  45   36564.8    273.5   0.011629514   0.00291   0.01315  -0.05175  -0.00741
  46   36646.2    272.9   0.101484581   0.02542  -0.07740   0.13828   0.01751
  47   36755.4    272.1   0.051268322   0.01288   0.06952   0.08036   0.03985
  48   37128.5    269.3   0.038173411   0.00969   0.07417  -0.01848   0.06200
  49   37331.5    267.9   0.220221421   0.05619  -0.19857   0.06838  -0.10991
  50   37504.6    266.6   0.103665534   0.02657   0.11361  -0.09949   0.06136
  51   37814.6    264.4   0.030611323   0.00791   0.04665   0.01865   0.07340
  52   38252.7    261.4   0.015805246   0.00413   0.02972  -0.05214   0.02302
  53   38385.8    260.5   0.134999333   0.03542  -0.07878   0.15020  -0.08155
  54   38637.1    258.8   0.016198407   0.00428   0.01627   0.03462   0.05305
  55   38898.6    257.1   0.007253270   0.00193   0.01257   0.03243   0.02681
  56   39088.6    255.8   0.092172150   0.02462   0.02464   0.15348   0.02143
  57   39174.2    255.3   0.076566794   0.02050  -0.07633  -0.03913  -0.11464
  58   39408.2    253.8   0.009468351   0.00255   0.04548   0.02170  -0.00332
  59   39434.0    253.6   0.028162646   0.00759  -0.01889   0.06739  -0.05188
  60   39731.5    251.7   0.010286640   0.00279   0.00553   0.04688  -0.02377
  61   40155.5    249.0   0.014854723   0.00408   0.00891  -0.05253   0.03518
  62   40229.0    248.6   0.013946912   0.00383   0.05099   0.03380   0.00960

-------------------------------------------------------------------
                             CD SPECTRUM
-------------------------------------------------------------------
State   Energy Wavelength       R         MX        MY        MZ   
        (cm-1)   (nm)       (1e40*cgs)   (au)      (au)      (au)  
-------------------------------------------------------------------
   0   12234.2    817.4    108.65895  -1.24575  -0.23058  -1.57989
   1   14288.9    699.8    -52.98177  -0.71499   0.00443  -0.41577
   2   16170.8    618.4    -212.41845  -0.40903  -0.09311  -3.41954
   3   18506.6    540.3     64.74828  -0.74282  -0.10356  -0.10999
   4   19350.9    516.8    -52.85286  -2.51035  -0.48579  -2.98396
   5   20667.4    483.9     -9.08779   1.27150   0.12184   0.03645
   6   21796.4    458.8    -58.80300  -0.32566  -0.12043  -1.36821
   7   22661.6    441.3    110.15307  -2.13529  -0.45106  -0.66431
   8   23559.8    424.5     30.24063  -0.50468  -0.21461   3.77983
   9   24171.3    413.7     22.05703  -0.38145  -0.00240  -0.49713
  10   24603.2    406.5    -16.94505   1.25877   0.25562  -1.68423
  11   26010.8    384.5    -167.93034  -0.01326  -0.04967  -2.65840
  12   26302.1    380.2     15.58871   0.89820   0.09931  -1.01466
  13   26885.8    371.9    -87.72071  -3.14140  -0.52988   2.81513
  14   27671.3    361.4    114.44338   1.93746   0.26676   1.63093
  15   28430.8    351.7     23.30044   0.88970   0.15157   1.55334
  16   28481.8    351.1    115.35217  -1.28205  -0.22001  -1.07079
  17   28893.1    346.1    -25.46186  -1.06812  -0.28133   3.10624
  18   29266.9    341.7     25.64504   0.60438   0.25497  -0.79449
  19   29800.9    335.6     85.75149  -0.43950   0.00463  -2.37462
  20   30054.6    332.7     15.13119   0.15402  -0.13970  -1.56337
  21   30146.1    331.7    -10.72496   0.40903   0.03578  -0.76877
  22   30555.0    327.3     11.34631  -1.05075  -0.05725  -0.09496
  23   30617.8    326.6     30.90910   0.83716   0.08809   0.58122
  24   31192.8    320.6    345.36152  -0.58071  -0.53736   9.98609
  25   31255.5    319.9    -126.82332   1.49986   0.34068  -4.58129
  26   31383.5    318.6      2.14407  -1.10284  -0.03065   0.87581
  27   31600.6    316.4     34.41186   1.10623  -0.03039  -1.35932
  28   31969.5    312.8    -85.17906  -0.76047  -0.33362   0.78384
  29   32048.2    312.0    -286.69803   1.22805   0.47197  -2.07110
  30   32568.6    307.0     -3.81319   0.05880   0.93269   0.36966
  31   32824.0    304.7    185.73770   1.30680   0.20116  -6.09832
  32   33394.3    299.5    -228.18449  -0.14282   0.23809  -2.89838
  33   33560.8    298.0    144.94751   0.10027  -0.10582   4.94065
  34   33728.2    296.5    -15.11322  -0.19679   0.12097  -1.76974
  35   34147.5    292.8    -118.83225   0.02732  -0.00107   2.12316
  36   34151.5    292.8     30.75679   1.04286   0.04059  -0.42025
  37   34247.0    292.0    176.20678  -0.29360  -0.23473  -0.76278
  38   34532.7    289.6    111.06592   0.87394   0.26460   1.10690
  39   35052.3    285.3     -0.83339  -1.08417  -0.37299   1.20057
  40   35378.9    282.7     38.54617  -0.87977  -0.19513   2.71412
  41   35480.8    281.8    -127.72990   1.61788   0.53347  -4.00033
  42   35550.7    281.3    -36.46763  -0.72903  -0.27474   1.92548
  43   35731.0    279.9     67.92665   2.23672   0.92170  -5.26342
  44   36286.2    275.6    -245.62583   0.75006   0.41932  -2.94221
  45   36564.8    273.5      2.95839   0.00523   0.00639   0.24737
  46   36646.2    272.9     73.15050   0.31885   0.22595  -3.59803
  47   36755.4    272.1    -75.16518  -1.24597  -0.10511   3.53201
  48   37128.5    269.3    -55.99821  -1.44663  -0.21250   2.28955
  49   37331.5    267.9     -8.45101   4.38614   0.76869  -7.39506
  50   37504.6    266.6     32.52916  -4.41032  -1.68039   5.47173
  51   37814.6    264.4     51.82737  -1.11255  -0.18392   0.25360
  52   38252.7    261.4     -8.10327  -0.59513  -0.14996   0.66580
  53   38385.8    260.5    -48.99101   3.03262   0.86141  -1.80516
  54   38637.1    258.8     20.35434  -3.10045  -0.85897   1.19607
  55   38898.6    257.1     -6.34007  -0.08402   0.13211   0.05881
  56   39088.6    255.8     18.77043  -1.48276  -0.26170   3.10894
  57   39174.2    255.3    -93.75039   2.06910   0.28529  -2.03106
  58   39408.2    253.8    -49.07032   0.78224   0.25074   2.34132
  59   39434.0    253.6    117.12267   1.31152   0.10311   1.17854
  60   39731.5    251.7    -16.42914   0.69416   0.39025   0.59075
  61   40155.5    249.0     -8.24542  -0.48620  -0.33610  -0.20719
  62   40229.0    248.6    -120.62697   1.05085   0.01321   2.96045

sTD-DFT done

Total run time:        4.960 sec

           *** ORCA-CIS/TD-DFT FINISHED WITHOUT ERROR ***

-------------------------   --------------------
FINAL SINGLE POINT ENERGY     -6547.763763812567
-------------------------   --------------------


                            ***************************************
                            *     ORCA property calculations      *
                            ***************************************

                                    ---------------------
                                    Active property flags
                                    ---------------------
   (+) Dipole Moment


------------------------------------------------------------------------------
                       ORCA ELECTRIC PROPERTIES CALCULATION
------------------------------------------------------------------------------

Dipole Moment Calculation                       ... on
Quadrupole Moment Calculation                   ... off
Polarizability Calculation                      ... off
GBWName                                         ... xtbopt.gbw
Electron density file                           ... xtbopt.scfp
The origin for moment calculation is the CENTER OF MASS  = (-6.844748, 24.749787 -1.151559)

-------------
DIPOLE MOMENT
-------------
                                X             Y             Z
Electronic contribution:     11.88903     -32.32909       0.83193
Nuclear contribution   :    -10.17512      29.67540      -0.20766
                        -----------------------------------------
Total Dipole Moment    :      1.71391      -2.65369       0.62427
                        -----------------------------------------
Magnitude (a.u.)       :      3.22013
Magnitude (Debye)      :      8.18492



--------------------
Rotational spectrum 
--------------------
 
Rotational constants in cm-1:     0.001314     0.000127     0.000120 
Rotational constants in MHz :    39.383442     3.807494     3.602087 

 Dipole components along the rotational axes: 
x,y,z [a.u.] :    -2.909355     1.321294     0.398840 
x,y,z [Debye]:    -7.394994     3.358464     1.013772 

 

Timings for individual modules:

Sum of individual times         ...      781.391 sec (=  13.023 min)
GTO integral calculation        ...        3.822 sec (=   0.064 min)   0.5 %
SCF iterations                  ...      771.831 sec (=  12.864 min)  98.8 %
CIS module                      ...        5.737 sec (=   0.096 min)   0.7 %
                             ****ORCA TERMINATED NORMALLY****
TOTAL RUN TIME: 0 days 0 hours 13 minutes 2 seconds 482 msec
